
                                 *****************
                                 * O   R   C   A *
                                 *****************

           --- An Ab Initio, DFT and Semiempirical electronic structure package ---

                  #######################################################
                  #                        -***-                        #
                  #          Department of theory and spectroscopy      #
                  #               Directorship: Frank Neese             #
                  #        Max Planck Institute fuer Kohlenforschung    #
                  #                Kaiser Wilhelm Platz 1               #
                  #                 D-45470 Muelheim/Ruhr               #
                  #                      Germany                        #
                  #                                                     #
                  #                  All rights reserved                #
                  #                        -***-                        #
                  #######################################################


                         Program Version 4.1.2  - RELEASE  -


 With contributions from (in alphabetic order):
   Daniel Aravena         : Magnetic Properties
   Michael Atanasov       : Ab Initio Ligand Field Theory
   Alexander A. Auer      : GIAO ZORA
   Ute Becker             : Parallelization
   Giovanni Bistoni       : ED, Open-shell LED
   Martin Brehm           : Molecular dynamics
   Dmytro Bykov           : SCF Hessian
   Vijay G. Chilkuri      : MRCI spin determinant printing
   Dipayan Datta          : RHF DLPNO-CCSD density
   Achintya Kumar Dutta   : EOM-CC, STEOM-CC
   Dmitry Ganyushin       : Spin-Orbit,Spin-Spin,Magnetic field MRCI
   Miquel Garcia          : C-PCM Hessian
   Yang Guo               : DLPNO-NEVPT2, CIM, IAO-localization
   Andreas Hansen         : Spin unrestricted coupled pair/coupled cluster methods
   Benjamin Helmich-Paris : CASSCF linear response (MC-RPA)
   Lee Huntington         : MR-EOM, pCC
   Robert Izsak           : Overlap fitted RIJCOSX, COSX-SCS-MP3, EOM
   Christian Kollmar      : KDIIS, OOCD, Brueckner-CCSD(T), CCSD density
   Simone Kossmann        : Meta GGA functionals, TD-DFT gradient, OOMP2, MP2 Hessian
   Martin Krupicka        : AUTO-CI
   Lucas Lang             : DCDCAS
   Dagmar Lenk            : GEPOL surface, SMD
   Dimitrios Liakos       : Extrapolation schemes; parallel MDCI
   Dimitrios Manganas     : ROCIS; embedding schemes
   Dimitrios Pantazis     : SARC Basis sets
   Taras Petrenko         : DFT Hessian,TD-DFT gradient, ASA, ECA, R-Raman, ABS, FL, XAS/XES, NRVS
   Peter Pinski           : DLPNO-MP2, DLPNO-MP2 Gradient
   Christoph Reimann      : Effective Core Potentials
   Marius Retegan         : Local ZFS, SOC
   Christoph Riplinger    : Optimizer, TS searches, QM/MM, DLPNO-CCSD(T), (RO)-DLPNO pert. Triples
   Tobias Risthaus        : Range-separated hybrids, TD-DFT gradient, RPA, STAB
   Michael Roemelt        : Restricted open shell CIS
   Masaaki Saitow         : Open-shell DLPNO
   Barbara Sandhoefer     : DKH picture change effects
   Avijit Sen             : IP-ROCIS
   Kantharuban Sivalingam : CASSCF convergence, NEVPT2, FIC-MRCI
   Bernardo de Souza      : ESD, SOC TD-DFT
   Georgi Stoychev        : AutoAux, RI-MP2 NMR
   Willem Van den Heuvel  : Paramagnetic NMR
   Boris Wezisla          : Elementary symmetry handling
   Frank Wennmohs         : Technical directorship


 We gratefully acknowledge several colleagues who have allowed us to
 interface, adapt or use parts of their codes:
   Stefan Grimme, W. Hujo, H. Kruse,             : VdW corrections, initial TS optimization,
                  C. Bannwarth                     DFT functionals, gCP, sTDA/sTD-DF
   Ed Valeev                                     : LibInt (2-el integral package), F12 methods
   Garnet Chan, S. Sharma, J. Yang, R. Olivares  : DMRG
   Ulf Ekstrom                                   : XCFun DFT Library
   Mihaly Kallay                                 : mrcc  (arbitrary order and MRCC methods)
   Andreas Klamt, Michael Diedenhofen            : otool_cosmo (COSMO solvation model)
   Jiri Pittner, Ondrej Demel                    : Mk-CCSD
   Frank Weinhold                                : gennbo (NPA and NBO analysis)
   Christopher J. Cramer and Donald G. Truhlar   : smd solvation model
   Lars Goerigk                                  : TD-DFT with DH, B97 family of functionals
   V. Asgeirsson, H. Jonsson                     : NEB implementation
   FAccTs GmbH                                   : IRC, NEB, NEB-TS, Multilevel


 Your calculation uses the libint2 library for the computation of 2-el integrals
 For citations please refer to: http://libint.valeyev.net

 This ORCA versions uses:
   CBLAS   interface :  Fast vector & matrix operations
   LAPACKE interface :  Fast linear algebra routines
   SCALAPACK package :  Parallel linear algebra routines


----- Orbital basis set information -----
Your calculation utilizes the basis: aug-cc-pVTZ 
    H, B-Ne : Obtained from the ccRepo (grant-hill.group.shef.ac.uk/ccrepo) Feb. 2017
              R. A. Kendall, T. H. Dunning, Jr., R. J. Harrison, J. Chem. Phys. 96, 6796 (1992)
         He : Obtained from the ccRepo (grant-hill.group.shef.ac.uk/ccrepo) Feb. 2017
              D. E. Woon, T. H. Dunning, Jr., J. Chem. Phys. 100, 2975 (1994)
  Li-Be, Na : Obtained from the ccRepo (grant-hill.group.shef.ac.uk/ccrepo) Feb. 2017
              B. P. Prascher, D. E. Woon, K. A. Peterson, T. H. Dunning, Jr., A. K. Wilson, Theor. Chem. Acc. 128, 69 (2011)
         Mg : Obtained from the Peterson Research Group Website (tyr0.chem.wsu.edu/~kipeters) Feb. 2017
              B. P. Prascher, D. E. Woon, K. A. Peterson, T. H. Dunning, Jr., A. K. Wilson, Theor. Chem. Acc. 128, 69 (2011)
      Al-Ar : Obtained from the ccRepo (grant-hill.group.shef.ac.uk/ccrepo) Feb. 2017
              D. E. Woon, T. H. Dunning, Jr., J. Chem. Phys. 98, 1358 (1993)
      Sc-Zn : Obtained from the ccRepo (grant-hill.group.shef.ac.uk/ccrepo) Feb. 2017
              N. B. Balabanov, K. A. Peterson, J. Chem. Phys. 123, 064107 (2005)
              N. B. Balabanov, K. A. Peterson, J. Chem. Phys. 125, 074110 (2006)
      Ga-Kr : Obtained from the ccRepo (grant-hill.group.shef.ac.uk/ccrepo) Feb. 2017
              A. K. Wilson, D. E. Woon, K. A. Peterson, T. H. Dunning, Jr., J. Chem. Phys. 110, 7667 (1999)
     Ag, Au : Obtained from the Peterson Research Group Website (tyr0.chem.wsu.edu/~kipeters) Feb. 2017
              K. A. Peterson, C. Puzzarini, Theor. Chem. Acc. 114, 283 (2005)

----- AuxJ basis set information -----
Your calculation utilizes the AutoAux generation procedure.
  G. L. Stoychev, A. A. Auer, F. Neese, J. Chem. Theory Comput. 13, 554 (2017)

----- AuxC basis set information -----
Your calculation utilizes the auxiliary basis: aug-cc-pVTZ/C 
  H-He, B-F, Al-Ar, Ga-Kr : Obtained from the EMSL Basis Set Exchange (bse.pnl.gov) Feb. 2017
                            F. Weigend, A. Kohn, C. Hattig, J. Chem. Phys. 116, 3175 (2002)
                   Be, Mg : Obtained from the TURBOMOLE 7.0 basis set library
                            C. Haettig, Phys. Chem. Chem. Phys. 7, 59 (2005)
                       Ne : Obtained from the EMSL Basis Set Exchange (bse.pnl.gov) Feb. 2017
                            C. Haettig, Phys. Chem. Chem. Phys. 7, 59 (2005)
                            F. Weigend, A. Kohn, C. Hattig, J. Chem. Phys. 116, 3175 (2002)
                    Sc-Zn : Obtained from the EMSL Basis Set Exchange (bse.pnl.gov) Feb. 2017
                            J. G. Hill, J. A. Platts, J. Chem. Phys. 128, 044104 (2008)

----- AuxJK basis set information -----
Your calculation utilizes the AutoAux generation procedure.
  G. L. Stoychev, A. A. Auer, F. Neese, J. Chem. Theory Comput. 13, 554 (2017)

================================================================================
                                        WARNINGS
                       Please study these warnings very carefully!
================================================================================


WARNING: your system is open-shell and RHF/RKS was chosen
  ===> : WILL SWITCH to UHF/UKS


WARNING: MDCI localization with Augmented Hessian Foster-Boys
  ===> : Switching off randomization!

WARNING: Post HF methods need fully converged wavefunctions
  ===> : Setting SCFConvForced true
         You can overwrite this default with %scf ConvForced false 


INFO   : the flag for use of LIBINT has been found!

================================================================================
                                       INPUT FILE
================================================================================
NAME = simple-grid-160-235-b3lyp_d3bj-631gd-gas-singlepoint-DLPNO_CCSD_T1-NormalPNO-augtz-gas.inp
|  1> ! aug-cc-pVTZ aug-cc-pVTZ/C DLPNO-CCSD(T1) TightSCF NormalPNO UNO MiniPrint AutoAux
|  2> %pal nproc 10 end
|  3> %maxcore 20000
|  4> %mdci
|  5>      density none
|  6> end
|  7> 
|  8> * xyz 0 6
|  9>  O     -0.29903000     -0.36909000     -0.71008500
| 10>  C     -1.43526500     -1.20958200     -0.48726100
| 11>  C     -2.60474400     -0.23397000      0.00315000
| 12>  C     -2.03535500      1.13976700     -0.22947300
| 13>  C     -2.02657500      1.74097700     -1.57229900
| 14> Fe      1.34601900      0.03231400      0.00344600
| 15> Cl      1.63037600      2.10659200     -0.77037200
| 16>  C     -1.58115700      1.96745000      0.89163400
| 17> Cl      2.83504100     -1.46012100     -0.59196800
| 18> Cl      1.05715000      0.10581600      2.23265300
| 19>  H     -3.44410500     -0.35203900     -0.69446400
| 20>  H     -2.45734100      2.18851700      1.52163500
| 21>  H     -0.89882400      1.39629700      1.54100500
| 22>  H     -1.09986200      2.89136500      0.57172500
| 23>  H     -2.66308700      2.64026800     -1.54180900
| 24>  H     -1.00633600      2.09809400     -1.77661700
| 25>  H     -2.36774200      1.07207000     -2.36040200
| 26>  C     -3.11584000     -0.46619700      1.42825200
| 27>  H     -3.91540700      0.24039400      1.67700900
| 28>  H     -3.53341100     -1.47243900      1.50936600
| 29>  H     -2.32450300     -0.37125400      2.17521600
| 30>  C     -1.08846500     -2.29924300      0.52478700
| 31>  H     -1.92009600     -2.99413700      0.67955000
| 32>  H     -0.24144600     -2.86474800      0.12179200
| 33>  H     -0.78060600     -1.88217200      1.48482300
| 34>  C     -1.80756200     -1.84605600     -1.82832200
| 35>  H     -0.96490000     -2.44811800     -2.18023400
| 36>  H     -2.68724100     -2.49227600     -1.72895800
| 37>  H     -2.01320600     -1.08500900     -2.58667800
| 38> *
| 39> 
| 40> 
| 41>                          ****END OF INPUT****
================================================================================

                       ****************************
                       * Single Point Calculation *
                       ****************************

---------------------------------
CARTESIAN COORDINATES (ANGSTROEM)
---------------------------------
  O     -0.299030   -0.369090   -0.710085
  C     -1.435265   -1.209582   -0.487261
  C     -2.604744   -0.233970    0.003150
  C     -2.035355    1.139767   -0.229473
  C     -2.026575    1.740977   -1.572299
  Fe     1.346019    0.032314    0.003446
  Cl     1.630376    2.106592   -0.770372
  C     -1.581157    1.967450    0.891634
  Cl     2.835041   -1.460121   -0.591968
  Cl     1.057150    0.105816    2.232653
  H     -3.444105   -0.352039   -0.694464
  H     -2.457341    2.188517    1.521635
  H     -0.898824    1.396297    1.541005
  H     -1.099862    2.891365    0.571725
  H     -2.663087    2.640268   -1.541809
  H     -1.006336    2.098094   -1.776617
  H     -2.367742    1.072070   -2.360402
  C     -3.115840   -0.466197    1.428252
  H     -3.915407    0.240394    1.677009
  H     -3.533411   -1.472439    1.509366
  H     -2.324503   -0.371254    2.175216
  C     -1.088465   -2.299243    0.524787
  H     -1.920096   -2.994137    0.679550
  H     -0.241446   -2.864748    0.121792
  H     -0.780606   -1.882172    1.484823
  C     -1.807562   -1.846056   -1.828322
  H     -0.964900   -2.448118   -2.180234
  H     -2.687241   -2.492276   -1.728958
  H     -2.013206   -1.085009   -2.586678

----------------------------
CARTESIAN COORDINATES (A.U.)
----------------------------
  NO LB      ZA    FRAG     MASS         X           Y           Z
   0 O     8.0000    0    15.999   -0.565085   -0.697479   -1.341866
   1 C     6.0000    0    12.011   -2.712258   -2.285779   -0.920790
   2 C     6.0000    0    12.011   -4.922253   -0.442139    0.005953
   3 C     6.0000    0    12.011   -3.846264    2.153847   -0.433641
   4 C     6.0000    0    12.011   -3.829672    3.289970   -2.971215
   5 Fe   26.0000    0    55.850    2.543607    0.061065    0.006512
   6 Cl   17.0000    0    35.453    3.080964    3.980882   -1.455792
   7 C     6.0000    0    12.011   -2.987954    3.717942    1.684944
   8 Cl   17.0000    0    35.453    5.357451   -2.759229   -1.118657
   9 Cl   17.0000    0    35.453    1.997724    0.199963    4.219103
  10 H     1.0000    0     1.008   -6.508415   -0.665257   -1.312347
  11 H     1.0000    0     1.008   -4.643702    4.135698    2.875473
  12 H     1.0000    0     1.008   -1.698531    2.638619    2.912077
  13 H     1.0000    0     1.008   -2.078438    5.463888    1.080404
  14 H     1.0000    0     1.008   -5.032505    4.989383   -2.913597
  15 H     1.0000    0     1.008   -1.901699    3.964823   -3.357320
  16 H     1.0000    0     1.008   -4.474384    2.025919   -4.460513
  17 C     6.0000    0    12.011   -5.888084   -0.880985    2.699005
  18 H     1.0000    0     1.008   -7.399047    0.454279    3.169088
  19 H     1.0000    0     1.008   -6.677179   -2.782506    2.852288
  20 H     1.0000    0     1.008   -4.392674   -0.701568    4.110563
  21 C     6.0000    0    12.011   -2.056901   -4.344940    0.991704
  22 H     1.0000    0     1.008   -3.628456   -5.658099    1.284163
  23 H     1.0000    0     1.008   -0.456267   -5.413589    0.230154
  24 H     1.0000    0     1.008   -1.475132   -3.556790    2.805909
  25 C     6.0000    0    12.011   -3.415797   -3.488540   -3.455028
  26 H     1.0000    0     1.008   -1.823397   -4.626273   -4.120045
  27 H     1.0000    0     1.008   -5.078150   -4.709719   -3.267257
  28 H     1.0000    0     1.008   -3.804408   -2.050370   -4.888113



           ************************************************************
           *        Program running with 10 parallel MPI-processes    *
           *              working on a common directory               *
           ************************************************************


           ************************************************************
           *        Program running with 10 parallel MPI-processes    *
           *              working on a common directory               *
           ************************************************************

Diagonalization of the overlap matrix:
Smallest eigenvalue                        ... 5.466e-07
Time for diagonalization                   ...    0.385 sec
Threshold for overlap eigenvalues          ... 1.000e-08
Number of eigenvalues below threshold      ... 0
Time for construction of square roots      ...    0.331 sec
Total time needed                          ...    0.721 sec

-------------------
DFT GRID GENERATION
-------------------

General Integration Accuracy     IntAcc      ...  4.340
Radial Grid Type                 RadialGrid  ... Gauss-Chebyshev
Angular Grid (max. acc.)         AngularGrid ... Lebedev-110
Angular grid pruning method      GridPruning ... 3 (G Style)
Weight generation scheme         WeightScheme... Becke
Basis function cutoff            BFCut       ...    1.0000e-11
Integration weight cutoff        WCut        ...    1.0000e-14
Grids for H and He will be reduced by one unit

# of grid points (after initial pruning)     ...  36112 (   0.0 sec)
# of grid points (after weights+screening)   ...  32284 (   0.1 sec)
nearest neighbour list constructed           ...    0.0 sec
Grid point re-assignment to atoms done       ...    0.0 sec
Grid point division into batches done        ...    0.0 sec
Reduced shell lists constructed in    0.3 sec

Total number of grid points                  ...    32284
Total number of batches                      ...      521
Average number of points per batch           ...       61
Average number of grid points per atom       ...     1113
Average number of shells per batch           ...   294.00 (85.71%)
Average number of basis functions per batch  ...   875.15 (85.38%)
Average number of large shells per batch     ...   243.06 (82.67%)
Average number of large basis fcns per batch ...   723.46 (82.67%)
Maximum spatial batch extension              ...   2.48,  3.12,  5.35 au
Average spatial batch extension              ...   0.17,  0.18,  0.18 au

Time for grid setup =    0.423 sec

Loading Hartree-Fock densities                     ... done
Calculating cut-offs                               ... done
Setting up the integral package                    ... done
Initializing the effective Hamiltonian             ... done
Starting the Coulomb interaction                   ... done (   1.1 sec)
Reading the grid                                   ... done
Mapping shells                                     ... done
Starting the XC term evaluation                    ... done (   0.8 sec)
Transforming the Hamiltonian                       ... done (   0.2 sec)
Diagonalizing the Hamiltonian                      ... done (   0.3 sec)
Back transforming the eigenvectors                 ... done (   0.1 sec)
Now organizing SCF variables                       ... done
--------------
SCF ITERATIONS
--------------
ITER       Energy         Delta-E        Max-DP      RMS-DP      [F,P]     Damp
               ***  Starting incremental Fock matrix formation  ***
  0  -3027.5656369417   0.000000000000 0.28998253  0.00132142  0.2972991 0.7000
  1  -3027.8195210910  -0.253884149254 0.20012388  0.00100964  0.1678624 0.7000
                               ***Turning on DIIS***
  2  -3027.9885134870  -0.168992395988 0.13540619  0.00073178  0.1100037 0.7000
  3  -3029.6778356669  -1.689322179956 0.32589346  0.00179249  0.0826828 0.0000
  4  -3028.3024849911   1.375350675829 0.04780851  0.00023404  0.0197406 0.0000
  5  -3028.4197792948  -0.117294303684 0.03972401  0.00017387  0.0114507 0.0000
  6  -3028.4349009480  -0.015121653190 0.02051042  0.00007034  0.0051842 0.0000
  7  -3028.4591236816  -0.024222733655 0.01020599  0.00003345  0.0031777 0.0000
  8  -3028.4558567939   0.003266887735 0.00595187  0.00001818  0.0013499 0.0000
  9  -3028.4460811345   0.009775659385 0.00242969  0.00001077  0.0006871 0.0000
 10  -3028.4360365464   0.010044588053 0.00082144  0.00000311  0.0004124 0.0000
 11  -3028.4419650635  -0.005928517083 0.00026247  0.00000185  0.0000695 0.0000
 12  -3028.4400543915   0.001910672051 0.00071140  0.00000169  0.0000218 0.0000
 13  -3028.4402018575  -0.000147466055 0.00090715  0.00000202  0.0000098 0.0000
 14  -3028.4402487055  -0.000046847967 0.00122553  0.00000276  0.0000058 0.0000
 15  -3028.4401851534   0.000063552084 0.00109088  0.00000280  0.0000033 0.0000
 16  -3028.4402047811  -0.000019627693 0.00207280  0.00000399  0.0000019 0.0000
 17  -3028.4401989203   0.000005860822 0.00077712  0.00000224  0.0000011 0.0000
                            ***DIIS convergence achieved***

               *****************************************************
               *                     SUCCESS                       *
               *           SCF CONVERGED AFTER  18 CYCLES          *
               *****************************************************

Total Energy       :        -3028.44019645 Eh          -82408.04729 eV
  Last Energy change         ...    2.4723e-06  Tolerance :   1.0000e-08
  Last MAX-Density change    ...    2.0117e-03  Tolerance :   1.0000e-07
             **** THE GBW FILE WAS UPDATED (simple-grid-160-235-b3lyp_d3bj-631gd-gas-singlepoint-DLPNO_CCSD_T1-NormalPNO-augtz-gas.gbw) ****
             **** DENSITY FILE WAS UPDATED (simple-grid-160-235-b3lyp_d3bj-631gd-gas-singlepoint-DLPNO_CCSD_T1-NormalPNO-augtz-gas.scfp.tmp) ****
             **** ENERGY FILE WAS UPDATED (simple-grid-160-235-b3lyp_d3bj-631gd-gas-singlepoint-DLPNO_CCSD_T1-NormalPNO-augtz-gas.en.tmp) ****
----------------------
UHF SPIN CONTAMINATION
----------------------

Expectation value of <S**2>     :     8.764714
Ideal value S*(S+1) for S=2.5   :     8.750000
Deviation                       :     0.014714

----------------
ORBITAL ENERGIES
----------------
                 SPIN UP ORBITALS
  NO   OCC          E(Eh)            E(eV) 
   0   1.0000    -261.542626     -7116.9367 
   1   1.0000    -104.775092     -2851.0752 
   2   1.0000    -104.773338     -2851.0275 
   3   1.0000    -104.767587     -2850.8710 
   4   1.0000     -32.210462      -876.4912 
   5   1.0000     -27.686512      -753.3883 
   6   1.0000     -27.686211      -753.3801 
   7   1.0000     -27.685778      -753.3683 
   8   1.0000     -20.535996      -558.8129 
   9   1.0000     -11.417354      -310.6820 
  10   1.0000     -11.330366      -308.3149 
  11   1.0000     -11.296868      -307.4034 
  12   1.0000     -11.289271      -307.1967 
  13   1.0000     -11.281791      -306.9931 
  14   1.0000     -11.262662      -306.4726 
  15   1.0000     -11.236512      -305.7610 
  16   1.0000     -11.228568      -305.5449 
  17   1.0000     -10.501699      -285.7658 
  18   1.0000     -10.499855      -285.7156 
  19   1.0000     -10.494154      -285.5605 
  20   1.0000      -7.968597      -216.8366 
  21   1.0000      -7.967680      -216.8116 
  22   1.0000      -7.967650      -216.8108 
  23   1.0000      -7.966717      -216.7854 
  24   1.0000      -7.965925      -216.7638 
  25   1.0000      -7.965816      -216.7609 
  26   1.0000      -7.960921      -216.6277 
  27   1.0000      -7.960288      -216.6104 
  28   1.0000      -7.960193      -216.6079 
  29   1.0000      -4.565955      -124.2460 
  30   1.0000      -3.178517       -86.4919 
  31   1.0000      -3.177998       -86.4777 
  32   1.0000      -3.177742       -86.4708 
  33   1.0000      -1.343693       -36.5638 
  34   1.0000      -1.190973       -32.4080 
  35   1.0000      -1.097693       -29.8697 
  36   1.0000      -1.044841       -28.4316 
  37   1.0000      -1.039885       -28.2967 
  38   1.0000      -1.037774       -28.2393 
  39   1.0000      -1.034992       -28.1636 
  40   1.0000      -1.020269       -27.7629 
  41   1.0000      -0.962540       -26.1920 
  42   1.0000      -0.933124       -25.3916 
  43   1.0000      -0.901610       -24.5340 
  44   1.0000      -0.895654       -24.3720 
  45   1.0000      -0.895434       -24.3660 
  46   1.0000      -0.888510       -24.1776 
  47   1.0000      -0.887477       -24.1495 
  48   1.0000      -0.807576       -21.9753 
  49   1.0000      -0.759025       -20.6541 
  50   1.0000      -0.709372       -19.3030 
  51   1.0000      -0.690931       -18.8012 
  52   1.0000      -0.677787       -18.4435 
  53   1.0000      -0.637174       -17.3384 
  54   1.0000      -0.631979       -17.1970 
  55   1.0000      -0.623768       -16.9736 
  56   1.0000      -0.605193       -16.4681 
  57   1.0000      -0.600188       -16.3319 
  58   1.0000      -0.594524       -16.1778 
  59   1.0000      -0.583318       -15.8729 
  60   1.0000      -0.578421       -15.7396 
  61   1.0000      -0.554909       -15.0998 
  62   1.0000      -0.546384       -14.8679 
  63   1.0000      -0.537504       -14.6262 
  64   1.0000      -0.523142       -14.2354 
  65   1.0000      -0.518883       -14.1195 
  66   1.0000      -0.500646       -13.6233 
  67   1.0000      -0.467755       -12.7283 
  68   1.0000      -0.466610       -12.6971 
  69   1.0000      -0.444581       -12.0977 
  70   1.0000      -0.437414       -11.9026 
  71   1.0000      -0.423795       -11.5320 
  72   1.0000      -0.420108       -11.4317 
  73   1.0000      -0.416558       -11.3351 
  74   1.0000      -0.412524       -11.2254 
  75   1.0000      -0.411193       -11.1891 
  76   1.0000      -0.408522       -11.1164 
  77   0.0000       0.003336         0.0908 
  78   0.0000       0.010949         0.2979 
  79   0.0000       0.019741         0.5372 
  80   0.0000       0.020705         0.5634 
  81   0.0000       0.030318         0.8250 
  82   0.0000       0.037290         1.0147 
  83   0.0000       0.039536         1.0758 
  84   0.0000       0.043615         1.1868 
  85   0.0000       0.045110         1.2275 
  86   0.0000       0.047345         1.2883 
  87   0.0000       0.056314         1.5324 
  88   0.0000       0.059474         1.6184 
  89   0.0000       0.061245         1.6666 
  90   0.0000       0.065153         1.7729 
  91   0.0000       0.066806         1.8179 
  92   0.0000       0.070399         1.9157 
  93   0.0000       0.072995         1.9863 
  94   0.0000       0.077384         2.1057 
  95   0.0000       0.088800         2.4164 
  96   0.0000       0.089662         2.4398 
  97   0.0000       0.093019         2.5312 
  98   0.0000       0.094008         2.5581 
  99   0.0000       0.098525         2.6810 
 100   0.0000       0.100524         2.7354 
 101   0.0000       0.109483         2.9792 
 102   0.0000       0.114458         3.1146 
 103   0.0000       0.118391         3.2216 
 104   0.0000       0.121550         3.3075 
 105   0.0000       0.126133         3.4323 
 106   0.0000       0.127316         3.4644 
 107   0.0000       0.130401         3.5484 
 108   0.0000       0.135738         3.6936 
 109   0.0000       0.136108         3.7037 
 110   0.0000       0.137328         3.7369 
 111   0.0000       0.139152         3.7865 
 112   0.0000       0.145768         3.9665 
 113   0.0000       0.148104         4.0301 
 114   0.0000       0.152215         4.1420 
 115   0.0000       0.153273         4.1708 
 116   0.0000       0.155025         4.2184 
 117   0.0000       0.161536         4.3956 
 118   0.0000       0.163737         4.4555 
 119   0.0000       0.167481         4.5574 
 120   0.0000       0.170330         4.6349 
 121   0.0000       0.173687         4.7263 
 122   0.0000       0.174524         4.7490 
 123   0.0000       0.178874         4.8674 
 124   0.0000       0.183279         4.9873 
 125   0.0000       0.188352         5.1253 
 126   0.0000       0.189961         5.1691 
 127   0.0000       0.192781         5.2458 
 128   0.0000       0.196825         5.3559 
 129   0.0000       0.202300         5.5049 
 130   0.0000       0.204751         5.5715 
 131   0.0000       0.207600         5.6491 
 132   0.0000       0.209878         5.7111 
 133   0.0000       0.212222         5.7749 
 134   0.0000       0.214007         5.8234 
 135   0.0000       0.218353         5.9417 
 136   0.0000       0.225571         6.1381 
 137   0.0000       0.230022         6.2592 
 138   0.0000       0.233106         6.3431 
 139   0.0000       0.234476         6.3804 
 140   0.0000       0.238632         6.4935 
 141   0.0000       0.239042         6.5047 
 142   0.0000       0.243548         6.6273 
 143   0.0000       0.246784         6.7153 
 144   0.0000       0.250301         6.8110 
 145   0.0000       0.251597         6.8463 
 146   0.0000       0.255073         6.9409 
 147   0.0000       0.259526         7.0621 
 148   0.0000       0.261988         7.1291 
 149   0.0000       0.265339         7.2202 
 150   0.0000       0.267610         7.2821 
 151   0.0000       0.272596         7.4177 
 152   0.0000       0.273839         7.4515 
 153   0.0000       0.277779         7.5588 
 154   0.0000       0.283535         7.7154 
 155   0.0000       0.296621         8.0715 
 156   0.0000       0.298780         8.1302 
 157   0.0000       0.300863         8.1869 
 158   0.0000       0.304595         8.2885 
 159   0.0000       0.308660         8.3991 
 160   0.0000       0.310835         8.4582 
 161   0.0000       0.312250         8.4967 
 162   0.0000       0.314936         8.5698 
 163   0.0000       0.322290         8.7700 
 164   0.0000       0.323013         8.7896 
 165   0.0000       0.329316         8.9611 
 166   0.0000       0.332635         9.0515 
 167   0.0000       0.339156         9.2289 
 168   0.0000       0.342003         9.3064 
 169   0.0000       0.346796         9.4368 
 170   0.0000       0.350681         9.5425 
 171   0.0000       0.353594         9.6218 
 172   0.0000       0.357003         9.7145 
 173   0.0000       0.361147         9.8273 
 174   0.0000       0.363840         9.9006 
 175   0.0000       0.366344         9.9687 
 176   0.0000       0.368804        10.0357 
 177   0.0000       0.372136        10.1263 
 178   0.0000       0.376680        10.2500 
 179   0.0000       0.379147        10.3171 
 180   0.0000       0.383336        10.4311 
 181   0.0000       0.385084        10.4787 
 182   0.0000       0.389234        10.5916 
 183   0.0000       0.390563        10.6278 
 184   0.0000       0.392696        10.6858 
 185   0.0000       0.399716        10.8768 
 186   0.0000       0.401019        10.9123 
 187   0.0000       0.405385        11.0311 
 188   0.0000       0.407653        11.0928 
 189   0.0000       0.413132        11.2419 
 190   0.0000       0.414119        11.2688 
 191   0.0000       0.415707        11.3119 
 192   0.0000       0.423086        11.5127 
 193   0.0000       0.426324        11.6009 
 194   0.0000       0.430156        11.7051 
 195   0.0000       0.432857        11.7787 
 196   0.0000       0.439510        11.9597 
 197   0.0000       0.441934        12.0256 
 198   0.0000       0.446128        12.1398 
 199   0.0000       0.450415        12.2564 
 200   0.0000       0.452715        12.3190 
 201   0.0000       0.456504        12.4221 
 202   0.0000       0.457379        12.4459 
 203   0.0000       0.462269        12.5790 
 204   0.0000       0.466622        12.6974 
 205   0.0000       0.469602        12.7785 
 206   0.0000       0.473338        12.8802 
 207   0.0000       0.477479        12.9929 
 208   0.0000       0.477733        12.9998 
 209   0.0000       0.481052        13.0901 
 210   0.0000       0.482768        13.1368 
 211   0.0000       0.486911        13.2495 
 212   0.0000       0.489677        13.3248 
 213   0.0000       0.493023        13.4158 
 214   0.0000       0.496714        13.5163 
 215   0.0000       0.500340        13.6149 
 216   0.0000       0.504549        13.7295 
 217   0.0000       0.505767        13.7626 
 218   0.0000       0.507518        13.8103 
 219   0.0000       0.510452        13.8901 
 220   0.0000       0.512776        13.9533 
 221   0.0000       0.517568        14.0837 
 222   0.0000       0.520764        14.1707 
 223   0.0000       0.526956        14.3392 
 224   0.0000       0.530972        14.4485 
 225   0.0000       0.534569        14.5464 
 226   0.0000       0.538681        14.6583 
 227   0.0000       0.542995        14.7756 
 228   0.0000       0.547863        14.9081 
 229   0.0000       0.549495        14.9525 
 230   0.0000       0.552456        15.0331 
 231   0.0000       0.559845        15.2341 
 232   0.0000       0.561004        15.2657 
 233   0.0000       0.563272        15.3274 
 234   0.0000       0.567145        15.4328 
 235   0.0000       0.569990        15.5102 
 236   0.0000       0.573672        15.6104 
 237   0.0000       0.578934        15.7536 
 238   0.0000       0.583220        15.8702 
 239   0.0000       0.585750        15.9391 
 240   0.0000       0.588717        16.0198 
 241   0.0000       0.596563        16.2333 
 242   0.0000       0.598504        16.2861 
 243   0.0000       0.602492        16.3946 
 244   0.0000       0.605334        16.4720 
 245   0.0000       0.606948        16.5159 
 246   0.0000       0.612136        16.6571 
 247   0.0000       0.614100        16.7105 
 248   0.0000       0.617401        16.8003 
 249   0.0000       0.621098        16.9009 
 250   0.0000       0.629787        17.1374 
 251   0.0000       0.630093        17.1457 
 252   0.0000       0.631024        17.1710 
 253   0.0000       0.635502        17.2929 
 254   0.0000       0.642748        17.4901 
 255   0.0000       0.646531        17.5930 
 256   0.0000       0.648482        17.6461 
 257   0.0000       0.653506        17.7828 
 258   0.0000       0.655556        17.8386 
 259   0.0000       0.658415        17.9164 
 260   0.0000       0.665388        18.1061 
 261   0.0000       0.668641        18.1947 
 262   0.0000       0.671593        18.2750 
 263   0.0000       0.680239        18.5103 
 264   0.0000       0.684153        18.6167 
 265   0.0000       0.689298        18.7568 
 266   0.0000       0.690297        18.7839 
 267   0.0000       0.698135        18.9972 
 268   0.0000       0.703555        19.1447 
 269   0.0000       0.707942        19.2641 
 270   0.0000       0.708936        19.2911 
 271   0.0000       0.712560        19.3897 
 272   0.0000       0.716644        19.5009 
 273   0.0000       0.721112        19.6225 
 274   0.0000       0.727419        19.7941 
 275   0.0000       0.731481        19.9046 
 276   0.0000       0.735923        20.0255 
 277   0.0000       0.737794        20.0764 
 278   0.0000       0.748911        20.3789 
 279   0.0000       0.753409        20.5013 
 280   0.0000       0.757117        20.6022 
 281   0.0000       0.762628        20.7522 
 282   0.0000       0.767607        20.8877 
 283   0.0000       0.768632        20.9155 
 284   0.0000       0.773876        21.0582 
 285   0.0000       0.785177        21.3658 
 286   0.0000       0.786305        21.3964 
 287   0.0000       0.796139        21.6641 
 288   0.0000       0.800033        21.7700 
 289   0.0000       0.807547        21.9745 
 290   0.0000       0.809503        22.0277 
 291   0.0000       0.815931        22.2026 
 292   0.0000       0.821757        22.3612 
 293   0.0000       0.823992        22.4220 
 294   0.0000       0.829600        22.5746 
 295   0.0000       0.833541        22.6818 
 296   0.0000       0.837506        22.7897 
 297   0.0000       0.846577        23.0365 
 298   0.0000       0.848155        23.0795 
 299   0.0000       0.857175        23.3249 
 300   0.0000       0.861086        23.4313 
 301   0.0000       0.870296        23.6819 
 302   0.0000       0.874046        23.7840 
 303   0.0000       0.875744        23.8302 
 304   0.0000       0.886023        24.1099 
 305   0.0000       0.891571        24.2609 
 306   0.0000       0.894086        24.3293 
 307   0.0000       0.896936        24.4069 
 308   0.0000       0.901802        24.5393 
 309   0.0000       0.907339        24.6899 
 310   0.0000       0.910537        24.7770 
 311   0.0000       0.913089        24.8464 
 312   0.0000       0.921345        25.0711 
 313   0.0000       0.923688        25.1348 
 314   0.0000       0.927444        25.2370 
 315   0.0000       0.932440        25.3730 
 316   0.0000       0.935138        25.4464 
 317   0.0000       0.936315        25.4784 
 318   0.0000       0.943197        25.6657 
 319   0.0000       0.945881        25.7387 
 320   0.0000       0.950406        25.8619 
 321   0.0000       0.954318        25.9683 
 322   0.0000       0.957032        26.0422 
 323   0.0000       0.960955        26.1489 
 324   0.0000       0.963748        26.2249 
 325   0.0000       0.965707        26.2782 
 326   0.0000       0.971677        26.4407 
 327   0.0000       0.972853        26.4727 
 328   0.0000       0.981184        26.6994 
 329   0.0000       0.982928        26.7468 
 330   0.0000       0.988054        26.8863 
 331   0.0000       0.991299        26.9746 
 332   0.0000       0.997828        27.1523 
 333   0.0000       1.002913        27.2906 
 334   0.0000       1.005152        27.3516 
 335   0.0000       1.009868        27.4799 
 336   0.0000       1.010825        27.5059 
 337   0.0000       1.013694        27.5840 
 338   0.0000       1.018970        27.7276 
 339   0.0000       1.021203        27.7883 
 340   0.0000       1.022148        27.8140 
 341   0.0000       1.027483        27.9592 
 342   0.0000       1.030503        28.0414 
 343   0.0000       1.036302        28.1992 
 344   0.0000       1.037587        28.2342 
 345   0.0000       1.040795        28.3215 
 346   0.0000       1.046199        28.4685 
 347   0.0000       1.048544        28.5323 
 348   0.0000       1.054359        28.6906 
 349   0.0000       1.056309        28.7436 
 350   0.0000       1.059920        28.8419 
 351   0.0000       1.062713        28.9179 
 352   0.0000       1.067000        29.0345 
 353   0.0000       1.070759        29.1368 
 354   0.0000       1.075228        29.2584 
 355   0.0000       1.080587        29.4043 
 356   0.0000       1.081605        29.4320 
 357   0.0000       1.086636        29.5689 
 358   0.0000       1.090649        29.6781 
 359   0.0000       1.095169        29.8011 
 360   0.0000       1.102235        29.9933 
 361   0.0000       1.104339        30.0506 
 362   0.0000       1.105664        30.0866 
 363   0.0000       1.113209        30.2920 
 364   0.0000       1.115874        30.3645 
 365   0.0000       1.122144        30.5351 
 366   0.0000       1.123079        30.5605 
 367   0.0000       1.127618        30.6840 
 368   0.0000       1.137880        30.9633 
 369   0.0000       1.139822        31.0161 
 370   0.0000       1.142015        31.0758 
 371   0.0000       1.145588        31.1730 
 372   0.0000       1.147052        31.2129 
 373   0.0000       1.157414        31.4948 
 374   0.0000       1.161819        31.6147 
 375   0.0000       1.166972        31.7549 
 376   0.0000       1.173091        31.9214 
 377   0.0000       1.174841        31.9690 
 378   0.0000       1.180447        32.1216 
 379   0.0000       1.184077        32.2204 
 380   0.0000       1.188018        32.3276 
 381   0.0000       1.189802        32.3762 
 382   0.0000       1.199979        32.6531 
 383   0.0000       1.205533        32.8042 
 384   0.0000       1.207899        32.8686 
 385   0.0000       1.212748        33.0006 
 386   0.0000       1.218492        33.1568 
 387   0.0000       1.222719        33.2719 
 388   0.0000       1.224697        33.3257 
 389   0.0000       1.227787        33.4098 
 390   0.0000       1.233859        33.5750 
 391   0.0000       1.239519        33.7290 
 392   0.0000       1.244640        33.8684 
 393   0.0000       1.249268        33.9943 
 394   0.0000       1.250947        34.0400 
 395   0.0000       1.258390        34.2425 
 396   0.0000       1.263141        34.3718 
 397   0.0000       1.270581        34.5743 
 398   0.0000       1.275098        34.6972 
 399   0.0000       1.279761        34.8241 
 400   0.0000       1.285110        34.9696 
 401   0.0000       1.287543        35.0358 
 402   0.0000       1.294153        35.2157 
 403   0.0000       1.299818        35.3698 
 404   0.0000       1.305974        35.5374 
 405   0.0000       1.307993        35.5923 
 406   0.0000       1.311021        35.6747 
 407   0.0000       1.317700        35.8564 
 408   0.0000       1.323307        36.0090 
 409   0.0000       1.326701        36.1014 
 410   0.0000       1.330356        36.2008 
 411   0.0000       1.338151        36.4129 
 412   0.0000       1.347491        36.6671 
 413   0.0000       1.354731        36.8641 
 414   0.0000       1.359378        36.9905 
 415   0.0000       1.366681        37.1893 
 416   0.0000       1.368584        37.2411 
 417   0.0000       1.377778        37.4912 
 418   0.0000       1.379888        37.5487 
 419   0.0000       1.388302        37.7776 
 420   0.0000       1.399640        38.0861 
 421   0.0000       1.403055        38.1791 
 422   0.0000       1.404588        38.2208 
 423   0.0000       1.408988        38.3405 
 424   0.0000       1.415739        38.5242 
 425   0.0000       1.422823        38.7170 
 426   0.0000       1.427428        38.8423 
 427   0.0000       1.430445        38.9244 
 428   0.0000       1.439850        39.1803 
 429   0.0000       1.444432        39.3050 
 430   0.0000       1.448151        39.4062 
 431   0.0000       1.451657        39.5016 
 432   0.0000       1.454130        39.5689 
 433   0.0000       1.459548        39.7163 
 434   0.0000       1.467853        39.9423 
 435   0.0000       1.475817        40.1590 
 436   0.0000       1.483144        40.3584 
 437   0.0000       1.487367        40.4733 
 438   0.0000       1.488043        40.4917 
 439   0.0000       1.493818        40.6489 
 440   0.0000       1.502307        40.8798 
 441   0.0000       1.503405        40.9097 
 442   0.0000       1.506573        40.9959 
 443   0.0000       1.510276        41.0967 
 444   0.0000       1.515423        41.2367 
 445   0.0000       1.522031        41.4166 
 446   0.0000       1.529201        41.6117 
 447   0.0000       1.531797        41.6823 
 448   0.0000       1.534908        41.7670 
 449   0.0000       1.538019        41.8516 
 450   0.0000       1.547224        42.1021 
 451   0.0000       1.552941        42.2577 
 452   0.0000       1.557414        42.3794 
 453   0.0000       1.558683        42.4139 
 454   0.0000       1.566875        42.6368 
 455   0.0000       1.573086        42.8059 
 456   0.0000       1.576347        42.8946 
 457   0.0000       1.577520        42.9265 
 458   0.0000       1.582765        43.0692 
 459   0.0000       1.592778        43.3417 
 460   0.0000       1.600755        43.5588 
 461   0.0000       1.602942        43.6183 
 462   0.0000       1.607010        43.7290 
 463   0.0000       1.612622        43.8817 
 464   0.0000       1.616906        43.9983 
 465   0.0000       1.617808        44.0228 
 466   0.0000       1.624225        44.1974 
 467   0.0000       1.628194        44.3054 
 468   0.0000       1.635131        44.4942 
 469   0.0000       1.638109        44.5752 
 470   0.0000       1.652235        44.9596 
 471   0.0000       1.656623        45.0790 
 472   0.0000       1.666724        45.3539 
 473   0.0000       1.669083        45.4181 
 474   0.0000       1.671113        45.4733 
 475   0.0000       1.678598        45.6770 
 476   0.0000       1.681295        45.7504 
 477   0.0000       1.687024        45.9063 
 478   0.0000       1.693915        46.0938 
 479   0.0000       1.699736        46.2522 
 480   0.0000       1.707970        46.4762 
 481   0.0000       1.712633        46.6031 
 482   0.0000       1.716150        46.6988 
 483   0.0000       1.720624        46.8206 
 484   0.0000       1.722343        46.8673 
 485   0.0000       1.727614        47.0108 
 486   0.0000       1.733396        47.1681 
 487   0.0000       1.735935        47.2372 
 488   0.0000       1.743020        47.4300 
 489   0.0000       1.747175        47.5430 
 490   0.0000       1.753043        47.7027 
 491   0.0000       1.759668        47.8830 
 492   0.0000       1.765726        48.0478 
 493   0.0000       1.770236        48.1706 
 494   0.0000       1.774927        48.2982 
 495   0.0000       1.780734        48.4562 
 496   0.0000       1.787722        48.6464 
 497   0.0000       1.794325        48.8261 
 498   0.0000       1.796734        48.8916 
 499   0.0000       1.805586        49.1325 
 500   0.0000       1.811940        49.3054 
 501   0.0000       1.816088        49.4183 
 502   0.0000       1.819984        49.5243 
 503   0.0000       1.828580        49.7582 
 504   0.0000       1.833093        49.8810 
 505   0.0000       1.836712        49.9795 
 506   0.0000       1.844134        50.1814 
 507   0.0000       1.846810        50.2543 
 508   0.0000       1.858711        50.5781 
 509   0.0000       1.860763        50.6339 
 510   0.0000       1.867495        50.8171 
 511   0.0000       1.871344        50.9219 
 512   0.0000       1.875150        51.0254 
 513   0.0000       1.883139        51.2428 
 514   0.0000       1.888197        51.3804 
 515   0.0000       1.892294        51.4919 
 516   0.0000       1.893961        51.5373 
 517   0.0000       1.899030        51.6752 
 518   0.0000       1.902568        51.7715 
 519   0.0000       1.912581        52.0440 
 520   0.0000       1.919015        52.2191 
 521   0.0000       1.923171        52.3321 
 522   0.0000       1.929392        52.5014 
 523   0.0000       1.930203        52.5235 
 524   0.0000       1.939898        52.7873 
 525   0.0000       1.950105        53.0651 
 526   0.0000       1.951063        53.0911 
 527   0.0000       1.954970        53.1974 
 528   0.0000       1.963396        53.4267 
 529   0.0000       1.970542        53.6212 
 530   0.0000       1.971641        53.6511 
 531   0.0000       1.976876        53.7935 
 532   0.0000       1.980531        53.8930 
 533   0.0000       1.987596        54.0852 
 534   0.0000       1.995230        54.2930 
 535   0.0000       2.001473        54.4629 
 536   0.0000       2.003348        54.5139 
 537   0.0000       2.010798        54.7166 
 538   0.0000       2.013328        54.7854 
 539   0.0000       2.021877        55.0181 
 540   0.0000       2.036032        55.4032 
 541   0.0000       2.039145        55.4880 
 542   0.0000       2.045382        55.6577 
 543   0.0000       2.049259        55.7632 
 544   0.0000       2.052356        55.8474 
 545   0.0000       2.053407        55.8760 
 546   0.0000       2.064953        56.1902 
 547   0.0000       2.069641        56.3178 
 548   0.0000       2.086467        56.7757 
 549   0.0000       2.091677        56.9174 
 550   0.0000       2.098665        57.1076 
 551   0.0000       2.104162        57.2572 
 552   0.0000       2.113730        57.5175 
 553   0.0000       2.126623        57.8684 
 554   0.0000       2.132715        58.0341 
 555   0.0000       2.138833        58.2006 
 556   0.0000       2.142127        58.2902 
 557   0.0000       2.146218        58.4016 
 558   0.0000       2.155849        58.6636 
 559   0.0000       2.163530        58.8727 
 560   0.0000       2.173743        59.1506 
 561   0.0000       2.177010        59.2395 
 562   0.0000       2.185386        59.4674 
 563   0.0000       2.188378        59.5488 
 564   0.0000       2.198267        59.8179 
 565   0.0000       2.204425        59.9854 
 566   0.0000       2.206253        60.0352 
 567   0.0000       2.217870        60.3513 
 568   0.0000       2.223167        60.4955 
 569   0.0000       2.232918        60.7608 
 570   0.0000       2.238346        60.9085 
 571   0.0000       2.243175        61.0399 
 572   0.0000       2.251393        61.2635 
 573   0.0000       2.259289        61.4784 
 574   0.0000       2.267295        61.6962 
 575   0.0000       2.280683        62.0605 
 576   0.0000       2.283257        62.1306 
 577   0.0000       2.293360        62.4055 
 578   0.0000       2.299898        62.5834 
 579   0.0000       2.307939        62.8022 
 580   0.0000       2.315921        63.0194 
 581   0.0000       2.319540        63.1179 
 582   0.0000       2.324350        63.2488 
 583   0.0000       2.340799        63.6964 
 584   0.0000       2.344582        63.7993 
 585   0.0000       2.356332        64.1190 
 586   0.0000       2.363155        64.3047 
 587   0.0000       2.364882        64.3517 
 588   0.0000       2.372518        64.5595 
 589   0.0000       2.375029        64.6278 
 590   0.0000       2.390431        65.0469 
 591   0.0000       2.396203        65.2040 
 592   0.0000       2.400343        65.3166 
 593   0.0000       2.410679        65.5979 
 594   0.0000       2.421778        65.8999 
 595   0.0000       2.426090        66.0173 
 596   0.0000       2.429306        66.1048 
 597   0.0000       2.443966        66.5037 
 598   0.0000       2.445225        66.5380 
 599   0.0000       2.452798        66.7440 
 600   0.0000       2.465359        67.0858 
 601   0.0000       2.467741        67.1507 
 602   0.0000       2.472404        67.2775 
 603   0.0000       2.483630        67.5830 
 604   0.0000       2.496313        67.9281 
 605   0.0000       2.512541        68.3697 
 606   0.0000       2.521505        68.6136 
 607   0.0000       2.529158        68.8219 
 608   0.0000       2.538657        69.0804 
 609   0.0000       2.559598        69.6502 
 610   0.0000       2.563781        69.7640 
 611   0.0000       2.577172        70.1284 
 612   0.0000       2.587429        70.4075 
 613   0.0000       2.590863        70.5010 
 614   0.0000       2.604300        70.8666 
 615   0.0000       2.624303        71.4109 
 616   0.0000       2.627977        71.5109 
 617   0.0000       2.647268        72.0358 
 618   0.0000       2.650492        72.1236 
 619   0.0000       2.658237        72.3343 
 620   0.0000       2.665488        72.5316 
 621   0.0000       2.677541        72.8596 
 622   0.0000       2.690712        73.2180 
 623   0.0000       2.704834        73.6023 
 624   0.0000       2.713341        73.8338 
 625   0.0000       2.718404        73.9715 
 626   0.0000       2.726891        74.2025 
 627   0.0000       2.735129        74.4267 
 628   0.0000       2.737835        74.5003 
 629   0.0000       2.746578        74.7382 
 630   0.0000       2.753341        74.9222 
 631   0.0000       2.763614        75.2018 
 632   0.0000       2.780424        75.6592 
 633   0.0000       2.787369        75.8482 
 634   0.0000       2.795504        76.0695 
 635   0.0000       2.800977        76.2184 
 636   0.0000       2.814451        76.5851 
 637   0.0000       2.831792        77.0570 
 638   0.0000       2.848603        77.5144 
 639   0.0000       2.856370        77.7258 
 640   0.0000       2.864438        77.9453 
 641   0.0000       2.884190        78.4828 
 642   0.0000       2.885931        78.5302 
 643   0.0000       2.900301        78.9212 
 644   0.0000       2.923498        79.5524 
 645   0.0000       2.927808        79.6697 
 646   0.0000       2.949853        80.2696 
 647   0.0000       2.959088        80.5209 
 648   0.0000       2.973879        80.9234 
 649   0.0000       2.996218        81.5312 
 650   0.0000       3.000123        81.6375 
 651   0.0000       3.030969        82.4769 
 652   0.0000       3.044614        82.8481 
 653   0.0000       3.052563        83.0645 
 654   0.0000       3.059937        83.2651 
 655   0.0000       3.069855        83.5350 
 656   0.0000       3.091368        84.1204 
 657   0.0000       3.112290        84.6897 
 658   0.0000       3.140557        85.4589 
 659   0.0000       3.150965        85.7421 
 660   0.0000       3.155308        85.8603 
 661   0.0000       3.167389        86.1890 
 662   0.0000       3.183301        86.6220 
 663   0.0000       3.192162        86.8631 
 664   0.0000       3.193617        86.9027 
 665   0.0000       3.208107        87.2970 
 666   0.0000       3.219899        87.6179 
 667   0.0000       3.234246        88.0083 
 668   0.0000       3.241514        88.2061 
 669   0.0000       3.243413        88.2578 
 670   0.0000       3.254875        88.5696 
 671   0.0000       3.263985        88.8176 
 672   0.0000       3.278270        89.2063 
 673   0.0000       3.286111        89.4196 
 674   0.0000       3.297311        89.7244 
 675   0.0000       3.306446        89.9730 
 676   0.0000       3.322782        90.4175 
 677   0.0000       3.330917        90.6389 
 678   0.0000       3.334266        90.7300 
 679   0.0000       3.346987        91.0762 
 680   0.0000       3.348057        91.1053 
 681   0.0000       3.365216        91.5722 
 682   0.0000       3.371783        91.7509 
 683   0.0000       3.379306        91.9556 
 684   0.0000       3.390976        92.2731 
 685   0.0000       3.401494        92.5593 
 686   0.0000       3.403429        92.6120 
 687   0.0000       3.412686        92.8639 
 688   0.0000       3.421203        93.0957 
 689   0.0000       3.435376        93.4813 
 690   0.0000       3.444565        93.7314 
 691   0.0000       3.447209        93.8033 
 692   0.0000       3.464454        94.2726 
 693   0.0000       3.470447        94.4357 
 694   0.0000       3.481835        94.7456 
 695   0.0000       3.485472        94.8445 
 696   0.0000       3.495388        95.1143 
 697   0.0000       3.503293        95.3295 
 698   0.0000       3.510727        95.5317 
 699   0.0000       3.515484        95.6612 
 700   0.0000       3.517833        95.7251 
 701   0.0000       3.525688        95.9388 
 702   0.0000       3.532856        96.1339 
 703   0.0000       3.545590        96.4804 
 704   0.0000       3.564216        96.9872 
 705   0.0000       3.572370        97.2091 
 706   0.0000       3.583173        97.5031 
 707   0.0000       3.583873        97.5221 
 708   0.0000       3.586760        97.6007 
 709   0.0000       3.595767        97.8458 
 710   0.0000       3.603942        98.0683 
 711   0.0000       3.610833        98.2558 
 712   0.0000       3.625510        98.6551 
 713   0.0000       3.638244        99.0017 
 714   0.0000       3.640177        99.0542 
 715   0.0000       3.641975        99.1032 
 716   0.0000       3.660911        99.6185 
 717   0.0000       3.663990        99.7022 
 718   0.0000       3.672377        99.9305 
 719   0.0000       3.678961       100.1096 
 720   0.0000       3.686760       100.3218 
 721   0.0000       3.697278       100.6081 
 722   0.0000       3.709477       100.9400 
 723   0.0000       3.714456       101.0755 
 724   0.0000       3.718265       101.1791 
 725   0.0000       3.725101       101.3652 
 726   0.0000       3.734906       101.6320 
 727   0.0000       3.741824       101.8202 
 728   0.0000       3.764087       102.4260 
 729   0.0000       3.774570       102.7113 
 730   0.0000       3.780064       102.8608 
 731   0.0000       3.783708       102.9599 
 732   0.0000       3.792771       103.2065 
 733   0.0000       3.799050       103.3774 
 734   0.0000       3.802950       103.4835 
 735   0.0000       3.816968       103.8650 
 736   0.0000       3.818829       103.9156 
 737   0.0000       3.835981       104.3824 
 738   0.0000       3.838854       104.4605 
 739   0.0000       3.849126       104.7400 
 740   0.0000       3.852479       104.8313 
 741   0.0000       3.853920       104.8705 
 742   0.0000       3.862631       105.1075 
 743   0.0000       3.864170       105.1494 
 744   0.0000       3.869113       105.2839 
 745   0.0000       3.880105       105.5830 
 746   0.0000       3.886228       105.7496 
 747   0.0000       3.900238       106.1309 
 748   0.0000       3.906361       106.2975 
 749   0.0000       3.914629       106.5225 
 750   0.0000       3.919603       106.6578 
 751   0.0000       3.931024       106.9686 
 752   0.0000       3.932306       107.0035 
 753   0.0000       3.940758       107.2335 
 754   0.0000       3.943932       107.3198 
 755   0.0000       3.956119       107.6515 
 756   0.0000       3.959307       107.7382 
 757   0.0000       3.964665       107.8840 
 758   0.0000       3.972679       108.1021 
 759   0.0000       3.978022       108.2475 
 760   0.0000       3.982905       108.3804 
 761   0.0000       3.984022       108.4108 
 762   0.0000       3.990403       108.5844 
 763   0.0000       4.011422       109.1563 
 764   0.0000       4.016329       109.2899 
 765   0.0000       4.022914       109.4690 
 766   0.0000       4.033058       109.7451 
 767   0.0000       4.039638       109.9241 
 768   0.0000       4.044238       110.0493 
 769   0.0000       4.049305       110.1872 
 770   0.0000       4.060226       110.4844 
 771   0.0000       4.066137       110.6452 
 772   0.0000       4.074129       110.8627 
 773   0.0000       4.088640       111.2576 
 774   0.0000       4.094429       111.4151 
 775   0.0000       4.096835       111.4806 
 776   0.0000       4.102202       111.6266 
 777   0.0000       4.112054       111.8947 
 778   0.0000       4.124330       112.2287 
 779   0.0000       4.125213       112.2528 
 780   0.0000       4.135953       112.5450 
 781   0.0000       4.147234       112.8520 
 782   0.0000       4.158184       113.1499 
 783   0.0000       4.160880       113.2233 
 784   0.0000       4.163508       113.2948 
 785   0.0000       4.175322       113.6163 
 786   0.0000       4.189820       114.0108 
 787   0.0000       4.192219       114.0761 
 788   0.0000       4.197967       114.2325 
 789   0.0000       4.209875       114.5565 
 790   0.0000       4.215904       114.7206 
 791   0.0000       4.220363       114.8419 
 792   0.0000       4.232893       115.1829 
 793   0.0000       4.245299       115.5205 
 794   0.0000       4.247448       115.5789 
 795   0.0000       4.264917       116.0543 
 796   0.0000       4.273895       116.2986 
 797   0.0000       4.277008       116.3833 
 798   0.0000       4.289647       116.7272 
 799   0.0000       4.296923       116.9252 
 800   0.0000       4.298361       116.9644 
 801   0.0000       4.314685       117.4085 
 802   0.0000       4.321032       117.5813 
 803   0.0000       4.324585       117.6780 
 804   0.0000       4.338516       118.0570 
 805   0.0000       4.344791       118.2278 
 806   0.0000       4.357124       118.5634 
 807   0.0000       4.362922       118.7211 
 808   0.0000       4.369720       118.9061 
 809   0.0000       4.380907       119.2106 
 810   0.0000       4.387121       119.3796 
 811   0.0000       4.391360       119.4950 
 812   0.0000       4.397994       119.6755 
 813   0.0000       4.408821       119.9701 
 814   0.0000       4.428741       120.5122 
 815   0.0000       4.441629       120.8629 
 816   0.0000       4.446887       121.0059 
 817   0.0000       4.455687       121.2454 
 818   0.0000       4.460645       121.3803 
 819   0.0000       4.465987       121.5257 
 820   0.0000       4.477098       121.8280 
 821   0.0000       4.488914       122.1496 
 822   0.0000       4.496298       122.3505 
 823   0.0000       4.505016       122.5877 
 824   0.0000       4.512944       122.8035 
 825   0.0000       4.530745       123.2878 
 826   0.0000       4.539967       123.5388 
 827   0.0000       4.545722       123.6954 
 828   0.0000       4.569738       124.3489 
 829   0.0000       4.570154       124.3602 
 830   0.0000       4.574807       124.4868 
 831   0.0000       4.584510       124.7509 
 832   0.0000       4.613237       125.5326 
 833   0.0000       4.619516       125.7034 
 834   0.0000       4.623698       125.8172 
 835   0.0000       4.643826       126.3649 
 836   0.0000       4.649636       126.5230 
 837   0.0000       4.667197       127.0009 
 838   0.0000       4.671294       127.1124 
 839   0.0000       4.679387       127.3326 
 840   0.0000       4.696515       127.7987 
 841   0.0000       4.708254       128.1181 
 842   0.0000       4.719796       128.4322 
 843   0.0000       4.728734       128.6754 
 844   0.0000       4.741538       129.0238 
 845   0.0000       4.762043       129.5818 
 846   0.0000       4.764856       129.6583 
 847   0.0000       4.779529       130.0576 
 848   0.0000       4.786454       130.2460 
 849   0.0000       4.795435       130.4904 
 850   0.0000       4.800668       130.6328 
 851   0.0000       4.810695       130.9057 
 852   0.0000       4.835105       131.5699 
 853   0.0000       4.858121       132.1962 
 854   0.0000       4.867618       132.4546 
 855   0.0000       4.873773       132.6221 
 856   0.0000       4.884252       132.9072 
 857   0.0000       4.888432       133.0210 
 858   0.0000       4.900366       133.3458 
 859   0.0000       4.929377       134.1352 
 860   0.0000       4.931093       134.1819 
 861   0.0000       4.936451       134.3277 
 862   0.0000       4.952826       134.7733 
 863   0.0000       4.957393       134.8975 
 864   0.0000       4.970287       135.2484 
 865   0.0000       4.975773       135.3977 
 866   0.0000       4.979416       135.4968 
 867   0.0000       4.985918       135.6737 
 868   0.0000       4.990836       135.8075 
 869   0.0000       5.008822       136.2970 
 870   0.0000       5.023422       136.6943 
 871   0.0000       5.027105       136.7945 
 872   0.0000       5.036113       137.0396 
 873   0.0000       5.059637       137.6797 
 874   0.0000       5.070282       137.9694 
 875   0.0000       5.079798       138.2283 
 876   0.0000       5.083954       138.3414 
 877   0.0000       5.115765       139.2070 
 878   0.0000       5.127103       139.5156 
 879   0.0000       5.137823       139.8073 
 880   0.0000       5.147451       140.0693 
 881   0.0000       5.163121       140.4957 
 882   0.0000       5.184771       141.0848 
 883   0.0000       5.195254       141.3701 
 884   0.0000       5.203889       141.6050 
 885   0.0000       5.212418       141.8371 
 886   0.0000       5.230947       142.3413 
 887   0.0000       5.248426       142.8169 
 888   0.0000       5.250914       142.8846 
 889   0.0000       5.258991       143.1044 
 890   0.0000       5.264634       143.2580 
 891   0.0000       5.268189       143.3547 
 892   0.0000       5.285642       143.8296 
 893   0.0000       5.322918       144.8440 
 894   0.0000       5.327570       144.9706 
 895   0.0000       5.333147       145.1223 
 896   0.0000       5.355608       145.7335 
 897   0.0000       5.370493       146.1385 
 898   0.0000       5.373710       146.2261 
 899   0.0000       5.391364       146.7065 
 900   0.0000       5.396251       146.8394 
 901   0.0000       5.418538       147.4459 
 902   0.0000       5.426690       147.6677 
 903   0.0000       5.437826       147.9708 
 904   0.0000       5.439115       148.0058 
 905   0.0000       5.464885       148.7071 
 906   0.0000       5.468101       148.7946 
 907   0.0000       5.484326       149.2361 
 908   0.0000       5.489898       149.3877 
 909   0.0000       5.503536       149.7588 
 910   0.0000       5.516489       150.1113 
 911   0.0000       5.534065       150.5896 
 912   0.0000       5.542132       150.8091 
 913   0.0000       5.558999       151.2681 
 914   0.0000       5.569703       151.5593 
 915   0.0000       5.580533       151.8540 
 916   0.0000       5.591079       152.1410 
 917   0.0000       5.602847       152.4612 
 918   0.0000       5.611318       152.6917 
 919   0.0000       5.631698       153.2463 
 920   0.0000       5.636605       153.3798 
 921   0.0000       5.649405       153.7281 
 922   0.0000       5.656454       153.9199 
 923   0.0000       5.670367       154.2985 
 924   0.0000       5.681069       154.5897 
 925   0.0000       5.694354       154.9513 
 926   0.0000       5.702344       155.1687 
 927   0.0000       5.717569       155.5830 
 928   0.0000       5.720654       155.6669 
 929   0.0000       5.742681       156.2663 
 930   0.0000       5.748642       156.4285 
 931   0.0000       5.751901       156.5172 
 932   0.0000       5.773637       157.1087 
 933   0.0000       5.789375       157.5369 
 934   0.0000       5.800072       157.8280 
 935   0.0000       5.823167       158.4564 
 936   0.0000       5.827745       158.5810 
 937   0.0000       5.833531       158.7384 
 938   0.0000       5.838307       158.8684 
 939   0.0000       5.856809       159.3719 
 940   0.0000       5.890961       160.3012 
 941   0.0000       5.901389       160.5850 
 942   0.0000       5.914362       160.9380 
 943   0.0000       5.930142       161.3674 
 944   0.0000       5.946244       161.8055 
 945   0.0000       5.990708       163.0154 
 946   0.0000       6.006988       163.4585 
 947   0.0000       6.055965       164.7912 
 948   0.0000       6.093537       165.8136 
 949   0.0000       6.129881       166.8025 
 950   0.0000       6.143524       167.1738 
 951   0.0000       6.154137       167.4626 
 952   0.0000       6.167231       167.8189 
 953   0.0000       6.180231       168.1726 
 954   0.0000       6.201468       168.7505 
 955   0.0000       6.221703       169.3011 
 956   0.0000       6.234293       169.6437 
 957   0.0000       6.247429       170.0012 
 958   0.0000       6.248975       170.0433 
 959   0.0000       6.261856       170.3938 
 960   0.0000       6.313286       171.7932 
 961   0.0000       6.328563       172.2089 
 962   0.0000       6.350006       172.7925 
 963   0.0000       6.370924       173.3617 
 964   0.0000       6.409806       174.4197 
 965   0.0000       6.418776       174.6638 
 966   0.0000       6.431520       175.0105 
 967   0.0000       6.460143       175.7894 
 968   0.0000       6.462576       175.8556 
 969   0.0000       6.522014       177.4730 
 970   0.0000       6.664340       181.3459 
 971   0.0000       6.679339       181.7541 
 972   0.0000       6.847366       186.3263 
 973   0.0000       6.855136       186.5377 
 974   0.0000       6.894062       187.5970 
 975   0.0000       6.918727       188.2681 
 976   0.0000       6.924325       188.4205 
 977   0.0000       6.943712       188.9480 
 978   0.0000       6.960743       189.4115 
 979   0.0000       7.005797       190.6374 
 980   0.0000       7.017124       190.9457 
 981   0.0000       7.070545       192.3993 
 982   0.0000       7.103603       193.2989 
 983   0.0000       7.115317       193.6176 
 984   0.0000       7.150704       194.5805 
 985   0.0000       7.201725       195.9689 
 986   0.0000       7.335585       199.6114 
 987   0.0000       7.354710       200.1318 
 988   0.0000       7.516237       204.5272 
 989   0.0000       7.564316       205.8355 
 990   0.0000       7.585998       206.4255 
 991   0.0000       7.683807       209.0870 
 992   0.0000       7.754437       211.0090 
 993   0.0000       7.800624       212.2658 
 994   0.0000       7.814385       212.6402 
 995   0.0000       7.922288       215.5764 
 996   0.0000       8.058696       219.2883 
 997   0.0000       8.153464       221.8670 
 998   0.0000       8.413084       228.9317 
 999   0.0000       9.442199       256.9353 
 1000   0.0000       9.448267       257.1004 
 1001   0.0000       9.485108       258.1029 
 1002   0.0000       9.499173       258.4856 
 1003   0.0000       9.513017       258.8624 
 1004   0.0000       9.544635       259.7227 
 1005   0.0000       9.803770       266.7742 
 1006   0.0000      10.110874       275.1309 
 1007   0.0000      10.139628       275.9133 
 1008   0.0000      10.156482       276.3719 
 1009   0.0000      10.219116       278.0763 
 1010   0.0000      10.237178       278.5678 
 1011   0.0000      10.255526       279.0670 
 1012   0.0000      10.429419       283.7989 
 1013   0.0000      10.449222       284.3378 
 1014   0.0000      10.603174       288.5270 
 1015   0.0000      16.084016       437.6683 
 1016   0.0000      17.808571       484.5959 
 1017   0.0000      18.203719       495.3484 
 1018   0.0000      18.596410       506.0340 
 1019   0.0000      18.874942       513.6133 
 1020   0.0000      19.050182       518.3818 
 1021   0.0000      19.218758       522.9690 
 1022   0.0000      19.680289       535.5279 
 1023   0.0000      20.606592       560.7339 
 1024   0.0000      21.680672       589.9611 

                 SPIN DOWN ORBITALS
  NO   OCC          E(Eh)            E(eV) 
   0   1.0000    -261.539086     -7116.8403 
   1   1.0000    -104.773832     -2851.0409 
   2   1.0000    -104.772092     -2850.9936 
   3   1.0000    -104.766166     -2850.8323 
   4   1.0000     -32.048447      -872.0826 
   5   1.0000     -27.526646      -749.0381 
   6   1.0000     -27.526399      -749.0314 
   7   1.0000     -27.525733      -749.0133 
   8   1.0000     -20.529207      -558.6281 
   9   1.0000     -11.417378      -310.6826 
  10   1.0000     -11.330094      -308.3075 
  11   1.0000     -11.296771      -307.4008 
  12   1.0000     -11.289254      -307.1962 
  13   1.0000     -11.281819      -306.9939 
  14   1.0000     -11.262665      -306.4727 
  15   1.0000     -11.236430      -305.7588 
  16   1.0000     -11.228543      -305.5442 
  17   1.0000     -10.500334      -285.7286 
  18   1.0000     -10.498511      -285.6790 
  19   1.0000     -10.492635      -285.5191 
  20   1.0000      -7.966133      -216.7695 
  21   1.0000      -7.965805      -216.7606 
  22   1.0000      -7.965718      -216.7582 
  23   1.0000      -7.964431      -216.7232 
  24   1.0000      -7.963960      -216.7104 
  25   1.0000      -7.963857      -216.7076 
  26   1.0000      -7.958666      -216.5663 
  27   1.0000      -7.957836      -216.5437 
  28   1.0000      -7.957770      -216.5419 
  29   1.0000      -4.123892      -112.2168 
  30   1.0000      -2.645932       -71.9995 
  31   1.0000      -2.645722       -71.9937 
  32   1.0000      -2.644932       -71.9723 
  33   1.0000      -1.326057       -36.0838 
  34   1.0000      -1.189281       -32.3620 
  35   1.0000      -1.094855       -29.7925 
  36   1.0000      -1.037322       -28.2270 
  37   1.0000      -1.030701       -28.0468 
  38   1.0000      -1.022630       -27.8272 
  39   1.0000      -1.018110       -27.7042 
  40   1.0000      -1.014850       -27.6155 
  41   1.0000      -0.961765       -26.1710 
  42   1.0000      -0.931168       -25.3384 
  43   1.0000      -0.810612       -22.0579 
  44   1.0000      -0.764736       -20.8095 
  45   1.0000      -0.710312       -19.3286 
  46   1.0000      -0.690958       -18.8019 
  47   1.0000      -0.678148       -18.4533 
  48   1.0000      -0.637439       -17.3456 
  49   1.0000      -0.633949       -17.2506 
  50   1.0000      -0.622115       -16.9286 
  51   1.0000      -0.605468       -16.4756 
  52   1.0000      -0.599761       -16.3203 
  53   1.0000      -0.593150       -16.1404 
  54   1.0000      -0.583020       -15.8648 
  55   1.0000      -0.576736       -15.6938 
  56   1.0000      -0.554693       -15.0940 
  57   1.0000      -0.542641       -14.7660 
  58   1.0000      -0.536605       -14.6018 
  59   1.0000      -0.519785       -14.1441 
  60   1.0000      -0.515536       -14.0284 
  61   1.0000      -0.497961       -13.5502 
  62   1.0000      -0.467423       -12.7192 
  63   1.0000      -0.463918       -12.6239 
  64   1.0000      -0.449915       -12.2428 
  65   1.0000      -0.446396       -12.1470 
  66   1.0000      -0.434815       -11.8319 
  67   1.0000      -0.430040       -11.7020 
  68   1.0000      -0.429438       -11.6856 
  69   1.0000      -0.409214       -11.1353 
  70   1.0000      -0.401344       -10.9211 
  71   1.0000      -0.398260       -10.8372 
  72   0.0000       0.003234         0.0880 
  73   0.0000       0.010597         0.2883 
  74   0.0000       0.019721         0.5366 
  75   0.0000       0.020688         0.5629 
  76   0.0000       0.030348         0.8258 
  77   0.0000       0.037271         1.0142 
  78   0.0000       0.039526         1.0755 
  79   0.0000       0.043506         1.1838 
  80   0.0000       0.044999         1.2245 
  81   0.0000       0.047384         1.2894 
  82   0.0000       0.056299         1.5320 
  83   0.0000       0.059461         1.6180 
  84   0.0000       0.061208         1.6656 
  85   0.0000       0.065152         1.7729 
  86   0.0000       0.066751         1.8164 
  87   0.0000       0.070282         1.9125 
  88   0.0000       0.072962         1.9854 
  89   0.0000       0.077289         2.1031 
  90   0.0000       0.088612         2.4113 
  91   0.0000       0.089637         2.4392 
  92   0.0000       0.092947         2.5292 
  93   0.0000       0.093905         2.5553 
  94   0.0000       0.098481         2.6798 
  95   0.0000       0.100514         2.7351 
  96   0.0000       0.109048         2.9674 
  97   0.0000       0.114442         3.1141 
  98   0.0000       0.118411         3.2221 
  99   0.0000       0.121488         3.3059 
 100   0.0000       0.124801         3.3960 
 101   0.0000       0.126669         3.4468 
 102   0.0000       0.128057         3.4846 
 103   0.0000       0.130081         3.5397 
 104   0.0000       0.132214         3.5977 
 105   0.0000       0.133700         3.6382 
 106   0.0000       0.134741         3.6665 
 107   0.0000       0.137332         3.7370 
 108   0.0000       0.139518         3.7965 
 109   0.0000       0.139948         3.8082 
 110   0.0000       0.142125         3.8674 
 111   0.0000       0.147630         4.0172 
 112   0.0000       0.150363         4.0916 
 113   0.0000       0.151883         4.1330 
 114   0.0000       0.153884         4.1874 
 115   0.0000       0.154564         4.2059 
 116   0.0000       0.157771         4.2932 
 117   0.0000       0.162564         4.4236 
 118   0.0000       0.164472         4.4755 
 119   0.0000       0.168773         4.5926 
 120   0.0000       0.170928         4.6512 
 121   0.0000       0.175468         4.7747 
 122   0.0000       0.175972         4.7884 
 123   0.0000       0.181222         4.9313 
 124   0.0000       0.185566         5.0495 
 125   0.0000       0.189052         5.1444 
 126   0.0000       0.191032         5.1982 
 127   0.0000       0.195563         5.3215 
 128   0.0000       0.200784         5.4636 
 129   0.0000       0.203130         5.5274 
 130   0.0000       0.206691         5.6243 
 131   0.0000       0.209047         5.6885 
 132   0.0000       0.212992         5.7958 
 133   0.0000       0.214414         5.8345 
 134   0.0000       0.215988         5.8773 
 135   0.0000       0.223390         6.0788 
 136   0.0000       0.229139         6.2352 
 137   0.0000       0.232365         6.3230 
 138   0.0000       0.235966         6.4210 
 139   0.0000       0.237891         6.4733 
 140   0.0000       0.240702         6.5498 
 141   0.0000       0.243292         6.6203 
 142   0.0000       0.245652         6.6845 
 143   0.0000       0.248814         6.7706 
 144   0.0000       0.251770         6.8510 
 145   0.0000       0.254786         6.9331 
 146   0.0000       0.261612         7.1188 
 147   0.0000       0.264248         7.1905 
 148   0.0000       0.266477         7.2512 
 149   0.0000       0.268171         7.2973 
 150   0.0000       0.272676         7.4199 
 151   0.0000       0.275726         7.5029 
 152   0.0000       0.280120         7.6224 
 153   0.0000       0.282650         7.6913 
 154   0.0000       0.294444         8.0122 
 155   0.0000       0.299204         8.1418 
 156   0.0000       0.303901         8.2696 
 157   0.0000       0.307142         8.3578 
 158   0.0000       0.310535         8.4501 
 159   0.0000       0.311560         8.4780 
 160   0.0000       0.314177         8.5492 
 161   0.0000       0.318845         8.6762 
 162   0.0000       0.319177         8.6852 
 163   0.0000       0.325183         8.8487 
 164   0.0000       0.329570         8.9680 
 165   0.0000       0.334319         9.0973 
 166   0.0000       0.338411         9.2086 
 167   0.0000       0.342204         9.3118 
 168   0.0000       0.345509         9.4018 
 169   0.0000       0.351937         9.5767 
 170   0.0000       0.353862         9.6291 
 171   0.0000       0.356731         9.7071 
 172   0.0000       0.360801         9.8179 
 173   0.0000       0.365443         9.9442 
 174   0.0000       0.367148         9.9906 
 175   0.0000       0.368347        10.0232 
 176   0.0000       0.370578        10.0839 
 177   0.0000       0.377121        10.2620 
 178   0.0000       0.380095        10.3429 
 179   0.0000       0.381338        10.3767 
 180   0.0000       0.388006        10.5582 
 181   0.0000       0.390569        10.6279 
 182   0.0000       0.390949        10.6383 
 183   0.0000       0.394778        10.7425 
 184   0.0000       0.401706        10.9310 
 185   0.0000       0.402759        10.9596 
 186   0.0000       0.407646        11.0926 
 187   0.0000       0.408098        11.1049 
 188   0.0000       0.412092        11.2136 
 189   0.0000       0.416066        11.3217 
 190   0.0000       0.418079        11.3765 
 191   0.0000       0.422758        11.5038 
 192   0.0000       0.424744        11.5579 
 193   0.0000       0.428606        11.6630 
 194   0.0000       0.432431        11.7670 
 195   0.0000       0.435662        11.8550 
 196   0.0000       0.443494        12.0681 
 197   0.0000       0.448215        12.1965 
 198   0.0000       0.451017        12.2728 
 199   0.0000       0.453430        12.3385 
 200   0.0000       0.457064        12.4373 
 201   0.0000       0.459906        12.5147 
 202   0.0000       0.463292        12.6068 
 203   0.0000       0.465078        12.6554 
 204   0.0000       0.470572        12.8049 
 205   0.0000       0.475100        12.9281 
 206   0.0000       0.476106        12.9555 
 207   0.0000       0.479011        13.0346 
 208   0.0000       0.482481        13.1290 
 209   0.0000       0.484309        13.1787 
 210   0.0000       0.487768        13.2729 
 211   0.0000       0.489522        13.3206 
 212   0.0000       0.496335        13.5060 
 213   0.0000       0.498310        13.5597 
 214   0.0000       0.499696        13.5974 
 215   0.0000       0.503272        13.6947 
 216   0.0000       0.506776        13.7901 
 217   0.0000       0.507187        13.8013 
 218   0.0000       0.510710        13.8971 
 219   0.0000       0.513092        13.9620 
 220   0.0000       0.521272        14.1845 
 221   0.0000       0.524795        14.2804 
 222   0.0000       0.526855        14.3365 
 223   0.0000       0.530903        14.4466 
 224   0.0000       0.534421        14.5423 
 225   0.0000       0.536945        14.6110 
 226   0.0000       0.540652        14.7119 
 227   0.0000       0.544979        14.8296 
 228   0.0000       0.548823        14.9342 
 229   0.0000       0.552694        15.0396 
 230   0.0000       0.556114        15.1326 
 231   0.0000       0.561024        15.2662 
 232   0.0000       0.562350        15.3023 
 233   0.0000       0.565698        15.3934 
 234   0.0000       0.568696        15.4750 
 235   0.0000       0.572050        15.5663 
 236   0.0000       0.577583        15.7168 
 237   0.0000       0.580601        15.7989 
 238   0.0000       0.584309        15.8998 
 239   0.0000       0.588052        16.0017 
 240   0.0000       0.591286        16.0897 
 241   0.0000       0.598478        16.2854 
 242   0.0000       0.600380        16.3372 
 243   0.0000       0.604771        16.4566 
 244   0.0000       0.606880        16.5140 
 245   0.0000       0.610351        16.6085 
 246   0.0000       0.613836        16.7033 
 247   0.0000       0.616725        16.7819 
 248   0.0000       0.619912        16.8687 
 249   0.0000       0.622062        16.9272 
 250   0.0000       0.632259        17.2046 
 251   0.0000       0.632864        17.2211 
 252   0.0000       0.635429        17.2909 
 253   0.0000       0.638177        17.3657 
 254   0.0000       0.645313        17.5599 
 255   0.0000       0.648477        17.6459 
 256   0.0000       0.651193        17.7199 
 257   0.0000       0.657704        17.8970 
 258   0.0000       0.657898        17.9023 
 259   0.0000       0.662844        18.0369 
 260   0.0000       0.667818        18.1723 
 261   0.0000       0.671380        18.2692 
 262   0.0000       0.674144        18.3444 
 263   0.0000       0.681877        18.5548 
 264   0.0000       0.685187        18.6449 
 265   0.0000       0.693714        18.8769 
 266   0.0000       0.695253        18.9188 
 267   0.0000       0.701594        19.0913 
 268   0.0000       0.706523        19.2255 
 269   0.0000       0.710506        19.3339 
 270   0.0000       0.711929        19.3726 
 271   0.0000       0.716538        19.4980 
 272   0.0000       0.720576        19.6079 
 273   0.0000       0.724734        19.7210 
 274   0.0000       0.729985        19.8639 
 275   0.0000       0.733631        19.9631 
 276   0.0000       0.739132        20.1128 
 277   0.0000       0.741486        20.1769 
 278   0.0000       0.751974        20.4623 
 279   0.0000       0.758667        20.6444 
 280   0.0000       0.762092        20.7376 
 281   0.0000       0.766056        20.8455 
 282   0.0000       0.771280        20.9876 
 283   0.0000       0.773764        21.0552 
 284   0.0000       0.777455        21.1556 
[...]
  | sigma^2 in % of trace(Dip) retained ...   2.10e+01
  | sigma^2 in % of trace(Dpq) retained ...   1.33e-01
  | Av. % of trace(Di) retained         ...  99.998505068099
  | Av. % of trace(Dp) retained         ...  99.999995519306
  | sigma^2 in % of trace(Di) retained  ...   7.82e-07
  | sigma^2 in % of trace(Dp) retained  ...   1.71e-11
 Distributions of % trace(Dij) recovered:
  |       >= 99.9  ...   105 ( 20.4 % of all IJ-pairs)
  |   [80.0, 90.0) ...    33 (  6.4 % of all IJ-pairs)
  |   [90.0, 99.0) ...   281 ( 54.6 % of all IJ-pairs)
  |   [99.0, 99.9) ...    96 ( 18.6 % of all IJ-pairs)
 Distributions of % trace(Dip) recovered:
  |   [70.0, 80.0) ...     2 (  1.7 % of all IP-pairs)
  |   [80.0, 90.0) ...    11 (  9.2 % of all IP-pairs)
  |   [90.0, 99.0) ...    62 ( 51.7 % of all IP-pairs)
  |   [99.0, 99.9) ...    45 ( 37.5 % of all IP-pairs)
 Distributions of % trace(Dpq) recovered:
  |       >= 99.9  ...     5 ( 33.3 % of all PQ-pairs)
  |   [99.0, 99.9) ...    10 ( 66.7 % of all PQ-pairs)
 Distributions of % trace(Di) recovered :
  |       >= 99.9  ...    43 (100.0 % of all I-pairs )
 Distributions of % trace(Dp) recovered :
  |       >= 99.9  ...     5 (100.0 % of all P-pairs )

                       ===========================
                       1132 OF 1755 PAIRS ARE KEPT
                       ===========================

 Initial PAO correlation energy (all pairs)    ...  -2.6877789447 Eh
 Energy constituents in PAO basis (Eh):
  | Vijab(+0) ...  -2.2560747361
  | Viab (-1) ...  -0.1763251424
  | Vab  (-2) ...  -0.0573564257
  | Va   (-1) ...  -0.0000435831
  | Vija (+1) ...  -0.0739283707
  | Vij  (+2) ...  -0.0155419043
  | Via  (+0) ...  -0.1083440273
  | Vi   (+1) ...  -0.0001647551
 Initial PNO correlation energy                ...  -2.6532190714 Eh
 Energy constituents in PNO basis (Eh):
  | Vijab(+0) ...  -2.2376050494 (err=  0.0184696866)
  | Viab (-1) ...  -0.1618960373 (err=  0.0144291051)
  | Vab  (-2) ...  -0.0568757139 (err=  0.0004807118)
  | Va   (-1) ...  -0.0000242718 (err=  0.0000193113)
  | Vija (+1) ...  -0.0729444485 (err=  0.0009839222)
  | Vij  (+2) ...  -0.0154896753 (err=  0.0000522290)
  | Via  (+0) ...  -0.1082196174 (err=  0.0001244098)
  | Vi   (+1) ...  -0.0001642577 (err=  0.0000004974)
 Sum of total truncation errors ...   0.0345598733 Eh
  | Pair screening ...   0.0113953344 Eh
  | PNO truncation ...   0.0231645389 Eh

 UMP2 correlation energy (PAO) ...  -2.6828111293
  | alpha-alpha ...  -0.3849521557 (NP_aa=  953)
  | alpha-beta  ...  -1.9921932990 (NP_ab= 1730)
  | beta -beta  ...  -0.3056656746 (NP_bb=  744)
 UMP2 correlation energy (PNO) ...  -2.6479002197
  | alpha-alpha ...  -0.3728096416 (err=  0.0121425141, NP_aa=  602)
  | alpha-beta  ...  -1.9734458469 (err=  0.0187474521, NP_ab= 1107)
  | beta -beta  ...  -0.3016447312 (err=  0.0040209434, NP_bb=  472)
 Sum of total UMP2 truncation errors ...   0.0349109096 Eh
  | Pair screening ...   0.0114020595 Eh
  | PNO truncation ...   0.0235088501 Eh
 Timing for NEV-PNO construction (sec.)
  | Intermediate construction  ..           57.763
  | Amplitude construction     ..           75.392
  | Total time                 ..          133.155
 Making pair pair interaction lists ...      ok
 Total size for 2-ext PNO integrals ...     11.0 MB
Checking the number of SOMO/SOMO doubles PNOs ... 
 #Truncate: (72, 72)[179] -> [84] .. 
 #Truncate: (73, 73)[176] -> [84] .. 
 #Truncate: (74, 74)[177] -> [84] .. 
 #Truncate: (75, 75)[176] -> [84] .. 
 #Truncate: (76, 76)[175] -> [84] .. 

--------------------------------
LOCAL RI TRANSFORMATION (VABPAO)
--------------------------------

Number of PAOs:    1030
Basis functions:   1025 (343 shells)
Aux. functions:    2424 (644 shells)

Processing maps (0.0 sec)
Average map sizes:
   Aux shells -> PAOs           1030.0
   PAOs       -> AO shells       343.0

Calculating integrals (196.7 sec, 37370.165 MB)
Finished
-----------------------------
LOCAL RI TRANSFORMATION (IJV)
-----------------------------

Orbital window:      29 to 76
Basis functions:   1025 (343 shells)
Aux. functions:    2424 (644 shells)

Processing maps (0.0 sec)
Average map sizes:
   Aux shells -> MOs(i)           46.6
   Aux shells -> MOs(j)           48.0
   MOs        -> AO shells       341.6

Calculating integrals (23.8 sec, 41.482 MB)
Sorting integrals (0.3 sec, 41.455 MB)
Total time for the integral transformation: 24.2 sec


-------------------------------------
Pair Pair Term precalculation with     
RI-(ij|mn) and (im|jn) transformation  
ON THE FLY                             
-------------------------------------

   IBatch   1 (of   2)              ... done ( 1369.677 sec)
   IBatch   2 (of   2)              ... done ( 1327.850 sec)
Total EXT                           ...        2697.527 sec

---------------------
RI-PNO TRANSFORMATION
---------------------

Total Number of PNOs                   ... 34870
Total Number of IJ-PNOs                ... 30674
Total Number of IP-PNOs                ...  3248
Total Number of PQ-PNOs                ...   948
Total Number of IJ-pairs               ...   987
Total Number of PI-pairs               ...   120
Total Number of PQ-pairs               ...    25
Average number of PNOs per pair        ...    30
Maximal number of PNOs per pair        ...    84
>> Statistics for ij-pairs..
   #pairs with  1 -  5 PNOs   :    0
   #pairs with  6 - 10 PNOs   :    0
   #pairs with 11 - 15 PNOs   :   60
   #pairs with 16 - 20 PNOs   :  232
   #pairs with 21 - 25 PNOs   :  184
   #pairs with 26 - 30 PNOs   :  148
   #pairs with 31 - 35 PNOs   :   72
   #pairs with 36 - 40 PNOs   :   60
   #pairs with 41 - 45 PNOs   :   52
   #pairs with 46 - 50 PNOs   :   11
   #pairs with 51 - 55 PNOs   :   37
   #pairs with 56 - 60 PNOs   :   57
   #pairs with 61 - 65 PNOs   :   66
   #pairs with 66 - 70 PNOs   :    8
>> Statistics for ip-pairs..
   #pairs with  1 -  5 PNOs   :    0
   #pairs with  6 - 10 PNOs   :    4
   #pairs with 11 - 15 PNOs   :   16
   #pairs with 16 - 20 PNOs   :    6
   #pairs with 21 - 25 PNOs   :   19
   #pairs with 26 - 30 PNOs   :   19
   #pairs with 31 - 35 PNOs   :   40
   #pairs with 36 - 40 PNOs   :   16
   #pairs with 41 - 45 PNOs   :    0
   #pairs with 46 - 50 PNOs   :    0
>> Statistics for pq-pairs..
   #pairs with  1 -  5 PNOs   :    0
   #pairs with  6 - 10 PNOs   :    0
   #pairs with 11 - 15 PNOs   :    0
   #pairs with 16 - 20 PNOs   :    0
   #pairs with 21 - 25 PNOs   :    6
   #pairs with 26 - 30 PNOs   :   14
   #pairs with 31 - 35 PNOs   :    0
   #pairs with 36 - 40 PNOs   :    0
   #pairs with 41 - 45 PNOs   :    0
   #pairs with 46 - 50 PNOs   :    0
   #pairs with 81 - 85 PNOs   :    5

Generation of (ij|ab)[P] integrals            ... on
Generation of (ia|bc)[P],(ja|bc)[P] integrals ... on
Storage of 3 and 4 external integrals         ... on
Generation of ALL (ka|bc)[P] integrals        ... on
Keep RI integrals in memory                   ... off

Ibatch:  1 (of  1)
Starting 2-4 index PNO integral generation ... done

Timings:
Total PNO integral transformation time     ...       2295.832 sec
Size of the 3-external file                ...       281 MB
Size of the 4-external file                ...      1877 MB
Size of the IKJL file                      ...        19 MB
Size of the all 3-external file            ...      6750 MB
Size of the 1-external file                ...        22 MB

Size of the PAO/PNO coefficient matrices   ...     228.1 MB

Making pair/pair overlap matrices          ... done (  408.653 sec)
Size of the pair overlap file              ...    2484.0 MB
Total # unrestricted pairs ...       2181
  # of alpha-alpha pairs   ...        602
  # of alpha-beta pairs    ...       1107
  # of beta-beta pairs     ...        472
Constructing the guess amplitudes          ... done (    0.644 sec)

-------------------------
FINAL STARTUP INFORMATION
-------------------------

E(0)                                       ...  -3028.432126278
E(SL-UMP2 in NEV-PNO space)                ...     -2.683663021
Initial E(tot)                             ...  -3031.115789299
<T|T>                                      ...      0.531351143
Number of unrestricted pairs included      ... 2181
Total number of pairs                      ... 4095
----------------------------------------------------------
                     OPEN-SHELL COUPLED CLUSTER ITERATIONS
----------------------------------------------------------

Number of PNO amplitudes to be optimized        ...          2103596
Number of canonical amplitudes for strong pairs ...       1969893447
Untruncated number of canonical amplitudes      ...       3698645738

Iter       E(tot)           E(Corr)          Delta-E          Residual     Time
  0  -3031.123052572     -2.655163493      0.028499528      0.021715143 2191.79
                           *** Turning on DIIS ***
  1  -3031.239457736     -2.771568657     -0.116405165      0.010605701 2205.57
  2  -3031.303545541     -2.835656462     -0.064087805      0.009185201 2219.99
  3  -3031.324452081     -2.856563002     -0.020906540      0.004378389 2229.23
  4  -3031.331468182     -2.863579102     -0.007016101      0.002819019 2229.09
  5  -3031.334985608     -2.867096529     -0.003517426      0.002784182 2200.82
  6  -3031.336308420     -2.868419341     -0.001322812      0.001116980 2187.14
  7  -3031.337120708     -2.869231629     -0.000812288      0.000767626 2315.02
  8  -3031.337288148     -2.869399069     -0.000167440      0.000242337 2209.83
  9  -3031.337328724     -2.869439645     -0.000040576      0.000206344 2170.81
 10  -3031.337325231     -2.869436152      0.000003493      0.000101994 2200.91
 11  -3031.337336758     -2.869447679     -0.000011527      0.000081248 2197.46
 12  -3031.337342712     -2.869453633     -0.000005954      0.000035816 2222.95
 13  -3031.337346122     -2.869457043     -0.000003410      0.000021773 2044.52
 14  -3031.337346626     -2.869457547     -0.000000504      0.000010055 1861.80
 15  -3031.337345365     -2.869456286      0.000001262      0.000004969 1849.06
               --- The CCSD iterations have converged ---

E(0)                                       ...  -3028.432126278
E(CORR)(strong-pairs)                      ...     -2.869456286
E(CORR)(weak-pairs)                        ...     -0.035762801
E(CORR)(corrected)                         ...     -2.905219087
E(TOT)                                     ...  -3031.337345365
Singles norm <S|S>**1/2                    ...      0.186391669 ( 0.061969272, 0.124422397)  
T1 diagnostic                              ...      0.019539156                              
<S**2>(linearized)                         ...      8.7507140 (ideal value:      8.7500000)

----------------------
LARGEST PNO AMPLITUDES
----------------------
  51b-> 76b  -1b-> -1b       0.055003
  30b-> 76b  -1b-> -1b       0.052664
  45b-> 72b  -1b-> -1b       0.050242
  44a-> 77a  44b-> 77b       0.048926
  29b-> 76b  -1b-> -1b       0.048092
  49b-> 74b  -1b-> -1b       0.047746
  52b-> 72b  -1b-> -1b       0.047090
  47a-> 79a  47b-> 79b       0.045798
  46a-> 80a  46b-> 80b       0.043882
  63a-> 77a  63b-> 77b       0.043822
  67a-> 77a  67b-> 77b       0.043603
  56a-> 77a  56b-> 77b       0.043242
  59a-> 77a  59b-> 77b       0.042900
  66a-> 77a  66b-> 77b       0.042773
  55a-> 78a  55b-> 78b       0.042723
  62a-> 77a  62b-> 77b       0.042507

Total # unrestricted pairs ...       1246
  # of alpha-alpha pairs   ...        351
  # of alpha-beta pairs    ...        623
  # of beta-beta pairs     ...        272

-------------------------------------------
DLPNO BASED TRIPLES CORRECTION
-------------------------------------------

Singles multiplier          ...  1.000000
Fragment selection                          .... not used
TCutTNO                     ... 1.000e-09
TCutMP2Pairs                ... 1.000e-05
TCutDOStrong                ... 2.000e-02
TCutMKNStrong               ... 1.000e-02
TCutDOWeak                  ... 4.000e-02
TCutMKNWeak                 ... 1.000e-01
NTCutTNO                    ... 1

Number of Triples that are to be computed         ...     36104

 . . . . . . . . .
10% done  
20% done  
30% done  
40% done  
50% done  
60% done  
70% done  
80% done  
90% done  
          Batch   1   done (  17622.206 sec)

Triples-Correction TCutTNO=   1.000e-09 (NWeakPairs = 0  1  2  3)  -0.115412406784   -0.001884381509    0.000000000000    0.000000000000
Triples-Correction  -0.117296788293

Triples timings:
Total time                      ... 18289.771 sec

Triples List generation         ...     0.000 sec
TNO generation                  ...   667.084 sec
Pair density generation         ...     0.085 sec
Look up tables                  ...     0.121 sec
Generating 3-index integrals    ... 11502.206 sec
Make 4-ind.int. from 3-ind.int  ...     3.866 sec
Projecting amplitudes (D + S)   ...  5867.012 sec
Sorting integrals for spin cases...    52.182 sec
Calculate W0/W1                 ...   159.768 sec
Energy contr. (sum over a,b,c)  ...    37.191 sec

Everything after 3-index        ...  6259.261 sec

Energy contribution AAA         ...    24.500 sec
Energy contribution AAB         ...   110.970 sec
Energy contribution ABB         ...   100.334 sec
Energy contribution BBB         ...    13.374 sec
prep                ...     3.251 sec
makeTTNO            ...  5808.919 sec
copyij              ...     0.130 sec
copyil              ...     4.296 sec
transposeij         ...     0.079 sec
newMatInDoubleProj  ...    55.821 sec
BlasInDoubleProj    ...  3149.033 sec
ProjSingles         ...    47.716 sec
ProjDoubles         ...  5819.295 sec
overall Doubles for projection      ... 3365385
used Doubles for projection         ... 3365385


Number of Triples   (0, 1, 2, 3 weak pairs; overall):  17224   12725       0       0  ( 29949)
Number of Atoms     (0, 1, 2, 3 weak pairs; overall):   20.2    14.6     0.0     0.0  (    29)
Number of PAOs      (0, 1, 2, 3 weak pairs; overall):  780.9   593.7     0.0     0.0  (  1025)
Number of AuxFcns   (0, 1, 2, 3 weak pairs; overall):  966.8   586.8     0.0     0.0  (  2424)
Number of TNOs (0, 1, 2, 3 weak pairs         ):   78.4    55.4     0.0     0.0
Aver. Number of NTNO, Atoms, PAOs, AuxFcns / Triples:  29949    68.6    17.8   701.3   805.3

Triples Correction (T)                     ...     -0.117296788
    alpha-alpha-alpha ... -0.003856218 (  3.3%)
    alpha-alpha-beta  ... -0.055055992 ( 46.9%)
    alpha-beta -beta  ... -0.054304955 ( 46.3%)
    beta -beta -beta  ... -0.004079624 (  3.5%)
Final correlation energy                   ...     -3.022515875
E(CCSD)                                    ...  -3031.337345365
E(CCSD(T))                                 ...  -3031.454642153

----------------------------
STATISTICS FOR PAIR-ENERGIES
----------------------------
Minimum, maximum and average ratios of UMP and CCSD pair-energies ... 0.50, 1.41, 1.02


------------------------------------------------------------------------------- 
                                     TIMINGS                                   
------------------------------------------------------------------------------- 


Total execution time                   ...    61728.391 sec

Localization of occupied MO's          ...        9.571 sec (  0.0%)
Fock Matrix Formation                  ...     1424.899 sec (  2.3%)
Differential overlap integrals         ...        1.492 sec (  0.0%)
Organizing maps                        ...        1.742 sec (  0.0%)
RI 3-index integral generations        ...      285.210 sec (  0.5%)
RI-PNO integral transformation         ...     5569.354 sec (  9.0%)
Initial Guess                          ...     1908.407 sec (  3.1%)
DIIS Solver                            ...       17.831 sec (  0.0%)
State Vector Update                    ...        0.775 sec (  0.0%)
Sigma-vector construction              ...    34535.990 sec ( 55.9%)
  <0|H|D>                              ...        0.032 sec (  0.0% of sigma)
  <D|H|D>(0-ext)                       ...     6580.774 sec ( 19.1% of sigma)
  <D|H|D>(2-ext Fock)                  ...        1.601 sec (  0.0% of sigma)
  <D|H|D>(2-ext)                       ...     4938.387 sec ( 14.3% of sigma)
  <D|H|D>(4-ext)                       ...      154.265 sec (  0.4% of sigma)
  <D|H|D>(4-ext-corr)                  ...      971.446 sec (  2.8% of sigma)
  CCSD doubles correction              ...      628.073 sec (  1.8% of sigma)
  <S|H|S>                              ...      890.463 sec (  2.6% of sigma)
  <S|H|D>(1-ext)                       ...      291.144 sec (  0.8% of sigma)
  <D|H|S>(1-ext)                       ...        0.952 sec (  0.0% of sigma)
  <S|H|D>(3-ext)                       ...       24.791 sec (  0.1% of sigma)
  CCSD singles correction              ...        0.004 sec (  0.0% of sigma)
  Fock-dressing                        ...    10868.547 sec ( 31.5% of sigma)
  Singles amplitudes                   ...      129.899 sec (  0.4% of sigma)
  (ik|jl)-dressing                     ...     7069.117 sec ( 20.5% of sigma)
  (ij|ab),(ia|jb)-dressing             ...     1881.073 sec (  5.4% of sigma)
  Pair energies                        ...        0.143 sec (  0.0% of sigma)
Total Time for computing (T)           ...    18325.532 sec ( 29.7% of ALL)


-------------------------   --------------------
FINAL SINGLE POINT ENERGY     -3031.454642152890
-------------------------   --------------------


                            ***************************************
                            *     ORCA property calculations      *
                            ***************************************

                                    ---------------------
                                    Active property flags
                                    ---------------------
   (+) Dipole Moment


------------------------------------------------------------------------------
                       ORCA ELECTRIC PROPERTIES CALCULATION
------------------------------------------------------------------------------

Dipole Moment Calculation                       ... on
Quadrupole Moment Calculation                   ... off
Polarizability Calculation                      ... off
GBWName                                         ... simple-grid-160-235-b3lyp_d3bj-631gd-gas-singlepoint-DLPNO_CCSD_T1-NormalPNO-augtz-gas.gbw
Electron density file                           ... simple-grid-160-235-b3lyp_d3bj-631gd-gas-singlepoint-DLPNO_CCSD_T1-NormalPNO-augtz-gas.scfp.tmp
The origin for moment calculation is the CENTER OF MASS  = ( 0.293415,  0.030011  0.018472)

-------------
DIPOLE MOMENT
-------------
                                X             Y             Z
Electronic contribution:     38.76312       5.13989       2.36351
Nuclear contribution   :    -43.71881      -4.47166      -2.75237
                        -----------------------------------------
Total Dipole Moment    :     -4.95569       0.66823      -0.38886
                        -----------------------------------------
Magnitude (a.u.)       :      5.01564
Magnitude (Debye)      :     12.74873



--------------------
Rotational spectrum 
--------------------
 
Rotational constants in cm-1:     0.018800     0.012244     0.011033 
Rotational constants in MHz :   563.596729   367.080532   330.757370 

 Dipole components along the rotational axes: 
x,y,z [a.u.] :    -4.961688     0.619436    -0.393136 
x,y,z [Debye]:   -12.611609     1.574480    -0.999272 

 

Timings for individual modules:

Sum of individual times         ...    78218.932 sec (=1303.649 min)
GTO integral calculation        ...       12.873 sec (=   0.215 min)   0.0 %
SCF iterations                  ...    16460.477 sec (= 274.341 min)  21.0 %
MDCI module                     ...    61745.583 sec (=1029.093 min)  78.9 %
                             ****ORCA TERMINATED NORMALLY****
TOTAL RUN TIME: 0 days 21 hours 43 minutes 41 seconds 583 msec
