
                                 *****************
                                 * O   R   C   A *
                                 *****************

           --- An Ab Initio, DFT and Semiempirical electronic structure package ---

                  #######################################################
                  #                        -***-                        #
                  #          Department of theory and spectroscopy      #
                  #               Directorship: Frank Neese             #
                  #        Max Planck Institute fuer Kohlenforschung    #
                  #                Kaiser Wilhelm Platz 1               #
                  #                 D-45470 Muelheim/Ruhr               #
                  #                      Germany                        #
                  #                                                     #
                  #                  All rights reserved                #
                  #                        -***-                        #
                  #######################################################


                         Program Version 4.1.2  - RELEASE  -


 With contributions from (in alphabetic order):
   Daniel Aravena         : Magnetic Properties
   Michael Atanasov       : Ab Initio Ligand Field Theory
   Alexander A. Auer      : GIAO ZORA
   Ute Becker             : Parallelization
   Giovanni Bistoni       : ED, Open-shell LED
   Martin Brehm           : Molecular dynamics
   Dmytro Bykov           : SCF Hessian
   Vijay G. Chilkuri      : MRCI spin determinant printing
   Dipayan Datta          : RHF DLPNO-CCSD density
   Achintya Kumar Dutta   : EOM-CC, STEOM-CC
   Dmitry Ganyushin       : Spin-Orbit,Spin-Spin,Magnetic field MRCI
   Miquel Garcia          : C-PCM Hessian
   Yang Guo               : DLPNO-NEVPT2, CIM, IAO-localization
   Andreas Hansen         : Spin unrestricted coupled pair/coupled cluster methods
   Benjamin Helmich-Paris : CASSCF linear response (MC-RPA)
   Lee Huntington         : MR-EOM, pCC
   Robert Izsak           : Overlap fitted RIJCOSX, COSX-SCS-MP3, EOM
   Christian Kollmar      : KDIIS, OOCD, Brueckner-CCSD(T), CCSD density
   Simone Kossmann        : Meta GGA functionals, TD-DFT gradient, OOMP2, MP2 Hessian
   Martin Krupicka        : AUTO-CI
   Lucas Lang             : DCDCAS
   Dagmar Lenk            : GEPOL surface, SMD
   Dimitrios Liakos       : Extrapolation schemes; parallel MDCI
   Dimitrios Manganas     : ROCIS; embedding schemes
   Dimitrios Pantazis     : SARC Basis sets
   Taras Petrenko         : DFT Hessian,TD-DFT gradient, ASA, ECA, R-Raman, ABS, FL, XAS/XES, NRVS
   Peter Pinski           : DLPNO-MP2, DLPNO-MP2 Gradient
   Christoph Reimann      : Effective Core Potentials
   Marius Retegan         : Local ZFS, SOC
   Christoph Riplinger    : Optimizer, TS searches, QM/MM, DLPNO-CCSD(T), (RO)-DLPNO pert. Triples
   Tobias Risthaus        : Range-separated hybrids, TD-DFT gradient, RPA, STAB
   Michael Roemelt        : Restricted open shell CIS
   Masaaki Saitow         : Open-shell DLPNO
   Barbara Sandhoefer     : DKH picture change effects
   Avijit Sen             : IP-ROCIS
   Kantharuban Sivalingam : CASSCF convergence, NEVPT2, FIC-MRCI
   Bernardo de Souza      : ESD, SOC TD-DFT
   Georgi Stoychev        : AutoAux, RI-MP2 NMR
   Willem Van den Heuvel  : Paramagnetic NMR
   Boris Wezisla          : Elementary symmetry handling
   Frank Wennmohs         : Technical directorship


 We gratefully acknowledge several colleagues who have allowed us to
 interface, adapt or use parts of their codes:
   Stefan Grimme, W. Hujo, H. Kruse,             : VdW corrections, initial TS optimization,
                  C. Bannwarth                     DFT functionals, gCP, sTDA/sTD-DF
   Ed Valeev                                     : LibInt (2-el integral package), F12 methods
   Garnet Chan, S. Sharma, J. Yang, R. Olivares  : DMRG
   Ulf Ekstrom                                   : XCFun DFT Library
   Mihaly Kallay                                 : mrcc  (arbitrary order and MRCC methods)
   Andreas Klamt, Michael Diedenhofen            : otool_cosmo (COSMO solvation model)
   Jiri Pittner, Ondrej Demel                    : Mk-CCSD
   Frank Weinhold                                : gennbo (NPA and NBO analysis)
   Christopher J. Cramer and Donald G. Truhlar   : smd solvation model
   Lars Goerigk                                  : TD-DFT with DH, B97 family of functionals
   V. Asgeirsson, H. Jonsson                     : NEB implementation
   FAccTs GmbH                                   : IRC, NEB, NEB-TS, Multilevel


 Your calculation uses the libint2 library for the computation of 2-el integrals
 For citations please refer to: http://libint.valeyev.net

 This ORCA versions uses:
   CBLAS   interface :  Fast vector & matrix operations
   LAPACKE interface :  Fast linear algebra routines
   SCALAPACK package :  Parallel linear algebra routines


----- Orbital basis set information -----
Your calculation utilizes the basis: aug-cc-pVTZ 
    H, B-Ne : Obtained from the ccRepo (grant-hill.group.shef.ac.uk/ccrepo) Feb. 2017
              R. A. Kendall, T. H. Dunning, Jr., R. J. Harrison, J. Chem. Phys. 96, 6796 (1992)
         He : Obtained from the ccRepo (grant-hill.group.shef.ac.uk/ccrepo) Feb. 2017
              D. E. Woon, T. H. Dunning, Jr., J. Chem. Phys. 100, 2975 (1994)
  Li-Be, Na : Obtained from the ccRepo (grant-hill.group.shef.ac.uk/ccrepo) Feb. 2017
              B. P. Prascher, D. E. Woon, K. A. Peterson, T. H. Dunning, Jr., A. K. Wilson, Theor. Chem. Acc. 128, 69 (2011)
         Mg : Obtained from the Peterson Research Group Website (tyr0.chem.wsu.edu/~kipeters) Feb. 2017
              B. P. Prascher, D. E. Woon, K. A. Peterson, T. H. Dunning, Jr., A. K. Wilson, Theor. Chem. Acc. 128, 69 (2011)
      Al-Ar : Obtained from the ccRepo (grant-hill.group.shef.ac.uk/ccrepo) Feb. 2017
              D. E. Woon, T. H. Dunning, Jr., J. Chem. Phys. 98, 1358 (1993)
      Sc-Zn : Obtained from the ccRepo (grant-hill.group.shef.ac.uk/ccrepo) Feb. 2017
              N. B. Balabanov, K. A. Peterson, J. Chem. Phys. 123, 064107 (2005)
              N. B. Balabanov, K. A. Peterson, J. Chem. Phys. 125, 074110 (2006)
      Ga-Kr : Obtained from the ccRepo (grant-hill.group.shef.ac.uk/ccrepo) Feb. 2017
              A. K. Wilson, D. E. Woon, K. A. Peterson, T. H. Dunning, Jr., J. Chem. Phys. 110, 7667 (1999)
     Ag, Au : Obtained from the Peterson Research Group Website (tyr0.chem.wsu.edu/~kipeters) Feb. 2017
              K. A. Peterson, C. Puzzarini, Theor. Chem. Acc. 114, 283 (2005)

----- AuxJ basis set information -----
Your calculation utilizes the AutoAux generation procedure.
  G. L. Stoychev, A. A. Auer, F. Neese, J. Chem. Theory Comput. 13, 554 (2017)

----- AuxC basis set information -----
Your calculation utilizes the auxiliary basis: aug-cc-pVTZ/C 
  H-He, B-F, Al-Ar, Ga-Kr : Obtained from the EMSL Basis Set Exchange (bse.pnl.gov) Feb. 2017
                            F. Weigend, A. Kohn, C. Hattig, J. Chem. Phys. 116, 3175 (2002)
                   Be, Mg : Obtained from the TURBOMOLE 7.0 basis set library
                            C. Haettig, Phys. Chem. Chem. Phys. 7, 59 (2005)
                       Ne : Obtained from the EMSL Basis Set Exchange (bse.pnl.gov) Feb. 2017
                            C. Haettig, Phys. Chem. Chem. Phys. 7, 59 (2005)
                            F. Weigend, A. Kohn, C. Hattig, J. Chem. Phys. 116, 3175 (2002)
                    Sc-Zn : Obtained from the EMSL Basis Set Exchange (bse.pnl.gov) Feb. 2017
                            J. G. Hill, J. A. Platts, J. Chem. Phys. 128, 044104 (2008)

----- AuxJK basis set information -----
Your calculation utilizes the AutoAux generation procedure.
  G. L. Stoychev, A. A. Auer, F. Neese, J. Chem. Theory Comput. 13, 554 (2017)

================================================================================
                                        WARNINGS
                       Please study these warnings very carefully!
================================================================================


WARNING: your system is open-shell and RHF/RKS was chosen
  ===> : WILL SWITCH to UHF/UKS


WARNING: MDCI localization with Augmented Hessian Foster-Boys
  ===> : Switching off randomization!

WARNING: Post HF methods need fully converged wavefunctions
  ===> : Setting SCFConvForced true
         You can overwrite this default with %scf ConvForced false 


INFO   : the flag for use of LIBINT has been found!

================================================================================
                                       INPUT FILE
================================================================================
NAME = simple-grid-240-285-b3lyp_d3bj-631gd-gas-singlepoint-DLPNO_CCSD_T1-NormalPNO-augtz-gas.inp
|  1> ! aug-cc-pVTZ aug-cc-pVTZ/C DLPNO-CCSD(T1) TightSCF NormalPNO UNO MiniPrint AutoAux
|  2> %pal nproc 10 end
|  3> %maxcore 20000
|  4> %mdci
|  5>      density none
|  6> end
|  7> 
|  8> * xyz 0 6
|  9>  O     -0.22424700     -0.31033100     -0.83095900
| 10>  C     -1.07524300     -1.23090700     -0.64705000
| 11>  C     -2.89152500     -0.25175200      0.57866600
| 12>  C     -2.68973500      0.91239700     -0.09018900
| 13>  C     -3.33136600      1.18227000     -1.41999600
| 14> Fe      1.47728800      0.15856200     -0.01362500
| 15> Cl      2.02493900      2.03977400     -0.97035000
| 16>  C     -1.78232100      1.99633500      0.39982700
| 17> Cl      2.71828300     -1.57399100     -0.51462400
| 18> Cl      1.15068800      0.34962200      2.15428700
| 19>  H     -3.61477600     -0.94494300      0.15104300
| 20>  H     -2.31408900      2.95592800      0.42229600
| 21>  H     -1.36214600      1.80604800      1.38677200
| 22>  H     -0.94958700      2.12283700     -0.30638600
| 23>  H     -3.93894800      2.09418600     -1.35500200
| 24>  H     -2.57114000      1.37446900     -2.18914000
| 25>  H     -3.98056100      0.36734700     -1.74953800
| 26>  C     -2.57732600     -0.46825100      2.04031200
| 27>  H     -3.32090900      0.05587800      2.65473100
| 28>  H     -2.63408200     -1.52576400      2.30896900
| 29>  H     -1.59183900     -0.09805300      2.33045400
| 30>  C     -0.82466100     -2.26851300      0.41097900
| 31>  H     -1.70307600     -2.88326100      0.61066900
| 32>  H     -0.03398700     -2.91313100     -0.00042000
| 33>  H     -0.43950700     -1.83388600      1.33287700
| 34>  C     -1.87156000     -1.65790400     -1.85170100
| 35>  H     -1.22751800     -2.36375600     -2.39525400
| 36>  H     -2.79314800     -2.17850300     -1.58821400
| 37>  H     -2.07426500     -0.81929800     -2.51537100
| 38> *
| 39> 
| 40> 
| 41>                          ****END OF INPUT****
================================================================================

                       ****************************
                       * Single Point Calculation *
                       ****************************

---------------------------------
CARTESIAN COORDINATES (ANGSTROEM)
---------------------------------
  O     -0.224247   -0.310331   -0.830959
  C     -1.075243   -1.230907   -0.647050
  C     -2.891525   -0.251752    0.578666
  C     -2.689735    0.912397   -0.090189
  C     -3.331366    1.182270   -1.419996
  Fe     1.477288    0.158562   -0.013625
  Cl     2.024939    2.039774   -0.970350
  C     -1.782321    1.996335    0.399827
  Cl     2.718283   -1.573991   -0.514624
  Cl     1.150688    0.349622    2.154287
  H     -3.614776   -0.944943    0.151043
  H     -2.314089    2.955928    0.422296
  H     -1.362146    1.806048    1.386772
  H     -0.949587    2.122837   -0.306386
  H     -3.938948    2.094186   -1.355002
  H     -2.571140    1.374469   -2.189140
  H     -3.980561    0.367347   -1.749538
  C     -2.577326   -0.468251    2.040312
  H     -3.320909    0.055878    2.654731
  H     -2.634082   -1.525764    2.308969
  H     -1.591839   -0.098053    2.330454
  C     -0.824661   -2.268513    0.410979
  H     -1.703076   -2.883261    0.610669
  H     -0.033987   -2.913131   -0.000420
  H     -0.439507   -1.833886    1.332877
  C     -1.871560   -1.657904   -1.851701
  H     -1.227518   -2.363756   -2.395254
  H     -2.793148   -2.178503   -1.588214
  H     -2.074265   -0.819298   -2.515371

----------------------------
CARTESIAN COORDINATES (A.U.)
----------------------------
  NO LB      ZA    FRAG     MASS         X           Y           Z
   0 O     8.0000    0    15.999   -0.423765   -0.586441   -1.570285
   1 C     6.0000    0    12.011   -2.031915   -2.326077   -1.222747
   2 C     6.0000    0    12.011   -5.464190   -0.475742    1.093520
   3 C     6.0000    0    12.011   -5.082863    1.724180   -0.170433
   4 C     6.0000    0    12.011   -6.295369    2.234167   -2.683404
   5 Fe   26.0000    0    55.850    2.791670    0.299639   -0.025748
   6 Cl   17.0000    0    35.453    3.826580    3.854614   -1.833696
   7 C     6.0000    0    12.011   -3.368099    3.772526    0.755564
   8 Cl   17.0000    0    35.453    5.136810   -2.974412   -0.972498
   9 Cl   17.0000    0    35.453    2.174485    0.660690    4.071012
  10 H     1.0000    0     1.008   -6.830937   -1.785683    0.285430
  11 H     1.0000    0     1.008   -4.372994    5.585894    0.798024
  12 H     1.0000    0     1.008   -2.574083    3.412936    2.620619
  13 H     1.0000    0     1.008   -1.794459    4.011581   -0.578986
  14 H     1.0000    0     1.008   -7.443533    3.957438   -2.560583
  15 H     1.0000    0     1.008   -4.858750    2.597370   -4.136875
  16 H     1.0000    0     1.008   -7.522170    0.694185   -3.306148
  17 C     6.0000    0    12.011   -4.870440   -0.884866    3.855631
  18 H     1.0000    0     1.008   -6.275609    0.105594    5.016715
  19 H     1.0000    0     1.008   -4.977694   -2.883276    4.363319
  20 H     1.0000    0     1.008   -3.008140   -0.185293    4.403920
  21 C     6.0000    0    12.011   -1.558383   -4.286868    0.776638
  22 H     1.0000    0     1.008   -3.218347   -5.448574    1.153997
  23 H     1.0000    0     1.008   -0.064226   -5.505020   -0.000794
  24 H     1.0000    0     1.008   -0.830548   -3.465542    2.518773
  25 C     6.0000    0    12.011   -3.536736   -3.132985   -3.499208
  26 H     1.0000    0     1.008   -2.319673   -4.466851   -4.526374
  27 H     1.0000    0     1.008   -5.278285   -4.116774   -3.001290
  28 H     1.0000    0     1.008   -3.919793   -1.548249   -4.753362



           ************************************************************
           *        Program running with 10 parallel MPI-processes    *
           *              working on a common directory               *
           ************************************************************


           ************************************************************
           *        Program running with 10 parallel MPI-processes    *
           *              working on a common directory               *
           ************************************************************

Diagonalization of the overlap matrix:
Smallest eigenvalue                        ... 8.746e-07
Time for diagonalization                   ...    0.346 sec
Threshold for overlap eigenvalues          ... 1.000e-08
Number of eigenvalues below threshold      ... 0
Time for construction of square roots      ...    0.285 sec
Total time needed                          ...    0.637 sec

-------------------
DFT GRID GENERATION
-------------------

General Integration Accuracy     IntAcc      ...  4.340
Radial Grid Type                 RadialGrid  ... Gauss-Chebyshev
Angular Grid (max. acc.)         AngularGrid ... Lebedev-110
Angular grid pruning method      GridPruning ... 3 (G Style)
Weight generation scheme         WeightScheme... Becke
Basis function cutoff            BFCut       ...    1.0000e-11
Integration weight cutoff        WCut        ...    1.0000e-14
Grids for H and He will be reduced by one unit

# of grid points (after initial pruning)     ...  36112 (   0.0 sec)
# of grid points (after weights+screening)   ...  32411 (   0.1 sec)
nearest neighbour list constructed           ...    0.0 sec
Grid point re-assignment to atoms done       ...    0.0 sec
Grid point division into batches done        ...    0.0 sec
Reduced shell lists constructed in    0.3 sec

Total number of grid points                  ...    32411
Total number of batches                      ...      523
Average number of points per batch           ...       61
Average number of grid points per atom       ...     1118
Average number of shells per batch           ...   288.57 (84.13%)
Average number of basis functions per batch  ...   856.76 (83.59%)
Average number of large shells per batch     ...   234.28 (81.18%)
Average number of large basis fcns per batch ...   695.65 (81.20%)
Maximum spatial batch extension              ...   5.07,  4.34,  7.36 au
Average spatial batch extension              ...   0.19,  0.19,  0.19 au

Time for grid setup =    0.448 sec

Loading Hartree-Fock densities                     ... done
Calculating cut-offs                               ... done
Setting up the integral package                    ... done
Initializing the effective Hamiltonian             ... done
Starting the Coulomb interaction                   ... done (   1.1 sec)
Reading the grid                                   ... done
Mapping shells                                     ... done
Starting the XC term evaluation                    ... done (   1.1 sec)
Transforming the Hamiltonian                       ... done (   0.2 sec)
Diagonalizing the Hamiltonian                      ... done (   0.4 sec)
Back transforming the eigenvectors                 ... done (   0.1 sec)
Now organizing SCF variables                       ... done
--------------
SCF ITERATIONS
--------------
ITER       Energy         Delta-E        Max-DP      RMS-DP      [F,P]     Damp
               ***  Starting incremental Fock matrix formation  ***
  0  -3027.5885097103   0.000000000000 0.19655318  0.00100083  0.2535067 0.7000
  1  -3027.8397357644  -0.251226054083 0.14526450  0.00078220  0.1536796 0.7000
                               ***Turning on DIIS***
  2  -3028.0082212918  -0.168485527372 0.10284141  0.00057586  0.1094736 0.7000
  3  -3029.6021176413  -1.593896349549 0.24803300  0.00144721  0.0818683 0.0000
  4  -3028.3064619230   1.295655718356 0.04373659  0.00021549  0.0198313 0.0000
  5  -3028.4252015059  -0.118739582976 0.03971674  0.00017208  0.0109565 0.0000
  6  -3028.4710501858  -0.045848679867 0.02004168  0.00006993  0.0052262 0.0000
  7  -3028.4843658440  -0.013315658233 0.00876778  0.00003249  0.0032970 0.0000
  8  -3028.4734312686   0.010934575389 0.00626117  0.00001858  0.0015430 0.0000
  9  -3028.4691445331   0.004286735517 0.00234349  0.00001090  0.0007139 0.0000
 10  -3028.4570362160   0.012108317077 0.00091679  0.00000318  0.0004016 0.0000
 11  -3028.4624832285  -0.005447012402 0.00026657  0.00000169  0.0000751 0.0000
 12  -3028.4605115508   0.001971677690 0.00027085  0.00000125  0.0000226 0.0000
 13  -3028.4605320463  -0.000020495566 0.00052323  0.00000192  0.0000083 0.0000
 14  -3028.4605567489  -0.000024702616 0.00028606  0.00000169  0.0000050 0.0000
 15  -3028.4605038063   0.000052942671 0.00063579  0.00000193  0.0000028 0.0000
 16  -3028.4605149634  -0.000011157139 0.00062059  0.00000180  0.0000024 0.0000
 17  -3028.4605311643  -0.000016200844 0.00047780  0.00000167  0.0000016 0.0000
 18  -3028.4605149524   0.000016211858 0.00079924  0.00000313  0.0000012 0.0000
                            ***DIIS convergence achieved***

               *****************************************************
               *                     SUCCESS                       *
               *           SCF CONVERGED AFTER  19 CYCLES          *
               *****************************************************

Total Energy       :        -3028.46051999 Eh          -82408.60032 eV
  Last Energy change         ...   -5.0412e-06  Tolerance :   1.0000e-08
  Last MAX-Density change    ...    7.3649e-04  Tolerance :   1.0000e-07
             **** THE GBW FILE WAS UPDATED (simple-grid-240-285-b3lyp_d3bj-631gd-gas-singlepoint-DLPNO_CCSD_T1-NormalPNO-augtz-gas.gbw) ****
             **** DENSITY FILE WAS UPDATED (simple-grid-240-285-b3lyp_d3bj-631gd-gas-singlepoint-DLPNO_CCSD_T1-NormalPNO-augtz-gas.scfp.tmp) ****
             **** ENERGY FILE WAS UPDATED (simple-grid-240-285-b3lyp_d3bj-631gd-gas-singlepoint-DLPNO_CCSD_T1-NormalPNO-augtz-gas.en.tmp) ****
----------------------
UHF SPIN CONTAMINATION
----------------------

Expectation value of <S**2>     :     8.764790
Ideal value S*(S+1) for S=2.5   :     8.750000
Deviation                       :     0.014790

----------------
ORBITAL ENERGIES
----------------
                 SPIN UP ORBITALS
  NO   OCC          E(Eh)            E(eV) 
   0   1.0000    -261.570128     -7117.6850 
   1   1.0000    -104.790497     -2851.4944 
   2   1.0000    -104.786727     -2851.3918 
   3   1.0000    -104.784704     -2851.3367 
   4   1.0000     -32.237905      -877.2380 
   5   1.0000     -27.714276      -754.1438 
   6   1.0000     -27.713314      -754.1176 
   7   1.0000     -27.713116      -754.1122 
   8   1.0000     -20.606939      -560.7433 
   9   1.0000     -11.418265      -310.7068 
  10   1.0000     -11.285583      -307.0963 
  11   1.0000     -11.273904      -306.7785 
  12   1.0000     -11.269038      -306.6461 
  13   1.0000     -11.252386      -306.1930 
  14   1.0000     -11.252347      -306.1919 
  15   1.0000     -11.238938      -305.8270 
  16   1.0000     -11.236643      -305.7646 
  17   1.0000     -10.517203      -286.1877 
  18   1.0000     -10.513404      -286.0843 
  19   1.0000     -10.511330      -286.0278 
  20   1.0000      -7.984048      -217.2570 
  21   1.0000      -7.983266      -217.2357 
  22   1.0000      -7.983229      -217.2347 
  23   1.0000      -7.980266      -217.1541 
  24   1.0000      -7.979504      -217.1333 
  25   1.0000      -7.979449      -217.1319 
  26   1.0000      -7.978132      -217.0960 
  27   1.0000      -7.977456      -217.0776 
  28   1.0000      -7.977396      -217.0760 
  29   1.0000      -4.592925      -124.9799 
  30   1.0000      -3.206002       -87.2398 
  31   1.0000      -3.204437       -87.1972 
  32   1.0000      -3.204246       -87.1920 
  33   1.0000      -1.450461       -39.4691 
  34   1.0000      -1.138190       -30.9717 
  35   1.0000      -1.095799       -29.8182 
  36   1.0000      -1.062926       -28.9237 
  37   1.0000      -1.057014       -28.7628 
  38   1.0000      -1.053827       -28.6761 
  39   1.0000      -1.025911       -27.9164 
  40   1.0000      -1.005872       -27.3712 
  41   1.0000      -0.967611       -26.3300 
  42   1.0000      -0.938187       -25.5294 
  43   1.0000      -0.921969       -25.0881 
  44   1.0000      -0.921851       -25.0848 
  45   1.0000      -0.911656       -24.8074 
  46   1.0000      -0.910876       -24.7862 
  47   1.0000      -0.903466       -24.5846 
  48   1.0000      -0.807770       -21.9805 
  49   1.0000      -0.739452       -20.1215 
  50   1.0000      -0.704207       -19.1624 
  51   1.0000      -0.694595       -18.9009 
  52   1.0000      -0.683085       -18.5877 
  53   1.0000      -0.662648       -18.0316 
  54   1.0000      -0.628956       -17.1148 
  55   1.0000      -0.621586       -16.9142 
  56   1.0000      -0.605589       -16.4789 
  57   1.0000      -0.597625       -16.2622 
  58   1.0000      -0.584049       -15.8928 
  59   1.0000      -0.576140       -15.6776 
  60   1.0000      -0.561370       -15.2756 
  61   1.0000      -0.558151       -15.1881 
  62   1.0000      -0.547880       -14.9086 
  63   1.0000      -0.545658       -14.8481 
  64   1.0000      -0.534705       -14.5501 
  65   1.0000      -0.529765       -14.4156 
  66   1.0000      -0.502462       -13.6727 
  67   1.0000      -0.496881       -13.5208 
  68   1.0000      -0.473751       -12.8914 
  69   1.0000      -0.471511       -12.8305 
  70   1.0000      -0.442734       -12.0474 
  71   1.0000      -0.437246       -11.8981 
  72   1.0000      -0.435257       -11.8439 
  73   1.0000      -0.426763       -11.6128 
  74   1.0000      -0.425517       -11.5789 
  75   1.0000      -0.424226       -11.5438 
  76   1.0000      -0.366087        -9.9617 
  77   0.0000       0.012111         0.3296 
  78   0.0000       0.022584         0.6145 
  79   0.0000       0.023624         0.6428 
  80   0.0000       0.030065         0.8181 
  81   0.0000       0.038724         1.0537 
  82   0.0000       0.040611         1.1051 
  83   0.0000       0.042500         1.1565 
  84   0.0000       0.043850         1.1932 
  85   0.0000       0.044541         1.2120 
  86   0.0000       0.054440         1.4814 
  87   0.0000       0.057019         1.5516 
  88   0.0000       0.061234         1.6663 
  89   0.0000       0.063065         1.7161 
  90   0.0000       0.063487         1.7276 
  91   0.0000       0.065515         1.7827 
  92   0.0000       0.072307         1.9676 
  93   0.0000       0.077321         2.1040 
  94   0.0000       0.082586         2.2473 
  95   0.0000       0.089820         2.4441 
  96   0.0000       0.091388         2.4868 
  97   0.0000       0.094040         2.5589 
  98   0.0000       0.098803         2.6886 
  99   0.0000       0.101061         2.7500 
 100   0.0000       0.104057         2.8315 
 101   0.0000       0.107421         2.9231 
 102   0.0000       0.116462         3.1691 
 103   0.0000       0.121144         3.2965 
 104   0.0000       0.123101         3.3497 
 105   0.0000       0.123621         3.3639 
 106   0.0000       0.125920         3.4265 
 107   0.0000       0.128006         3.4832 
 108   0.0000       0.130740         3.5576 
 109   0.0000       0.133267         3.6264 
 110   0.0000       0.133932         3.6445 
 111   0.0000       0.137973         3.7544 
 112   0.0000       0.143650         3.9089 
 113   0.0000       0.145498         3.9592 
 114   0.0000       0.150554         4.0968 
 115   0.0000       0.151889         4.1331 
 116   0.0000       0.156148         4.2490 
 117   0.0000       0.160811         4.3759 
 118   0.0000       0.161922         4.4061 
 119   0.0000       0.166500         4.5307 
 120   0.0000       0.168775         4.5926 
 121   0.0000       0.171412         4.6643 
 122   0.0000       0.173352         4.7171 
 123   0.0000       0.178956         4.8696 
 124   0.0000       0.181990         4.9522 
 125   0.0000       0.185321         5.0428 
 126   0.0000       0.185815         5.0563 
 127   0.0000       0.190229         5.1764 
 128   0.0000       0.194485         5.2922 
 129   0.0000       0.197876         5.3845 
 130   0.0000       0.198967         5.4142 
 131   0.0000       0.200358         5.4520 
 132   0.0000       0.205066         5.5801 
 133   0.0000       0.208130         5.6635 
 134   0.0000       0.212535         5.7834 
 135   0.0000       0.218359         5.9419 
 136   0.0000       0.218843         5.9550 
 137   0.0000       0.224299         6.1035 
 138   0.0000       0.227522         6.1912 
 139   0.0000       0.232195         6.3183 
 140   0.0000       0.233943         6.3659 
 141   0.0000       0.236060         6.4235 
 142   0.0000       0.238945         6.5020 
 143   0.0000       0.241080         6.5601 
 144   0.0000       0.242177         6.5900 
 145   0.0000       0.245618         6.6836 
 146   0.0000       0.252763         6.8780 
 147   0.0000       0.256902         6.9907 
 148   0.0000       0.257503         7.0070 
 149   0.0000       0.260734         7.0949 
 150   0.0000       0.263158         7.1609 
 151   0.0000       0.268340         7.3019 
 152   0.0000       0.276526         7.5246 
 153   0.0000       0.280651         7.6369 
 154   0.0000       0.282375         7.6838 
 155   0.0000       0.285547         7.7701 
 156   0.0000       0.289077         7.8662 
 157   0.0000       0.291174         7.9232 
 158   0.0000       0.294886         8.0243 
 159   0.0000       0.304613         8.2889 
 160   0.0000       0.309057         8.4099 
 161   0.0000       0.310822         8.4579 
 162   0.0000       0.318325         8.6621 
 163   0.0000       0.319658         8.6983 
 164   0.0000       0.323677         8.8077 
 165   0.0000       0.326186         8.8760 
 166   0.0000       0.333402         9.0723 
 167   0.0000       0.335105         9.1187 
 168   0.0000       0.340738         9.2719 
 169   0.0000       0.341549         9.2940 
 170   0.0000       0.343561         9.3488 
 171   0.0000       0.351841         9.5741 
 172   0.0000       0.354866         9.6564 
 173   0.0000       0.358339         9.7509 
 174   0.0000       0.360211         9.8018 
 175   0.0000       0.367042         9.9877 
 176   0.0000       0.370656        10.0861 
 177   0.0000       0.371420        10.1069 
 178   0.0000       0.374712        10.1964 
 179   0.0000       0.376950        10.2573 
 180   0.0000       0.382036        10.3957 
 181   0.0000       0.383550        10.4369 
 182   0.0000       0.384558        10.4644 
 183   0.0000       0.385430        10.4881 
 184   0.0000       0.387802        10.5526 
 185   0.0000       0.389589        10.6013 
 186   0.0000       0.396150        10.7798 
 187   0.0000       0.399635        10.8746 
 188   0.0000       0.401977        10.9384 
 189   0.0000       0.403633        10.9834 
 190   0.0000       0.412711        11.2304 
 191   0.0000       0.413956        11.2643 
 192   0.0000       0.419649        11.4192 
 193   0.0000       0.423387        11.5210 
 194   0.0000       0.426973        11.6185 
 195   0.0000       0.432586        11.7713 
 196   0.0000       0.436729        11.8840 
 197   0.0000       0.439981        11.9725 
 198   0.0000       0.444644        12.0994 
 199   0.0000       0.445039        12.1101 
 200   0.0000       0.449461        12.2304 
 201   0.0000       0.450880        12.2691 
 202   0.0000       0.453144        12.3307 
 203   0.0000       0.458600        12.4791 
 204   0.0000       0.460491        12.5306 
 205   0.0000       0.465044        12.6545 
 206   0.0000       0.470374        12.7995 
 207   0.0000       0.472303        12.8520 
 208   0.0000       0.479066        13.0361 
 209   0.0000       0.480455        13.0738 
 210   0.0000       0.484884        13.1944 
 211   0.0000       0.488353        13.2888 
 212   0.0000       0.490175        13.3383 
 213   0.0000       0.494540        13.4571 
 214   0.0000       0.499279        13.5861 
 215   0.0000       0.500529        13.6201 
 216   0.0000       0.502617        13.6769 
 217   0.0000       0.507211        13.8019 
 218   0.0000       0.511728        13.9248 
 219   0.0000       0.513465        13.9721 
 220   0.0000       0.515981        14.0406 
 221   0.0000       0.517779        14.0895 
 222   0.0000       0.523757        14.2522 
 223   0.0000       0.525168        14.2905 
 224   0.0000       0.527100        14.3431 
 225   0.0000       0.529334        14.4039 
 226   0.0000       0.531967        14.4756 
 227   0.0000       0.535458        14.5705 
 228   0.0000       0.540669        14.7124 
 229   0.0000       0.541527        14.7357 
 230   0.0000       0.544675        14.8214 
 231   0.0000       0.551164        14.9979 
 232   0.0000       0.554902        15.0996 
 233   0.0000       0.557429        15.1684 
 234   0.0000       0.562343        15.3021 
 235   0.0000       0.565154        15.3786 
 236   0.0000       0.570339        15.5197 
 237   0.0000       0.573937        15.6176 
 238   0.0000       0.577271        15.7083 
 239   0.0000       0.583658        15.8822 
 240   0.0000       0.585387        15.9292 
 241   0.0000       0.587088        15.9755 
 242   0.0000       0.589467        16.0402 
 243   0.0000       0.593854        16.1596 
 244   0.0000       0.598020        16.2729 
 245   0.0000       0.600375        16.3370 
 246   0.0000       0.604018        16.4362 
 247   0.0000       0.611867        16.6497 
 248   0.0000       0.613439        16.6925 
 249   0.0000       0.616708        16.7815 
 250   0.0000       0.621175        16.9030 
 251   0.0000       0.626899        17.0588 
 252   0.0000       0.627987        17.0884 
 253   0.0000       0.632985        17.2244 
 254   0.0000       0.638557        17.3760 
 255   0.0000       0.642479        17.4827 
 256   0.0000       0.646122        17.5819 
 257   0.0000       0.648921        17.6580 
 258   0.0000       0.652044        17.7430 
 259   0.0000       0.657646        17.8954 
 260   0.0000       0.661027        17.9875 
 261   0.0000       0.664826        18.0908 
 262   0.0000       0.667842        18.1729 
 263   0.0000       0.670807        18.2536 
 264   0.0000       0.673135        18.3169 
 265   0.0000       0.680755        18.5243 
 266   0.0000       0.687453        18.7065 
 267   0.0000       0.691565        18.8184 
 268   0.0000       0.693590        18.8736 
 269   0.0000       0.697054        18.9678 
 270   0.0000       0.702313        19.1109 
 271   0.0000       0.710710        19.3394 
 272   0.0000       0.712375        19.3847 
 273   0.0000       0.716598        19.4996 
 274   0.0000       0.720421        19.6037 
 275   0.0000       0.724726        19.7208 
 276   0.0000       0.727601        19.7990 
 277   0.0000       0.731420        19.9029 
 278   0.0000       0.738041        20.0831 
 279   0.0000       0.739415        20.1205 
 280   0.0000       0.744442        20.2573 
 281   0.0000       0.747218        20.3328 
 282   0.0000       0.758226        20.6324 
 283   0.0000       0.765495        20.8302 
 284   0.0000       0.769405        20.9366 
 285   0.0000       0.775968        21.1152 
 286   0.0000       0.781695        21.2710 
 287   0.0000       0.787330        21.4243 
 288   0.0000       0.795427        21.6447 
 289   0.0000       0.801172        21.8010 
 290   0.0000       0.811414        22.0797 
 291   0.0000       0.817185        22.2367 
 292   0.0000       0.818201        22.2644 
 293   0.0000       0.827102        22.5066 
 294   0.0000       0.830103        22.5883 
 295   0.0000       0.836579        22.7645 
 296   0.0000       0.840780        22.8788 
 297   0.0000       0.844355        22.9761 
 298   0.0000       0.851452        23.1692 
 299   0.0000       0.853682        23.2299 
 300   0.0000       0.863005        23.4836 
 301   0.0000       0.863859        23.5068 
 302   0.0000       0.869262        23.6538 
 303   0.0000       0.875076        23.8120 
 304   0.0000       0.875683        23.8285 
 305   0.0000       0.881155        23.9774 
 306   0.0000       0.887126        24.1399 
 307   0.0000       0.890865        24.2417 
 308   0.0000       0.902699        24.5637 
 309   0.0000       0.905731        24.6462 
 310   0.0000       0.909812        24.7573 
 311   0.0000       0.917252        24.9597 
 312   0.0000       0.919699        25.0263 
 313   0.0000       0.921300        25.0699 
 314   0.0000       0.925059        25.1721 
 315   0.0000       0.928995        25.2792 
 316   0.0000       0.930671        25.3248 
 317   0.0000       0.937214        25.5029 
 318   0.0000       0.938857        25.5476 
 319   0.0000       0.938972        25.5507 
 320   0.0000       0.941912        25.6307 
 321   0.0000       0.948732        25.8163 
 322   0.0000       0.950946        25.8765 
 323   0.0000       0.956375        26.0243 
 324   0.0000       0.961610        26.1667 
 325   0.0000       0.962992        26.2044 
 326   0.0000       0.968630        26.3578 
 327   0.0000       0.970962        26.4212 
 328   0.0000       0.976403        26.5693 
 329   0.0000       0.978502        26.6264 
 330   0.0000       0.981348        26.7038 
 331   0.0000       0.983842        26.7717 
 332   0.0000       0.984954        26.8020 
 333   0.0000       0.990669        26.9575 
 334   0.0000       0.998451        27.1692 
 335   0.0000       1.000140        27.2152 
 336   0.0000       1.003288        27.3009 
 337   0.0000       1.008917        27.4540 
 338   0.0000       1.010279        27.4911 
 339   0.0000       1.017467        27.6867 
 340   0.0000       1.018555        27.7163 
 341   0.0000       1.021466        27.7955 
 342   0.0000       1.024923        27.8896 
 343   0.0000       1.027348        27.9556 
 344   0.0000       1.030716        28.0472 
 345   0.0000       1.033640        28.1268 
 346   0.0000       1.039299        28.2808 
 347   0.0000       1.042965        28.3805 
 348   0.0000       1.043748        28.4018 
 349   0.0000       1.051064        28.6009 
 350   0.0000       1.053707        28.6728 
 351   0.0000       1.055178        28.7129 
 352   0.0000       1.060888        28.8682 
 353   0.0000       1.065083        28.9824 
 354   0.0000       1.074051        29.2264 
 355   0.0000       1.076218        29.2854 
 356   0.0000       1.076944        29.3051 
 357   0.0000       1.081935        29.4409 
 358   0.0000       1.085832        29.5470 
 359   0.0000       1.089545        29.6480 
 360   0.0000       1.090661        29.6784 
 361   0.0000       1.095831        29.8191 
 362   0.0000       1.100646        29.9501 
 363   0.0000       1.101692        29.9786 
 364   0.0000       1.108300        30.1584 
 365   0.0000       1.113391        30.2969 
 366   0.0000       1.114504        30.3272 
 367   0.0000       1.118063        30.4241 
 368   0.0000       1.124757        30.6062 
 369   0.0000       1.127565        30.6826 
 370   0.0000       1.130277        30.7564 
 371   0.0000       1.137723        30.9590 
 372   0.0000       1.139363        31.0037 
 373   0.0000       1.145055        31.1585 
 374   0.0000       1.149613        31.2826 
 375   0.0000       1.160072        31.5672 
 376   0.0000       1.162115        31.6228 
 377   0.0000       1.166581        31.7443 
 378   0.0000       1.169918        31.8351 
 379   0.0000       1.174593        31.9623 
 380   0.0000       1.178098        32.0577 
 381   0.0000       1.187684        32.3185 
 382   0.0000       1.189013        32.3547 
 383   0.0000       1.194186        32.4954 
 384   0.0000       1.196938        32.5703 
 385   0.0000       1.200110        32.6567 
 386   0.0000       1.205065        32.7915 
 387   0.0000       1.213296        33.0155 
 388   0.0000       1.217556        33.1314 
 389   0.0000       1.226005        33.3613 
 390   0.0000       1.227437        33.4002 
 391   0.0000       1.232456        33.5368 
 392   0.0000       1.235554        33.6211 
 393   0.0000       1.236181        33.6382 
 394   0.0000       1.245271        33.8855 
 395   0.0000       1.247000        33.9326 
 396   0.0000       1.254662        34.1411 
 397   0.0000       1.257850        34.2278 
 398   0.0000       1.264325        34.4040 
 399   0.0000       1.265262        34.4295 
 400   0.0000       1.271385        34.5961 
 401   0.0000       1.273390        34.6507 
 402   0.0000       1.278002        34.7762 
 403   0.0000       1.289380        35.0858 
 404   0.0000       1.297181        35.2981 
 405   0.0000       1.299594        35.3637 
 406   0.0000       1.301296        35.4101 
 407   0.0000       1.309793        35.6413 
 408   0.0000       1.312709        35.7206 
 409   0.0000       1.317295        35.8454 
 410   0.0000       1.319628        35.9089 
 411   0.0000       1.322031        35.9743 
 412   0.0000       1.326721        36.1019 
 413   0.0000       1.331247        36.2251 
 414   0.0000       1.341977        36.5171 
 415   0.0000       1.345918        36.6243 
 416   0.0000       1.348904        36.7056 
 417   0.0000       1.355159        36.8758 
 418   0.0000       1.362147        37.0659 
 419   0.0000       1.367151        37.2021 
 420   0.0000       1.374365        37.3984 
 421   0.0000       1.376610        37.4595 
 422   0.0000       1.384667        37.6787 
 423   0.0000       1.388165        37.7739 
 424   0.0000       1.392148        37.8823 
 425   0.0000       1.401734        38.1431 
 426   0.0000       1.405252        38.2388 
 427   0.0000       1.410751        38.3885 
 428   0.0000       1.415349        38.5136 
 429   0.0000       1.418459        38.5982 
 430   0.0000       1.422564        38.7099 
 431   0.0000       1.428933        38.8832 
 432   0.0000       1.433059        38.9955 
 433   0.0000       1.438354        39.1396 
 434   0.0000       1.443850        39.2891 
 435   0.0000       1.453641        39.5556 
 436   0.0000       1.459412        39.7126 
 437   0.0000       1.464278        39.8450 
 438   0.0000       1.471441        40.0399 
 439   0.0000       1.476674        40.1824 
 440   0.0000       1.482994        40.3543 
 441   0.0000       1.486170        40.4407 
 442   0.0000       1.489689        40.5365 
 443   0.0000       1.493678        40.6450 
 444   0.0000       1.500836        40.8398 
 445   0.0000       1.504025        40.9266 
 446   0.0000       1.510970        41.1156 
 447   0.0000       1.515367        41.2352 
 448   0.0000       1.519331        41.3431 
 449   0.0000       1.524020        41.4707 
 450   0.0000       1.525938        41.5229 
 451   0.0000       1.532292        41.6958 
 452   0.0000       1.540946        41.9313 
 453   0.0000       1.541446        41.9449 
 454   0.0000       1.547537        42.1106 
 455   0.0000       1.553252        42.2661 
 456   0.0000       1.564287        42.5664 
 457   0.0000       1.571573        42.7647 
 458   0.0000       1.572735        42.7963 
 459   0.0000       1.576329        42.8941 
 460   0.0000       1.579242        42.9734 
 461   0.0000       1.587883        43.2085 
 462   0.0000       1.589216        43.2448 
 463   0.0000       1.600157        43.5425 
 464   0.0000       1.607642        43.7461 
 465   0.0000       1.610779        43.8315 
 466   0.0000       1.614671        43.9374 
 467   0.0000       1.619401        44.0662 
 468   0.0000       1.622808        44.1589 
 469   0.0000       1.625616        44.2353 
 470   0.0000       1.631685        44.4004 
 471   0.0000       1.640541        44.6414 
 472   0.0000       1.643471        44.7211 
 473   0.0000       1.650609        44.9154 
 474   0.0000       1.655275        45.0423 
 475   0.0000       1.662493        45.2387 
 476   0.0000       1.666812        45.3562 
 477   0.0000       1.674237        45.5583 
 478   0.0000       1.678547        45.6756 
 479   0.0000       1.682711        45.7889 
 480   0.0000       1.691973        46.0409 
 481   0.0000       1.695734        46.1433 
 482   0.0000       1.702010        46.3140 
 483   0.0000       1.703440        46.3530 
 484   0.0000       1.711548        46.5736 
 485   0.0000       1.714394        46.6510 
 486   0.0000       1.719738        46.7964 
 487   0.0000       1.726697        46.9858 
 488   0.0000       1.734117        47.1877 
 489   0.0000       1.737476        47.2791 
 490   0.0000       1.745783        47.5052 
 491   0.0000       1.748885        47.5896 
 492   0.0000       1.754998        47.7559 
 493   0.0000       1.758450        47.8499 
 494   0.0000       1.762604        47.9629 
 495   0.0000       1.767593        48.0986 
 496   0.0000       1.767635        48.0998 
 497   0.0000       1.772793        48.2402 
 498   0.0000       1.780771        48.4573 
 499   0.0000       1.783426        48.5295 
 500   0.0000       1.796465        48.8843 
 501   0.0000       1.801154        49.0119 
 502   0.0000       1.804749        49.1097 
 503   0.0000       1.808934        49.2236 
 504   0.0000       1.811505        49.2936 
 505   0.0000       1.817993        49.4701 
 506   0.0000       1.828264        49.7496 
 507   0.0000       1.829783        49.7909 
 508   0.0000       1.835996        49.9600 
 509   0.0000       1.843139        50.1544 
 510   0.0000       1.845593        50.2212 
 511   0.0000       1.852954        50.4214 
 512   0.0000       1.861472        50.6532 
 513   0.0000       1.865811        50.7713 
 514   0.0000       1.867989        50.8306 
 515   0.0000       1.876220        51.0545 
 516   0.0000       1.879801        51.1520 
 517   0.0000       1.883741        51.2592 
 518   0.0000       1.886067        51.3225 
 519   0.0000       1.892928        51.5092 
 520   0.0000       1.896123        51.5961 
 521   0.0000       1.902600        51.7724 
 522   0.0000       1.907782        51.9134 
 523   0.0000       1.911641        52.0184 
 524   0.0000       1.915626        52.1268 
 525   0.0000       1.921245        52.2797 
 526   0.0000       1.923617        52.3443 
 527   0.0000       1.933829        52.6222 
 528   0.0000       1.937881        52.7324 
 529   0.0000       1.938873        52.7594 
 530   0.0000       1.946940        52.9789 
 531   0.0000       1.950963        53.0884 
 532   0.0000       1.960310        53.3427 
 533   0.0000       1.964863        53.4666 
 534   0.0000       1.966034        53.4985 
 535   0.0000       1.977997        53.8240 
 536   0.0000       1.983647        53.9778 
 537   0.0000       1.990024        54.1513 
 538   0.0000       1.997438        54.3531 
 539   0.0000       1.999142        54.3994 
 540   0.0000       2.010497        54.7084 
 541   0.0000       2.018700        54.9316 
 542   0.0000       2.027424        55.1690 
 543   0.0000       2.033655        55.3386 
 544   0.0000       2.037172        55.4343 
 545   0.0000       2.045648        55.6649 
 546   0.0000       2.047628        55.7188 
 547   0.0000       2.050346        55.7928 
 548   0.0000       2.059634        56.0455 
 549   0.0000       2.067828        56.2685 
 550   0.0000       2.079081        56.5747 
 551   0.0000       2.082898        56.6785 
 552   0.0000       2.090326        56.8807 
 553   0.0000       2.100389        57.1545 
 554   0.0000       2.108875        57.3854 
 555   0.0000       2.116393        57.5900 
 556   0.0000       2.120212        57.6939 
 557   0.0000       2.124363        57.8069 
 558   0.0000       2.129756        57.9536 
 559   0.0000       2.134976        58.0957 
 560   0.0000       2.144048        58.3425 
 561   0.0000       2.151278        58.5392 
 562   0.0000       2.154702        58.6324 
 563   0.0000       2.166248        58.9466 
 564   0.0000       2.169784        59.0428 
 565   0.0000       2.185930        59.4822 
 566   0.0000       2.190703        59.6121 
 567   0.0000       2.195816        59.7512 
 568   0.0000       2.202579        59.9352 
 569   0.0000       2.209020        60.1105 
 570   0.0000       2.212258        60.1986 
 571   0.0000       2.215145        60.2772 
 572   0.0000       2.223733        60.5109 
 573   0.0000       2.233759        60.7837 
 574   0.0000       2.239811        60.9484 
 575   0.0000       2.245138        61.0933 
 576   0.0000       2.255340        61.3709 
 577   0.0000       2.258222        61.4493 
 578   0.0000       2.268412        61.7266 
 579   0.0000       2.278755        62.0081 
 580   0.0000       2.281823        62.0915 
 581   0.0000       2.291752        62.3617 
 582   0.0000       2.303412        62.6790 
 583   0.0000       2.312115        62.9158 
 584   0.0000       2.319044        63.1044 
 585   0.0000       2.328539        63.3628 
 586   0.0000       2.336111        63.5688 
 587   0.0000       2.339367        63.6574 
 588   0.0000       2.346371        63.8480 
 589   0.0000       2.350778        63.9679 
 590   0.0000       2.355638        64.1002 
 591   0.0000       2.368462        64.4491 
 592   0.0000       2.380457        64.7755 
 593   0.0000       2.381682        64.8089 
 594   0.0000       2.392996        65.1167 
 595   0.0000       2.398419        65.2643 
 596   0.0000       2.407308        65.5062 
 597   0.0000       2.413618        65.6779 
 598   0.0000       2.414808        65.7103 
 599   0.0000       2.425260        65.9947 
 600   0.0000       2.437163        66.3186 
 601   0.0000       2.441751        66.4434 
 602   0.0000       2.446386        66.5695 
 603   0.0000       2.460690        66.9588 
 604   0.0000       2.466922        67.1284 
 605   0.0000       2.472864        67.2900 
 606   0.0000       2.485984        67.6471 
 607   0.0000       2.502819        68.1052 
 608   0.0000       2.506280        68.1993 
 609   0.0000       2.521225        68.6060 
 610   0.0000       2.537735        69.0553 
 611   0.0000       2.538113        69.0656 
 612   0.0000       2.552314        69.4520 
 613   0.0000       2.578299        70.1591 
 614   0.0000       2.585501        70.3550 
 615   0.0000       2.587209        70.4015 
 616   0.0000       2.606665        70.9309 
 617   0.0000       2.616106        71.1879 
 618   0.0000       2.635915        71.7269 
 619   0.0000       2.643041        71.9208 
 620   0.0000       2.649591        72.0990 
 621   0.0000       2.658426        72.3394 
 622   0.0000       2.668985        72.6268 
 623   0.0000       2.670245        72.6610 
 624   0.0000       2.676232        72.8240 
 625   0.0000       2.687822        73.1393 
 626   0.0000       2.695890        73.3589 
 627   0.0000       2.704682        73.5981 
 628   0.0000       2.717242        73.9399 
 629   0.0000       2.726649        74.1959 
 630   0.0000       2.732056        74.3430 
 631   0.0000       2.747752        74.7701 
 632   0.0000       2.761430        75.1423 
 633   0.0000       2.763959        75.2112 
 634   0.0000       2.778033        75.5941 
 635   0.0000       2.782334        75.7112 
 636   0.0000       2.795016        76.0562 
 637   0.0000       2.805786        76.3493 
 638   0.0000       2.812827        76.5409 
 639   0.0000       2.821996        76.7904 
 640   0.0000       2.844646        77.4068 
 641   0.0000       2.854736        77.6813 
 642   0.0000       2.857579        77.7587 
 643   0.0000       2.871320        78.1326 
 644   0.0000       2.877967        78.3135 
 645   0.0000       2.892632        78.7125 
 646   0.0000       2.900968        78.9394 
 647   0.0000       2.915611        79.3378 
 648   0.0000       2.934215        79.8440 
 649   0.0000       2.947067        80.1938 
 650   0.0000       2.949864        80.2699 
 651   0.0000       2.962327        80.6090 
 652   0.0000       2.977686        81.0270 
 653   0.0000       2.994133        81.4745 
 654   0.0000       3.015760        82.0630 
 655   0.0000       3.033453        82.5445 
 656   0.0000       3.046291        82.8938 
 657   0.0000       3.067916        83.4822 
 658   0.0000       3.078296        83.7647 
 659   0.0000       3.087974        84.0280 
 660   0.0000       3.103168        84.4415 
 661   0.0000       3.108691        84.5918 
 662   0.0000       3.127743        85.1102 
 663   0.0000       3.149387        85.6992 
 664   0.0000       3.161296        86.0232 
 665   0.0000       3.180990        86.5591 
 666   0.0000       3.190580        86.8201 
 667   0.0000       3.193980        86.9126 
 668   0.0000       3.211416        87.3871 
 669   0.0000       3.213663        87.4482 
 670   0.0000       3.225117        87.7599 
 671   0.0000       3.226534        87.7984 
 672   0.0000       3.237962        88.1094 
 673   0.0000       3.251978        88.4908 
 674   0.0000       3.254395        88.5566 
 675   0.0000       3.269972        88.9805 
 676   0.0000       3.275720        89.1369 
 677   0.0000       3.283252        89.3418 
 678   0.0000       3.288554        89.4861 
 679   0.0000       3.304859        89.9298 
 680   0.0000       3.321185        90.3740 
 681   0.0000       3.324240        90.4572 
 682   0.0000       3.333221        90.7016 
 683   0.0000       3.335513        90.7639 
 684   0.0000       3.346348        91.0588 
 685   0.0000       3.353436        91.2516 
 686   0.0000       3.364186        91.5441 
 687   0.0000       3.391225        92.2799 
 688   0.0000       3.393754        92.3487 
 689   0.0000       3.411060        92.8197 
 690   0.0000       3.416394        92.9648 
 691   0.0000       3.429780        93.3291 
 692   0.0000       3.441517        93.6484 
 693   0.0000       3.450175        93.8840 
 694   0.0000       3.456264        94.0497 
 695   0.0000       3.465945        94.3132 
 696   0.0000       3.473954        94.5311 
 697   0.0000       3.479808        94.6904 
 698   0.0000       3.490192        94.9730 
 699   0.0000       3.497245        95.1649 
 700   0.0000       3.501102        95.2698 
 701   0.0000       3.508813        95.4796 
 702   0.0000       3.524430        95.9046 
 703   0.0000       3.527096        95.9772 
 704   0.0000       3.536305        96.2278 
 705   0.0000       3.544302        96.4454 
 706   0.0000       3.548088        96.5484 
 707   0.0000       3.555209        96.7422 
 708   0.0000       3.557623        96.8078 
 709   0.0000       3.575823        97.3031 
 710   0.0000       3.577540        97.3498 
 711   0.0000       3.585909        97.5775 
 712   0.0000       3.599280        97.9414 
 713   0.0000       3.605527        98.1114 
 714   0.0000       3.618623        98.4677 
 715   0.0000       3.623623        98.6038 
 716   0.0000       3.631697        98.8235 
 717   0.0000       3.645737        99.2055 
 718   0.0000       3.648850        99.2902 
 719   0.0000       3.657438        99.5240 
 720   0.0000       3.667056        99.7857 
 721   0.0000       3.672598        99.9365 
 722   0.0000       3.682659       100.2102 
 723   0.0000       3.689915       100.4077 
 724   0.0000       3.693174       100.4964 
 725   0.0000       3.707978       100.8992 
 726   0.0000       3.719121       101.2024 
 727   0.0000       3.719429       101.2108 
 728   0.0000       3.727687       101.4355 
 729   0.0000       3.736398       101.6726 
 730   0.0000       3.741943       101.8234 
 731   0.0000       3.752329       102.1061 
 732   0.0000       3.762289       102.3771 
 733   0.0000       3.765008       102.4511 
 734   0.0000       3.777770       102.7984 
 735   0.0000       3.780225       102.8651 
 736   0.0000       3.783347       102.9501 
 737   0.0000       3.791366       103.1683 
 738   0.0000       3.798548       103.3637 
 739   0.0000       3.805743       103.5595 
 740   0.0000       3.809888       103.6723 
 741   0.0000       3.820799       103.9692 
 742   0.0000       3.829514       104.2064 
 743   0.0000       3.832934       104.2994 
 744   0.0000       3.835633       104.3729 
 745   0.0000       3.844979       104.6272 
 746   0.0000       3.863350       105.1271 
 747   0.0000       3.868858       105.2770 
 748   0.0000       3.875764       105.4649 
 749   0.0000       3.881217       105.6133 
 750   0.0000       3.889857       105.8484 
 751   0.0000       3.900109       106.1273 
 752   0.0000       3.906137       106.2914 
 753   0.0000       3.908714       106.3615 
 754   0.0000       3.917407       106.5981 
 755   0.0000       3.922254       106.7299 
 756   0.0000       3.928999       106.9135 
 757   0.0000       3.930873       106.9645 
 758   0.0000       3.944828       107.3442 
 759   0.0000       3.950294       107.4930 
 760   0.0000       3.961405       107.7953 
 761   0.0000       3.961925       107.8095 
 762   0.0000       3.965895       107.9175 
 763   0.0000       3.975322       108.1740 
 764   0.0000       3.982345       108.3651 
 765   0.0000       3.990054       108.5749 
 766   0.0000       3.999220       108.8243 
 767   0.0000       4.005236       108.9880 
 768   0.0000       4.017124       109.3115 
 769   0.0000       4.021083       109.4192 
 770   0.0000       4.026695       109.5719 
 771   0.0000       4.032243       109.7229 
 772   0.0000       4.041667       109.9794 
 773   0.0000       4.045570       110.0856 
 774   0.0000       4.060731       110.4981 
 775   0.0000       4.061697       110.5244 
 776   0.0000       4.069924       110.7483 
 777   0.0000       4.078323       110.9768 
 778   0.0000       4.092839       111.3718 
 779   0.0000       4.101028       111.5946 
 780   0.0000       4.103829       111.6709 
 781   0.0000       4.107799       111.7789 
 782   0.0000       4.114730       111.9675 
 783   0.0000       4.127081       112.3036 
 784   0.0000       4.128496       112.3421 
 785   0.0000       4.135555       112.5342 
 786   0.0000       4.138190       112.6059 
 787   0.0000       4.153942       113.0345 
 788   0.0000       4.158752       113.1654 
 789   0.0000       4.168280       113.4247 
 790   0.0000       4.178094       113.6917 
 791   0.0000       4.189126       113.9919 
 792   0.0000       4.210144       114.5638 
 793   0.0000       4.213756       114.6621 
 794   0.0000       4.219456       114.8172 
 795   0.0000       4.222597       114.9027 
 796   0.0000       4.236160       115.2718 
 797   0.0000       4.250538       115.6630 
 798   0.0000       4.256113       115.8147 
 799   0.0000       4.268161       116.1426 
 800   0.0000       4.276345       116.3653 
 801   0.0000       4.284684       116.5922 
 802   0.0000       4.293783       116.8398 
 803   0.0000       4.306650       117.1899 
 804   0.0000       4.311192       117.3135 
 805   0.0000       4.317702       117.4907 
 806   0.0000       4.329013       117.7984 
 807   0.0000       4.336753       118.0090 
 808   0.0000       4.340736       118.1174 
 809   0.0000       4.346721       118.2803 
 810   0.0000       4.362601       118.7124 
 811   0.0000       4.371831       118.9636 
 812   0.0000       4.388082       119.4058 
 813   0.0000       4.389607       119.4473 
 814   0.0000       4.399957       119.7289 
 815   0.0000       4.402674       119.8028 
 816   0.0000       4.415818       120.1605 
 817   0.0000       4.425644       120.4279 
 818   0.0000       4.436200       120.7151 
 819   0.0000       4.444987       120.9542 
 820   0.0000       4.460999       121.3900 
 821   0.0000       4.468173       121.5852 
 822   0.0000       4.478126       121.8560 
 823   0.0000       4.492485       122.2467 
 824   0.0000       4.499140       122.4278 
 825   0.0000       4.505406       122.5983 
 826   0.0000       4.512076       122.7798 
 827   0.0000       4.520891       123.0197 
 828   0.0000       4.526951       123.1846 
 829   0.0000       4.535022       123.4042 
 830   0.0000       4.547127       123.7336 
 831   0.0000       4.553872       123.9171 
 832   0.0000       4.566695       124.2661 
 833   0.0000       4.574308       124.4733 
 834   0.0000       4.584959       124.7631 
 835   0.0000       4.599312       125.1536 
 836   0.0000       4.605617       125.3252 
 837   0.0000       4.634075       126.0996 
 838   0.0000       4.637991       126.2062 
 839   0.0000       4.639997       126.2607 
 840   0.0000       4.659469       126.7906 
 841   0.0000       4.671222       127.1104 
 842   0.0000       4.676997       127.2676 
 843   0.0000       4.686360       127.5223 
 844   0.0000       4.693943       127.7287 
 845   0.0000       4.709211       128.1442 
 846   0.0000       4.712136       128.2237 
 847   0.0000       4.723559       128.5346 
 848   0.0000       4.730611       128.7265 
 849   0.0000       4.739419       128.9661 
 850   0.0000       4.769195       129.7764 
 851   0.0000       4.775297       129.9424 
 852   0.0000       4.792552       130.4120 
 853   0.0000       4.806278       130.7855 
 854   0.0000       4.819098       131.1343 
 855   0.0000       4.821102       131.1889 
 856   0.0000       4.836051       131.5957 
 857   0.0000       4.836965       131.6205 
 858   0.0000       4.846088       131.8687 
 859   0.0000       4.872980       132.6005 
 860   0.0000       4.884911       132.9252 
 861   0.0000       4.896924       133.2521 
 862   0.0000       4.903608       133.4340 
 863   0.0000       4.922288       133.9423 
 864   0.0000       4.927235       134.0769 
 865   0.0000       4.941963       134.4776 
 866   0.0000       4.952138       134.7545 
 867   0.0000       4.966354       135.1414 
 868   0.0000       4.975790       135.3981 
 869   0.0000       4.976795       135.4255 
 870   0.0000       4.998426       136.0141 
 871   0.0000       5.003179       136.1434 
 872   0.0000       5.010850       136.3522 
 873   0.0000       5.017040       136.5206 
 874   0.0000       5.031101       136.9032 
 875   0.0000       5.040235       137.1518 
 876   0.0000       5.051391       137.4553 
 877   0.0000       5.063268       137.7785 
 878   0.0000       5.073981       138.0700 
 879   0.0000       5.088979       138.4782 
 880   0.0000       5.104691       138.9057 
 881   0.0000       5.116149       139.2175 
 882   0.0000       5.129774       139.5883 
 883   0.0000       5.136927       139.7829 
 884   0.0000       5.157110       140.3321 
 885   0.0000       5.158033       140.3572 
 886   0.0000       5.166820       140.5963 
 887   0.0000       5.181992       141.0092 
 888   0.0000       5.204136       141.6117 
 889   0.0000       5.216740       141.9547 
 890   0.0000       5.220040       142.0445 
 891   0.0000       5.232513       142.3839 
 892   0.0000       5.244965       142.7228 
 893   0.0000       5.260245       143.1385 
 894   0.0000       5.265045       143.2692 
 895   0.0000       5.283459       143.7702 
 896   0.0000       5.289472       143.9338 
 897   0.0000       5.301446       144.2597 
 898   0.0000       5.307465       144.4235 
 899   0.0000       5.330620       145.0535 
 900   0.0000       5.340826       145.3313 
 901   0.0000       5.363316       145.9432 
 902   0.0000       5.377858       146.3390 
 903   0.0000       5.384305       146.5144 
 904   0.0000       5.409696       147.2053 
 905   0.0000       5.420307       147.4940 
 906   0.0000       5.429799       147.7523 
 907   0.0000       5.439776       148.0238 
 908   0.0000       5.444550       148.1537 
 909   0.0000       5.452962       148.3826 
 910   0.0000       5.465939       148.7358 
 911   0.0000       5.468487       148.8051 
 912   0.0000       5.482251       149.1796 
 913   0.0000       5.496121       149.5570 
 914   0.0000       5.512401       150.0001 
 915   0.0000       5.535546       150.6299 
 916   0.0000       5.541537       150.7929 
 917   0.0000       5.561648       151.3401 
 918   0.0000       5.574108       151.6792 
 919   0.0000       5.581994       151.8938 
 920   0.0000       5.592048       152.1674 
 921   0.0000       5.594198       152.2259 
 922   0.0000       5.605683       152.5384 
 923   0.0000       5.616073       152.8211 
 924   0.0000       5.619541       152.9155 
 925   0.0000       5.643136       153.5575 
 926   0.0000       5.655519       153.8945 
 927   0.0000       5.659408       154.0003 
 928   0.0000       5.679877       154.5573 
 929   0.0000       5.682722       154.6347 
 930   0.0000       5.700332       155.1139 
 931   0.0000       5.714267       155.4931 
 932   0.0000       5.720128       155.6526 
 933   0.0000       5.733001       156.0029 
 934   0.0000       5.745540       156.3441 
 935   0.0000       5.764470       156.8592 
 936   0.0000       5.767659       156.9460 
 937   0.0000       5.791958       157.6072 
 938   0.0000       5.801194       157.8585 
 939   0.0000       5.822198       158.4300 
 940   0.0000       5.836063       158.8074 
 941   0.0000       5.854352       159.3050 
 942   0.0000       5.869916       159.7285 
 943   0.0000       5.895389       160.4217 
 944   0.0000       5.911488       160.8598 
 945   0.0000       6.010453       163.5527 
 946   0.0000       6.062127       164.9589 
 947   0.0000       6.064180       165.0147 
 948   0.0000       6.103111       166.0741 
 949   0.0000       6.115779       166.4188 
 950   0.0000       6.147918       167.2934 
 951   0.0000       6.156848       167.5364 
 952   0.0000       6.186098       168.3323 
 953   0.0000       6.193548       168.5350 
 954   0.0000       6.211118       169.0131 
 955   0.0000       6.232967       169.6077 
 956   0.0000       6.248015       170.0171 
 957   0.0000       6.250309       170.0796 
 958   0.0000       6.270054       170.6169 
 959   0.0000       6.279842       170.8832 
 960   0.0000       6.301234       171.4653 
 961   0.0000       6.314041       171.8138 
 962   0.0000       6.321307       172.0115 
 963   0.0000       6.343348       172.6113 
 964   0.0000       6.358431       173.0217 
 965   0.0000       6.370517       173.3506 
 966   0.0000       6.383584       173.7062 
 967   0.0000       6.398100       174.1012 
 968   0.0000       6.455013       175.6498 
 969   0.0000       6.519655       177.4088 
 970   0.0000       6.568676       178.7428 
 971   0.0000       6.640500       180.6972 
 972   0.0000       6.825760       185.7384 
 973   0.0000       6.839386       186.1091 
 974   0.0000       6.868927       186.9130 
 975   0.0000       6.891988       187.5405 
 976   0.0000       6.916211       188.1997 
 977   0.0000       6.940419       188.8584 
 978   0.0000       6.956135       189.2860 
 979   0.0000       6.991396       190.2456 
 980   0.0000       7.013484       190.8466 
 981   0.0000       7.017857       190.9656 
 982   0.0000       7.022998       191.1055 
 983   0.0000       7.046322       191.7402 
 984   0.0000       7.068817       192.3523 
 985   0.0000       7.129119       193.9932 
 986   0.0000       7.238363       196.9659 
 987   0.0000       7.326686       199.3693 
 988   0.0000       7.335533       199.6100 
 989   0.0000       7.408717       201.6014 
 990   0.0000       7.510820       204.3798 
 991   0.0000       7.574197       206.1044 
 992   0.0000       7.640561       207.9102 
 993   0.0000       7.691949       209.3086 
 994   0.0000       7.767086       211.3532 
 995   0.0000       7.878964       214.3975 
 996   0.0000       7.929398       215.7699 
 997   0.0000       8.014660       218.0900 
 998   0.0000       8.273597       225.1360 
 999   0.0000       9.408446       256.0168 
 1000   0.0000       9.424647       256.4577 
 1001   0.0000       9.433218       256.6909 
 1002   0.0000       9.445849       257.0346 
 1003   0.0000       9.460539       257.4344 
 1004   0.0000       9.486242       258.1338 
 1005   0.0000       9.683114       263.4909 
 1006   0.0000      10.088717       274.5279 
 1007   0.0000      10.094051       274.6731 
 1008   0.0000      10.108617       275.0695 
 1009   0.0000      10.205626       277.7092 
 1010   0.0000      10.212224       277.8887 
 1011   0.0000      10.238124       278.5935 
 1012   0.0000      10.345308       281.5101 
 1013   0.0000      10.390253       282.7332 
 1014   0.0000      10.479004       285.1482 
 1015   0.0000      11.973422       325.8134 
 1016   0.0000      16.936641       460.8694 
 1017   0.0000      17.636683       479.9185 
 1018   0.0000      18.258927       496.8507 
 1019   0.0000      18.429187       501.4837 
 1020   0.0000      18.652414       507.5580 
 1021   0.0000      18.778876       510.9992 
 1022   0.0000      20.337578       553.4136 
 1023   0.0000      21.000681       571.4576 
 1024   0.0000      21.616629       588.2184 

                 SPIN DOWN ORBITALS
  NO   OCC          E(Eh)            E(eV) 
   0   1.0000    -261.566556     -7117.5878 
   1   1.0000    -104.789036     -2851.4546 
   2   1.0000    -104.785191     -2851.3500 
   3   1.0000    -104.783172     -2851.2951 
   4   1.0000     -32.075882      -872.8291 
   5   1.0000     -27.553796      -749.7769 
   6   1.0000     -27.553744      -749.7755 
   7   1.0000     -27.553585      -749.7712 
   8   1.0000     -20.603134      -560.6398 
   9   1.0000     -11.418172      -310.7043 
  10   1.0000     -11.285510      -307.0943 
  11   1.0000     -11.273793      -306.7755 
  12   1.0000     -11.269024      -306.6457 
  13   1.0000     -11.252396      -306.1933 
  14   1.0000     -11.252357      -306.1922 
  15   1.0000     -11.238934      -305.8269 
  16   1.0000     -11.236667      -305.7653 
  17   1.0000     -10.515640      -286.1451 
  18   1.0000     -10.511763      -286.0396 
  19   1.0000     -10.509701      -285.9835 
  20   1.0000      -7.981544      -217.1889 
  21   1.0000      -7.980860      -217.1702 
  22   1.0000      -7.980816      -217.1690 
  23   1.0000      -7.977664      -217.0833 
  24   1.0000      -7.976960      -217.0641 
  25   1.0000      -7.976874      -217.0618 
  26   1.0000      -7.975681      -217.0293 
  27   1.0000      -7.974839      -217.0064 
  28   1.0000      -7.974752      -217.0040 
  29   1.0000      -4.150747      -112.9476 
  30   1.0000      -2.672352       -72.7184 
  31   1.0000      -2.672311       -72.7173 
  32   1.0000      -2.671773       -72.7026 
  33   1.0000      -1.440992       -39.2114 
  34   1.0000      -1.137792       -30.9609 
  35   1.0000      -1.093191       -29.7472 
  36   1.0000      -1.047524       -28.5046 
  37   1.0000      -1.035106       -28.1667 
  38   1.0000      -1.031561       -28.0702 
  39   1.0000      -1.025348       -27.9011 
  40   1.0000      -1.005189       -27.3526 
  41   1.0000      -0.967531       -26.3279 
  42   1.0000      -0.903748       -24.5922 
  43   1.0000      -0.821603       -22.3570 
  44   1.0000      -0.739542       -20.1240 
  45   1.0000      -0.706698       -19.2302 
  46   1.0000      -0.693612       -18.8741 
  47   1.0000      -0.682401       -18.5691 
  48   1.0000      -0.662548       -18.0288 
  49   1.0000      -0.628919       -17.1138 
  50   1.0000      -0.621101       -16.9010 
  51   1.0000      -0.605177       -16.4677 
  52   1.0000      -0.597502       -16.2589 
  53   1.0000      -0.583759       -15.8849 
  54   1.0000      -0.574620       -15.6362 
  55   1.0000      -0.561041       -15.2667 
  56   1.0000      -0.557964       -15.1830 
  57   1.0000      -0.547672       -14.9029 
  58   1.0000      -0.543977       -14.8024 
  59   1.0000      -0.532216       -14.4823 
  60   1.0000      -0.520133       -14.1535 
  61   1.0000      -0.502389       -13.6707 
  62   1.0000      -0.498081       -13.5535 
  63   1.0000      -0.481329       -13.0976 
  64   1.0000      -0.478520       -13.0212 
  65   1.0000      -0.450816       -12.2673 
  66   1.0000      -0.447195       -12.1688 
  67   1.0000      -0.444494       -12.0953 
  68   1.0000      -0.428711       -11.6658 
  69   1.0000      -0.425072       -11.5668 
  70   1.0000      -0.410166       -11.1612 
  71   1.0000      -0.365066        -9.9340 
  72   0.0000       0.012095         0.3291 
  73   0.0000       0.022559         0.6139 
  74   0.0000       0.023595         0.6421 
  75   0.0000       0.029933         0.8145 
  76   0.0000       0.038486         1.0473 
  77   0.0000       0.040390         1.0991 
  78   0.0000       0.042346         1.1523 
  79   0.0000       0.043893         1.1944 
  80   0.0000       0.044447         1.2095 
  81   0.0000       0.051314         1.3963 
  82   0.0000       0.056955         1.5498 
  83   0.0000       0.061124         1.6633 
  84   0.0000       0.062433         1.6989 
  85   0.0000       0.063097         1.7170 
  86   0.0000       0.064627         1.7586 
  87   0.0000       0.071252         1.9389 
  88   0.0000       0.077029         2.0961 
  89   0.0000       0.082484         2.2445 
  90   0.0000       0.089388         2.4324 
  91   0.0000       0.091344         2.4856 
  92   0.0000       0.093565         2.5460 
  93   0.0000       0.098422         2.6782 
  94   0.0000       0.101045         2.7496 
  95   0.0000       0.102462         2.7881 
  96   0.0000       0.105387         2.8677 
  97   0.0000       0.108987         2.9657 
  98   0.0000       0.110175         2.9980 
  99   0.0000       0.112320         3.0564 
 100   0.0000       0.114237         3.1085 
 101   0.0000       0.115693         3.1482 
 102   0.0000       0.119294         3.2462 
 103   0.0000       0.122576         3.3355 
 104   0.0000       0.124370         3.3843 
 105   0.0000       0.125175         3.4062 
 106   0.0000       0.127368         3.4659 
 107   0.0000       0.129834         3.5330 
 108   0.0000       0.132860         3.6153 
 109   0.0000       0.134603         3.6627 
 110   0.0000       0.136073         3.7027 
 111   0.0000       0.139099         3.7851 
 112   0.0000       0.145575         3.9613 
 113   0.0000       0.147021         4.0006 
 114   0.0000       0.152913         4.1610 
 115   0.0000       0.153036         4.1643 
 116   0.0000       0.157141         4.2760 
 117   0.0000       0.161419         4.3924 
 118   0.0000       0.162298         4.4163 
 119   0.0000       0.168566         4.5869 
 120   0.0000       0.172425         4.6919 
 121   0.0000       0.172916         4.7053 
 122   0.0000       0.175138         4.7658 
 123   0.0000       0.180949         4.9239 
 124   0.0000       0.182776         4.9736 
 125   0.0000       0.185655         5.0519 
 126   0.0000       0.188189         5.1209 
 127   0.0000       0.191618         5.2142 
 128   0.0000       0.197315         5.3692 
 129   0.0000       0.199235         5.4215 
 130   0.0000       0.200414         5.4535 
 131   0.0000       0.202843         5.5196 
 132   0.0000       0.207297         5.6408 
 133   0.0000       0.210632         5.7316 
 134   0.0000       0.216277         5.8852 
 135   0.0000       0.220014         5.9869 
 136   0.0000       0.225326         6.1314 
 137   0.0000       0.228635         6.2215 
 138   0.0000       0.230842         6.2815 
 139   0.0000       0.234675         6.3858 
 140   0.0000       0.235331         6.4037 
 141   0.0000       0.238466         6.4890 
 142   0.0000       0.241824         6.5804 
 143   0.0000       0.246851         6.7172 
 144   0.0000       0.249308         6.7840 
 145   0.0000       0.251656         6.8479 
 146   0.0000       0.254015         6.9121 
 147   0.0000       0.261298         7.1103 
 148   0.0000       0.264251         7.1906 
 149   0.0000       0.269252         7.3267 
 150   0.0000       0.271221         7.3803 
 151   0.0000       0.275645         7.5007 
 152   0.0000       0.281426         7.6580 
 153   0.0000       0.282007         7.6738 
 154   0.0000       0.286761         7.8032 
 155   0.0000       0.291599         7.9348 
 156   0.0000       0.294394         8.0109 
 157   0.0000       0.297385         8.0923 
 158   0.0000       0.298739         8.1291 
 159   0.0000       0.305528         8.3138 
 160   0.0000       0.310677         8.4540 
 161   0.0000       0.315933         8.5970 
 162   0.0000       0.321430         8.7466 
 163   0.0000       0.323807         8.8112 
 164   0.0000       0.328017         8.9258 
 165   0.0000       0.333394         9.0721 
 166   0.0000       0.336405         9.1541 
 167   0.0000       0.340542         9.2666 
 168   0.0000       0.344620         9.3776 
 169   0.0000       0.345008         9.3882 
 170   0.0000       0.349840         9.5196 
 171   0.0000       0.353316         9.6142 
 172   0.0000       0.358325         9.7505 
 173   0.0000       0.361991         9.8503 
 174   0.0000       0.364218         9.9109 
 175   0.0000       0.367638        10.0039 
 176   0.0000       0.372379        10.1330 
 177   0.0000       0.374505        10.1908 
 178   0.0000       0.379296        10.3212 
 179   0.0000       0.381102        10.3703 
 180   0.0000       0.385352        10.4859 
 181   0.0000       0.387486        10.5440 
 182   0.0000       0.390076        10.6145 
 183   0.0000       0.392546        10.6817 
 184   0.0000       0.393543        10.7089 
 185   0.0000       0.395797        10.7702 
 186   0.0000       0.399333        10.8664 
 187   0.0000       0.402757        10.9596 
 188   0.0000       0.404304        11.0017 
 189   0.0000       0.406652        11.0656 
 190   0.0000       0.415813        11.3148 
 191   0.0000       0.420108        11.4317 
 192   0.0000       0.421723        11.4757 
 193   0.0000       0.428785        11.6678 
 194   0.0000       0.430312        11.7094 
 195   0.0000       0.435117        11.8401 
 196   0.0000       0.437781        11.9126 
 197   0.0000       0.443175        12.0594 
 198   0.0000       0.447394        12.1742 
 199   0.0000       0.448876        12.2146 
 200   0.0000       0.454041        12.3551 
 201   0.0000       0.455833        12.4038 
 202   0.0000       0.458551        12.4778 
 203   0.0000       0.464324        12.6349 
 204   0.0000       0.465783        12.6746 
 205   0.0000       0.468554        12.7500 
 206   0.0000       0.476182        12.9576 
 207   0.0000       0.478893        13.0314 
 208   0.0000       0.483052        13.1445 
 209   0.0000       0.484596        13.1865 
 210   0.0000       0.487548        13.2669 
 211   0.0000       0.491758        13.3814 
 212   0.0000       0.496429        13.5085 
 213   0.0000       0.498638        13.5686 
 214   0.0000       0.501732        13.6528 
 215   0.0000       0.504258        13.7216 
 216   0.0000       0.504789        13.7360 
 217   0.0000       0.509378        13.8609 
 218   0.0000       0.515769        14.0348 
 219   0.0000       0.516314        14.0496 
 220   0.0000       0.520977        14.1765 
 221   0.0000       0.521602        14.1935 
 222   0.0000       0.526025        14.3139 
 223   0.0000       0.527801        14.3622 
 224   0.0000       0.529528        14.4092 
 225   0.0000       0.531504        14.4630 
 226   0.0000       0.537253        14.6194 
 227   0.0000       0.539585        14.6829 
 228   0.0000       0.542045        14.7498 
 229   0.0000       0.544107        14.8059 
 230   0.0000       0.548259        14.9189 
 231   0.0000       0.552824        15.0431 
 232   0.0000       0.557528        15.1711 
 233   0.0000       0.559816        15.2334 
 234   0.0000       0.563331        15.3290 
 235   0.0000       0.566430        15.4133 
 236   0.0000       0.571045        15.5389 
 237   0.0000       0.575296        15.6546 
 238   0.0000       0.580116        15.7858 
 239   0.0000       0.585148        15.9227 
 240   0.0000       0.586947        15.9716 
 241   0.0000       0.589377        16.0378 
 242   0.0000       0.591799        16.1037 
 243   0.0000       0.596190        16.2232 
 244   0.0000       0.599417        16.3110 
 245   0.0000       0.601719        16.3736 
 246   0.0000       0.605072        16.4649 
 247   0.0000       0.614368        16.7178 
 248   0.0000       0.615949        16.7608 
 249   0.0000       0.620919        16.8961 
 250   0.0000       0.623925        16.9779 
 251   0.0000       0.627903        17.0861 
 252   0.0000       0.630600        17.1595 
 253   0.0000       0.635598        17.2955 
 254   0.0000       0.640900        17.4398 
 255   0.0000       0.646760        17.5992 
 256   0.0000       0.648817        17.6552 
 257   0.0000       0.652022        17.7424 
 258   0.0000       0.656046        17.8519 
 259   0.0000       0.659550        17.9473 
 260   0.0000       0.663586        18.0571 
 261   0.0000       0.666677        18.1412 
 262   0.0000       0.671085        18.2611 
 263   0.0000       0.674802        18.3623 
 264   0.0000       0.676636        18.4122 
 265   0.0000       0.683476        18.5983 
 266   0.0000       0.688503        18.7351 
 267   0.0000       0.695798        18.9336 
 268   0.0000       0.697592        18.9824 
 269   0.0000       0.700052        19.0494 
 270   0.0000       0.704336        19.1660 
 271   0.0000       0.713783        19.4230 
 272   0.0000       0.715593        19.4723 
 273   0.0000       0.720575        19.6078 
 274   0.0000       0.723982        19.7006 
 275   0.0000       0.730291        19.8722 
 276   0.0000       0.732760        19.9394 
 277   0.0000       0.735255        20.0073 
 278   0.0000       0.741436        20.1755 
 279   0.0000       0.743869        20.2417 
 280   0.0000       0.748656        20.3720 
 281   0.0000       0.751732        20.4557 
 282   0.0000       0.762180        20.7400 
 283   0.0000       0.766374        20.8541 
[...]
  | sigma^2 in % of trace(Dij) retained ...   9.15e+00
  | sigma^2 in % of trace(Dip) retained ...   1.65e+01
  | sigma^2 in % of trace(Dpq) retained ...   1.36e-01
  | Av. % of trace(Di) retained         ...  99.998545794027
  | Av. % of trace(Dp) retained         ...  99.999999198509
  | sigma^2 in % of trace(Di) retained  ...   6.66e-07
  | sigma^2 in % of trace(Dp) retained  ...   5.83e-13
 Distributions of % trace(Dij) recovered:
  |       >= 99.9  ...   105 ( 21.7 % of all IJ-pairs)
  |   [80.0, 90.0) ...    25 (  5.2 % of all IJ-pairs)
  |   [90.0, 99.0) ...   258 ( 53.3 % of all IJ-pairs)
  |   [99.0, 99.9) ...    96 ( 19.8 % of all IJ-pairs)
 Distributions of % trace(Dip) recovered:
  |   [80.0, 90.0) ...    14 ( 12.3 % of all IP-pairs)
  |   [90.0, 99.0) ...    57 ( 50.0 % of all IP-pairs)
  |   [99.0, 99.9) ...    43 ( 37.7 % of all IP-pairs)
 Distributions of % trace(Dpq) recovered:
  |       >= 99.9  ...     5 ( 33.3 % of all PQ-pairs)
  |   [99.0, 99.9) ...    10 ( 66.7 % of all PQ-pairs)
 Distributions of % trace(Di) recovered :
  |       >= 99.9  ...    43 (100.0 % of all I-pairs )
 Distributions of % trace(Dp) recovered :
  |       >= 99.9  ...     5 (100.0 % of all P-pairs )

                       ===========================
                       1064 OF 1676 PAIRS ARE KEPT
                       ===========================

 Initial PAO correlation energy (all pairs)    ...  -2.6882504233 Eh
 Energy constituents in PAO basis (Eh):
  | Vijab(+0) ...  -2.2608157729
  | Viab (-1) ...  -0.1742855376
  | Vab  (-2) ...  -0.0573413180
  | Va   (-1) ...  -0.0000443413
  | Vija (+1) ...  -0.0716026692
  | Vij  (+2) ...  -0.0155246499
  | Via  (+0) ...  -0.1084738587
  | Vi   (+1) ...  -0.0001622757
 Initial PNO correlation energy                ...  -2.6534846281 Eh
 Energy constituents in PNO basis (Eh):
  | Vijab(+0) ...  -2.2417455571 (err=  0.0190702158)
  | Viab (-1) ...  -0.1602260111 (err=  0.0140595265)
  | Vab  (-2) ...  -0.0568874286 (err=  0.0004538894)
  | Va   (-1) ...  -0.0000257088 (err=  0.0000186325)
  | Vija (+1) ...  -0.0706185053 (err=  0.0009841639)
  | Vij  (+2) ...  -0.0154658065 (err=  0.0000588434)
  | Via  (+0) ...  -0.1083539299 (err=  0.0001199288)
  | Vi   (+1) ...  -0.0001616809 (err=  0.0000005948)
 Sum of total truncation errors ...   0.0347657952 Eh
  | Pair screening ...   0.0122658774 Eh
  | PNO truncation ...   0.0224999178 Eh

 UMP2 correlation energy (PAO) ...  -2.6832373064
  | alpha-alpha ...  -0.3852433589 (NP_aa=  901)
  | alpha-beta  ...  -1.9923458728 (NP_ab= 1651)
  | beta -beta  ...  -0.3056480747 (NP_bb=  717)
 UMP2 correlation energy (PNO) ...  -2.6481012759
  | alpha-alpha ...  -0.3731168375 (err=  0.0121265213, NP_aa=  565)
  | alpha-beta  ...  -1.9735356970 (err=  0.0188101759, NP_ab= 1039)
  | beta -beta  ...  -0.3014487414 (err=  0.0041993333, NP_bb=  441)
 Sum of total UMP2 truncation errors ...   0.0351360305 Eh
  | Pair screening ...   0.0122736736 Eh
  | PNO truncation ...   0.0228623569 Eh
 Timing for NEV-PNO construction (sec.)
  | Intermediate construction  ..           45.757
  | Amplitude construction     ..           64.117
  | Total time                 ..          109.874
 Making pair pair interaction lists ...      ok
 Total size for 2-ext PNO integrals ...     10.7 MB
Checking the number of SOMO/SOMO doubles PNOs ... 
 #Truncate: (72, 72)[169] -> [86] .. 
 #Truncate: (73, 73)[172] -> [86] .. 
 #Truncate: (74, 74)[168] -> [86] .. 
 #Truncate: (75, 75)[168] -> [86] .. 
 #Truncate: (76, 76)[171] -> [86] .. 

--------------------------------
LOCAL RI TRANSFORMATION (VABPAO)
--------------------------------

Number of PAOs:    1030
Basis functions:   1025 (343 shells)
Aux. functions:    2424 (644 shells)

Processing maps (0.0 sec)
Average map sizes:
   Aux shells -> PAOs           1030.0
   PAOs       -> AO shells       343.0

Calculating integrals (226.7 sec, 37370.165 MB)
Finished
-----------------------------
LOCAL RI TRANSFORMATION (IJV)
-----------------------------

Orbital window:      29 to 76
Basis functions:   1025 (343 shells)
Aux. functions:    2424 (644 shells)

Processing maps (0.0 sec)
Average map sizes:
   Aux shells -> MOs(i)           46.4
   Aux shells -> MOs(j)           48.0
   MOs        -> AO shells       339.0

Calculating integrals (28.1 sec, 41.374 MB)
Sorting integrals (0.3 sec, 41.347 MB)
Total time for the integral transformation: 28.5 sec


-------------------------------------
Pair Pair Term precalculation with     
RI-(ij|mn) and (im|jn) transformation  
ON THE FLY                             
-------------------------------------

   IBatch   1 (of   2)              ... done ( 1233.115 sec)
   IBatch   2 (of   2)              ... done ( 1035.217 sec)
Total EXT                           ...        2268.332 sec

---------------------
RI-PNO TRANSFORMATION
---------------------

Total Number of PNOs                   ... 33429
Total Number of IJ-PNOs                ... 29321
Total Number of IP-PNOs                ...  3150
Total Number of PQ-PNOs                ...   958
Total Number of IJ-pairs               ...   925
Total Number of PI-pairs               ...   114
Total Number of PQ-pairs               ...    25
Average number of PNOs per pair        ...    31
Maximal number of PNOs per pair        ...    86
>> Statistics for ij-pairs..
   #pairs with  1 -  5 PNOs   :    0
   #pairs with  6 - 10 PNOs   :    0
   #pairs with 11 - 15 PNOs   :   76
   #pairs with 16 - 20 PNOs   :  200
   #pairs with 21 - 25 PNOs   :  156
   #pairs with 26 - 30 PNOs   :  138
   #pairs with 31 - 35 PNOs   :   60
   #pairs with 36 - 40 PNOs   :   58
   #pairs with 41 - 45 PNOs   :   42
   #pairs with 46 - 50 PNOs   :   28
   #pairs with 51 - 55 PNOs   :   31
   #pairs with 56 - 60 PNOs   :   60
   #pairs with 61 - 65 PNOs   :   71
   #pairs with 66 - 70 PNOs   :    2
   #pairs with 71 - 75 PNOs   :    1
   #pairs with 81 - 85 PNOs   :    2
>> Statistics for ip-pairs..
   #pairs with  1 -  5 PNOs   :    0
   #pairs with  6 - 10 PNOs   :    2
   #pairs with 11 - 15 PNOs   :   12
   #pairs with 16 - 20 PNOs   :    6
   #pairs with 21 - 25 PNOs   :   26
   #pairs with 26 - 30 PNOs   :    9
   #pairs with 31 - 35 PNOs   :   45
   #pairs with 36 - 40 PNOs   :   13
   #pairs with 41 - 45 PNOs   :    1
   #pairs with 46 - 50 PNOs   :    0
>> Statistics for pq-pairs..
   #pairs with  1 -  5 PNOs   :    0
   #pairs with  6 - 10 PNOs   :    0
   #pairs with 11 - 15 PNOs   :    0
   #pairs with 16 - 20 PNOs   :    0
   #pairs with 21 - 25 PNOs   :   10
   #pairs with 26 - 30 PNOs   :   10
   #pairs with 31 - 35 PNOs   :    0
   #pairs with 36 - 40 PNOs   :    0
   #pairs with 41 - 45 PNOs   :    0
   #pairs with 46 - 50 PNOs   :    0
   #pairs with 86 - 90 PNOs   :    5

Generation of (ij|ab)[P] integrals            ... on
Generation of (ia|bc)[P],(ja|bc)[P] integrals ... on
Storage of 3 and 4 external integrals         ... on
Generation of ALL (ka|bc)[P] integrals        ... on
Keep RI integrals in memory                   ... off

Ibatch:  1 (of  1)
Starting 2-4 index PNO integral generation ... done

Timings:
Total PNO integral transformation time     ...       2342.530 sec
Size of the 3-external file                ...       283 MB
Size of the 4-external file                ...      1936 MB
Size of the IKJL file                      ...        17 MB
Size of the all 3-external file            ...      6814 MB
Size of the 1-external file                ...        21 MB

Size of the PAO/PNO coefficient matrices   ...     211.8 MB

Making pair/pair overlap matrices          ... done (  354.797 sec)
Size of the pair overlap file              ...    2331.0 MB
Total # unrestricted pairs ...       2045
  # of alpha-alpha pairs   ...        565
  # of alpha-beta pairs    ...       1039
  # of beta-beta pairs     ...        441
Constructing the guess amplitudes          ... done (    0.656 sec)

-------------------------
FINAL STARTUP INFORMATION
-------------------------

E(0)                                       ...  -3028.452468003
E(SL-UMP2 in NEV-PNO space)                ...     -2.684192947
Initial E(tot)                             ...  -3031.136660950
<T|T>                                      ...      0.534174661
Number of unrestricted pairs included      ... 2045
Total number of pairs                      ... 4095
----------------------------------------------------------
                     OPEN-SHELL COUPLED CLUSTER ITERATIONS
----------------------------------------------------------

Number of PNO amplitudes to be optimized        ...          2068750
Number of canonical amplitudes for strong pairs ...       1847052728
Untruncated number of canonical amplitudes      ...       3698645738

Iter       E(tot)           E(Corr)          Delta-E          Residual     Time
  0  -3031.143863466     -2.655303791      0.028889156      0.020759236 1778.79
                           *** Turning on DIIS ***
  1  -3031.258290173     -2.769730499     -0.114426707      0.009688524 1757.85
  2  -3031.323079796     -2.834520122     -0.064789623      0.008294596 1767.98
  3  -3031.344806339     -2.856246664     -0.021726542      0.003233370 1784.52
  4  -3031.352316257     -2.863756583     -0.007509919      0.002635378 1790.95
  5  -3031.356418838     -2.867859164     -0.004102581      0.001521127 1814.73
  6  -3031.357927843     -2.869368169     -0.001509005      0.000811467 1783.01
  7  -3031.358582058     -2.870022384     -0.000654215      0.000505887 1753.52
  8  -3031.358724787     -2.870165113     -0.000142729      0.000261592 1776.32
  9  -3031.358784444     -2.870224770     -0.000059657      0.000166155 1636.74
 10  -3031.358784044     -2.870224370      0.000000400      0.000103824 1498.41
 11  -3031.358797197     -2.870237523     -0.000013153      0.000063336 1500.24
 12  -3031.358801882     -2.870242208     -0.000004685      0.000029377 1509.00
 13  -3031.358804301     -2.870244627     -0.000002419      0.000018683 1515.13
 14  -3031.358805936     -2.870246262     -0.000001635      0.000007075 1540.87
               --- The CCSD iterations have converged ---

E(0)                                       ...  -3028.452468003
E(CORR)(strong-pairs)                      ...     -2.870246262
E(CORR)(weak-pairs)                        ...     -0.036091671
E(CORR)(corrected)                         ...     -2.906337933
E(TOT)                                     ...  -3031.358805936
Singles norm <S|S>**1/2                    ...      0.194545210 ( 0.064869617, 0.129675593)  
T1 diagnostic                              ...      0.020393879                              
<S**2>(linearized)                         ...      8.7508270 (ideal value:      8.7500000)

----------------------
LARGEST PNO AMPLITUDES
----------------------
  51b-> 76b  -1b-> -1b       0.054294
  49b-> 72b  -1b-> -1b       0.054183
  46a-> 78a  46b-> 78b       0.054023
  52b-> 76b  -1b-> -1b       0.053524
  49b-> 75b  -1b-> -1b       0.047371
  49b-> 74b  -1b-> -1b       0.046013
  62a-> 77a  62b-> 77b       0.044428
  55a-> 77a  55b-> 77b       0.044111
  70a-> 77a  70b-> 77b       0.043644
  46a-> 77a  46b-> 77b       0.043579
  44a-> 77a  44b-> 77b       0.043545
  56a-> 78a  56b-> 78b       0.043443
  38b-> 73b  -1b-> -1b       0.043119
  64a-> 77a  64b-> 77b       0.043045
  36b-> 72b  -1b-> -1b       0.042598
  69a-> 77a  69b-> 77b       0.042487

Total # unrestricted pairs ...       1224
  # of alpha-alpha pairs   ...        336
  # of alpha-beta pairs    ...        612
  # of beta-beta pairs     ...        276

-------------------------------------------
DLPNO BASED TRIPLES CORRECTION
-------------------------------------------

Singles multiplier          ...  1.000000
Fragment selection                          .... not used
TCutTNO                     ... 1.000e-09
TCutMP2Pairs                ... 1.000e-05
TCutDOStrong                ... 2.000e-02
TCutMKNStrong               ... 1.000e-02
TCutDOWeak                  ... 4.000e-02
TCutMKNWeak                 ... 1.000e-01
NTCutTNO                    ... 1

Number of Triples that are to be computed         ...     31938

 . . . . . . . . .
10% done  
20% done  
30% done  
40% done  
50% done  
60% done  
70% done  
80% done  
90% done  
          Batch   1   done (  12814.559 sec)

Triples-Correction TCutTNO=   1.000e-09 (NWeakPairs = 0  1  2  3)  -0.116898047131   -0.001937203773    0.000000000000    0.000000000000
Triples-Correction  -0.118835250903

Triples timings:
Total time                      ... 13365.357 sec

Triples List generation         ...     0.000 sec
TNO generation                  ...   550.569 sec
Pair density generation         ...     0.084 sec
Look up tables                  ...     0.102 sec
Generating 3-index integrals    ...  7818.506 sec
Make 4-ind.int. from 3-ind.int  ...     2.984 sec
Projecting amplitudes (D + S)   ...  4767.439 sec
Sorting integrals for spin cases...    46.080 sec
Calculate W0/W1                 ...   145.426 sec
Energy contr. (sum over a,b,c)  ...    34.005 sec

Everything after 3-index        ...  5103.240 sec

Energy contribution AAA         ...    21.812 sec
Energy contribution AAB         ...    99.917 sec
Energy contribution ABB         ...    91.610 sec
Energy contribution BBB         ...    12.205 sec
prep                ...     2.830 sec
makeTTNO            ...  4718.503 sec
copyij              ...     0.114 sec
copyil              ...     3.627 sec
transposeij         ...     0.069 sec
newMatInDoubleProj  ...    45.090 sec
BlasInDoubleProj    ...  2555.212 sec
ProjSingles         ...    40.120 sec
ProjDoubles         ...  4727.318 sec
overall Doubles for projection      ... 2832754
used Doubles for projection         ... 2832754


Number of Triples   (0, 1, 2, 3 weak pairs; overall):  14877   11532       0       0  ( 26409)
Number of Atoms     (0, 1, 2, 3 weak pairs; overall):   19.1    14.1     0.0     0.0  (    29)
Number of PAOs      (0, 1, 2, 3 weak pairs; overall):  749.3   569.3     0.0     0.0  (  1025)
Number of AuxFcns   (0, 1, 2, 3 weak pairs; overall):  842.8   570.1     0.0     0.0  (  2424)
Number of TNOs (0, 1, 2, 3 weak pairs         ):   79.3    56.6     0.0     0.0
Aver. Number of NTNO, Atoms, PAOs, AuxFcns / Triples:  26409    69.4    17.0   670.7   723.7

Triples Correction (T)                     ...     -0.118835251
    alpha-alpha-alpha ... -0.003822875 (  3.2%)
    alpha-alpha-beta  ... -0.055813681 ( 47.0%)
    alpha-beta -beta  ... -0.055127654 ( 46.4%)
    beta -beta -beta  ... -0.004071040 (  3.4%)
Final correlation energy                   ...     -3.025173184
E(CCSD)                                    ...  -3031.358805936
E(CCSD(T))                                 ...  -3031.477641187

----------------------------
STATISTICS FOR PAIR-ENERGIES
----------------------------
Minimum, maximum and average ratios of UMP and CCSD pair-energies ... 0.48, 1.44, 1.02


------------------------------------------------------------------------------- 
                                     TIMINGS                                   
------------------------------------------------------------------------------- 


Total execution time                   ...    47545.708 sec

Localization of occupied MO's          ...       10.790 sec (  0.0%)
Fock Matrix Formation                  ...     1572.384 sec (  3.3%)
Differential overlap integrals         ...        1.915 sec (  0.0%)
Organizing maps                        ...        1.784 sec (  0.0%)
RI 3-index integral generations        ...      328.290 sec (  0.7%)
RI-PNO integral transformation         ...     5234.075 sec ( 11.0%)
Initial Guess                          ...     2002.968 sec (  4.2%)
DIIS Solver                            ...       15.430 sec (  0.0%)
State Vector Update                    ...        0.702 sec (  0.0%)
Sigma-vector construction              ...    25208.074 sec ( 53.0%)
  <0|H|D>                              ...        0.029 sec (  0.0% of sigma)
  <D|H|D>(0-ext)                       ...     4467.616 sec ( 17.7% of sigma)
  <D|H|D>(2-ext Fock)                  ...        1.148 sec (  0.0% of sigma)
  <D|H|D>(2-ext)                       ...     3840.261 sec ( 15.2% of sigma)
  <D|H|D>(4-ext)                       ...      141.625 sec (  0.6% of sigma)
  <D|H|D>(4-ext-corr)                  ...      879.176 sec (  3.5% of sigma)
  CCSD doubles correction              ...      413.130 sec (  1.6% of sigma)
  <S|H|S>                              ...      607.721 sec (  2.4% of sigma)
  <S|H|D>(1-ext)                       ...      243.980 sec (  1.0% of sigma)
  <D|H|S>(1-ext)                       ...        0.825 sec (  0.0% of sigma)
  <S|H|D>(3-ext)                       ...       20.370 sec (  0.1% of sigma)
  CCSD singles correction              ...        0.004 sec (  0.0% of sigma)
  Fock-dressing                        ...     7142.599 sec ( 28.3% of sigma)
  Singles amplitudes                   ...      103.829 sec (  0.4% of sigma)
  (ik|jl)-dressing                     ...     5775.577 sec ( 22.9% of sigma)
  (ij|ab),(ia|jb)-dressing             ...     1251.637 sec (  5.0% of sigma)
  Pair energies                        ...        0.124 sec (  0.0% of sigma)
Total Time for computing (T)           ...    13564.621 sec ( 28.5% of ALL)


-------------------------   --------------------
FINAL SINGLE POINT ENERGY     -3031.477641186640
-------------------------   --------------------


                            ***************************************
                            *     ORCA property calculations      *
                            ***************************************

                                    ---------------------
                                    Active property flags
                                    ---------------------
   (+) Dipole Moment


------------------------------------------------------------------------------
                       ORCA ELECTRIC PROPERTIES CALCULATION
------------------------------------------------------------------------------

Dipole Moment Calculation                       ... on
Quadrupole Moment Calculation                   ... off
Polarizability Calculation                      ... off
GBWName                                         ... simple-grid-240-285-b3lyp_d3bj-631gd-gas-singlepoint-DLPNO_CCSD_T1-NormalPNO-augtz-gas.gbw
Electron density file                           ... simple-grid-240-285-b3lyp_d3bj-631gd-gas-singlepoint-DLPNO_CCSD_T1-NormalPNO-augtz-gas.scfp.tmp
The origin for moment calculation is the CENTER OF MASS  = ( 0.314520,  0.042434  0.011769)

-------------
DIPOLE MOMENT
-------------
                                X             Y             Z
Electronic contribution:     43.16710       5.12246       1.17321
Nuclear contribution   :    -46.86357      -6.32270      -1.75367
                        -----------------------------------------
Total Dipole Moment    :     -3.69646      -1.20024      -0.58046
                        -----------------------------------------
Magnitude (a.u.)       :      3.92955
Magnitude (Debye)      :      9.98812



--------------------
Rotational spectrum 
--------------------
 
Rotational constants in cm-1:     0.019050     0.010790     0.010154 
Rotational constants in MHz :   571.115497   323.461710   304.417016 

 Dipole components along the rotational axes: 
x,y,z [a.u.] :    -3.691117     1.192683    -0.628106 
x,y,z [Debye]:    -9.382074     3.031559    -1.596519 

 

Timings for individual modules:

Sum of individual times         ...    64105.717 sec (=1068.429 min)
GTO integral calculation        ...       11.983 sec (=   0.200 min)   0.0 %
SCF iterations                  ...    16530.038 sec (= 275.501 min)  25.8 %
MDCI module                     ...    47563.697 sec (= 792.728 min)  74.2 %
                             ****ORCA TERMINATED NORMALLY****
TOTAL RUN TIME: 0 days 17 hours 48 minutes 28 seconds 383 msec
