
                                 *****************
                                 * O   R   C   A *
                                 *****************

           --- An Ab Initio, DFT and Semiempirical electronic structure package ---

                  #######################################################
                  #                        -***-                        #
                  #          Department of theory and spectroscopy      #
                  #               Directorship: Frank Neese             #
                  #        Max Planck Institute fuer Kohlenforschung    #
                  #                Kaiser Wilhelm Platz 1               #
                  #                 D-45470 Muelheim/Ruhr               #
                  #                      Germany                        #
                  #                                                     #
                  #                  All rights reserved                #
                  #                        -***-                        #
                  #######################################################


                         Program Version 4.1.2  - RELEASE  -


 With contributions from (in alphabetic order):
   Daniel Aravena         : Magnetic Properties
   Michael Atanasov       : Ab Initio Ligand Field Theory
   Alexander A. Auer      : GIAO ZORA
   Ute Becker             : Parallelization
   Giovanni Bistoni       : ED, Open-shell LED
   Martin Brehm           : Molecular dynamics
   Dmytro Bykov           : SCF Hessian
   Vijay G. Chilkuri      : MRCI spin determinant printing
   Dipayan Datta          : RHF DLPNO-CCSD density
   Achintya Kumar Dutta   : EOM-CC, STEOM-CC
   Dmitry Ganyushin       : Spin-Orbit,Spin-Spin,Magnetic field MRCI
   Miquel Garcia          : C-PCM Hessian
   Yang Guo               : DLPNO-NEVPT2, CIM, IAO-localization
   Andreas Hansen         : Spin unrestricted coupled pair/coupled cluster methods
   Benjamin Helmich-Paris : CASSCF linear response (MC-RPA)
   Lee Huntington         : MR-EOM, pCC
   Robert Izsak           : Overlap fitted RIJCOSX, COSX-SCS-MP3, EOM
   Christian Kollmar      : KDIIS, OOCD, Brueckner-CCSD(T), CCSD density
   Simone Kossmann        : Meta GGA functionals, TD-DFT gradient, OOMP2, MP2 Hessian
   Martin Krupicka        : AUTO-CI
   Lucas Lang             : DCDCAS
   Dagmar Lenk            : GEPOL surface, SMD
   Dimitrios Liakos       : Extrapolation schemes; parallel MDCI
   Dimitrios Manganas     : ROCIS; embedding schemes
   Dimitrios Pantazis     : SARC Basis sets
   Taras Petrenko         : DFT Hessian,TD-DFT gradient, ASA, ECA, R-Raman, ABS, FL, XAS/XES, NRVS
   Peter Pinski           : DLPNO-MP2, DLPNO-MP2 Gradient
   Christoph Reimann      : Effective Core Potentials
   Marius Retegan         : Local ZFS, SOC
   Christoph Riplinger    : Optimizer, TS searches, QM/MM, DLPNO-CCSD(T), (RO)-DLPNO pert. Triples
   Tobias Risthaus        : Range-separated hybrids, TD-DFT gradient, RPA, STAB
   Michael Roemelt        : Restricted open shell CIS
   Masaaki Saitow         : Open-shell DLPNO
   Barbara Sandhoefer     : DKH picture change effects
   Avijit Sen             : IP-ROCIS
   Kantharuban Sivalingam : CASSCF convergence, NEVPT2, FIC-MRCI
   Bernardo de Souza      : ESD, SOC TD-DFT
   Georgi Stoychev        : AutoAux, RI-MP2 NMR
   Willem Van den Heuvel  : Paramagnetic NMR
   Boris Wezisla          : Elementary symmetry handling
   Frank Wennmohs         : Technical directorship


 We gratefully acknowledge several colleagues who have allowed us to
 interface, adapt or use parts of their codes:
   Stefan Grimme, W. Hujo, H. Kruse,             : VdW corrections, initial TS optimization,
                  C. Bannwarth                     DFT functionals, gCP, sTDA/sTD-DF
   Ed Valeev                                     : LibInt (2-el integral package), F12 methods
   Garnet Chan, S. Sharma, J. Yang, R. Olivares  : DMRG
   Ulf Ekstrom                                   : XCFun DFT Library
   Mihaly Kallay                                 : mrcc  (arbitrary order and MRCC methods)
   Andreas Klamt, Michael Diedenhofen            : otool_cosmo (COSMO solvation model)
   Jiri Pittner, Ondrej Demel                    : Mk-CCSD
   Frank Weinhold                                : gennbo (NPA and NBO analysis)
   Christopher J. Cramer and Donald G. Truhlar   : smd solvation model
   Lars Goerigk                                  : TD-DFT with DH, B97 family of functionals
   V. Asgeirsson, H. Jonsson                     : NEB implementation
   FAccTs GmbH                                   : IRC, NEB, NEB-TS, Multilevel


 Your calculation uses the libint2 library for the computation of 2-el integrals
 For citations please refer to: http://libint.valeyev.net

 This ORCA versions uses:
   CBLAS   interface :  Fast vector & matrix operations
   LAPACKE interface :  Fast linear algebra routines
   SCALAPACK package :  Parallel linear algebra routines


----- Orbital basis set information -----
Your calculation utilizes the basis: aug-cc-pVTZ 
    H, B-Ne : Obtained from the ccRepo (grant-hill.group.shef.ac.uk/ccrepo) Feb. 2017
              R. A. Kendall, T. H. Dunning, Jr., R. J. Harrison, J. Chem. Phys. 96, 6796 (1992)
         He : Obtained from the ccRepo (grant-hill.group.shef.ac.uk/ccrepo) Feb. 2017
              D. E. Woon, T. H. Dunning, Jr., J. Chem. Phys. 100, 2975 (1994)
  Li-Be, Na : Obtained from the ccRepo (grant-hill.group.shef.ac.uk/ccrepo) Feb. 2017
              B. P. Prascher, D. E. Woon, K. A. Peterson, T. H. Dunning, Jr., A. K. Wilson, Theor. Chem. Acc. 128, 69 (2011)
         Mg : Obtained from the Peterson Research Group Website (tyr0.chem.wsu.edu/~kipeters) Feb. 2017
              B. P. Prascher, D. E. Woon, K. A. Peterson, T. H. Dunning, Jr., A. K. Wilson, Theor. Chem. Acc. 128, 69 (2011)
      Al-Ar : Obtained from the ccRepo (grant-hill.group.shef.ac.uk/ccrepo) Feb. 2017
              D. E. Woon, T. H. Dunning, Jr., J. Chem. Phys. 98, 1358 (1993)
      Sc-Zn : Obtained from the ccRepo (grant-hill.group.shef.ac.uk/ccrepo) Feb. 2017
              N. B. Balabanov, K. A. Peterson, J. Chem. Phys. 123, 064107 (2005)
              N. B. Balabanov, K. A. Peterson, J. Chem. Phys. 125, 074110 (2006)
      Ga-Kr : Obtained from the ccRepo (grant-hill.group.shef.ac.uk/ccrepo) Feb. 2017
              A. K. Wilson, D. E. Woon, K. A. Peterson, T. H. Dunning, Jr., J. Chem. Phys. 110, 7667 (1999)
     Ag, Au : Obtained from the Peterson Research Group Website (tyr0.chem.wsu.edu/~kipeters) Feb. 2017
              K. A. Peterson, C. Puzzarini, Theor. Chem. Acc. 114, 283 (2005)

----- AuxJ basis set information -----
Your calculation utilizes the AutoAux generation procedure.
  G. L. Stoychev, A. A. Auer, F. Neese, J. Chem. Theory Comput. 13, 554 (2017)

----- AuxC basis set information -----
Your calculation utilizes the auxiliary basis: aug-cc-pVTZ/C 
  H-He, B-F, Al-Ar, Ga-Kr : Obtained from the EMSL Basis Set Exchange (bse.pnl.gov) Feb. 2017
                            F. Weigend, A. Kohn, C. Hattig, J. Chem. Phys. 116, 3175 (2002)
                   Be, Mg : Obtained from the TURBOMOLE 7.0 basis set library
                            C. Haettig, Phys. Chem. Chem. Phys. 7, 59 (2005)
                       Ne : Obtained from the EMSL Basis Set Exchange (bse.pnl.gov) Feb. 2017
                            C. Haettig, Phys. Chem. Chem. Phys. 7, 59 (2005)
                            F. Weigend, A. Kohn, C. Hattig, J. Chem. Phys. 116, 3175 (2002)
                    Sc-Zn : Obtained from the EMSL Basis Set Exchange (bse.pnl.gov) Feb. 2017
                            J. G. Hill, J. A. Platts, J. Chem. Phys. 128, 044104 (2008)

----- AuxJK basis set information -----
Your calculation utilizes the AutoAux generation procedure.
  G. L. Stoychev, A. A. Auer, F. Neese, J. Chem. Theory Comput. 13, 554 (2017)

================================================================================
                                        WARNINGS
                       Please study these warnings very carefully!
================================================================================


WARNING: your system is open-shell and RHF/RKS was chosen
  ===> : WILL SWITCH to UHF/UKS


WARNING: MDCI localization with Augmented Hessian Foster-Boys
  ===> : Switching off randomization!

WARNING: Post HF methods need fully converged wavefunctions
  ===> : Setting SCFConvForced true
         You can overwrite this default with %scf ConvForced false 


INFO   : the flag for use of LIBINT has been found!

================================================================================
                                       INPUT FILE
================================================================================
NAME = simple-grid-180-295-b3lyp_d3bj-631gd-gas-singlepoint-DLPNO_CCSD_T1-NormalPNO-augtz-gas.inp
|  1> ! aug-cc-pVTZ aug-cc-pVTZ/C DLPNO-CCSD(T1) TightSCF NormalPNO UNO MiniPrint AutoAux
|  2> %pal nproc 10 end
|  3> %maxcore 20000
|  4> %mdci
|  5>      density none
|  6> end
|  7> 
|  8> * xyz 0 6
|  9>  O     -0.29253500     -0.11203600     -0.41489900
| 10>  C     -1.21772200     -1.03994700     -0.17119100
| 11>  C     -2.52996700     -0.29621500      0.81109100
| 12>  C     -3.12159000      0.64766600     -0.06591400
| 13>  C     -4.31086300      0.31764000     -0.89071600
| 14> Fe      1.53972300      0.16802800     -0.10205800
| 15> Cl      1.89236500      2.14215600     -1.00451300
| 16>  C     -2.43617100      1.92931000     -0.28794200
| 17> Cl      2.53113500     -1.53752400     -1.08017500
| 18> Cl      1.86767400      0.17970000      2.08558200
| 19>  H     -3.17762300     -1.15663800      0.98954300
| 20>  H     -2.92993500      2.57872500     -1.01236700
| 21>  H     -2.24605300      2.46922000      0.64609000
| 22>  H     -1.41981400      1.64641200     -0.64909900
| 23>  H     -5.13631600      0.96802600     -0.56222300
| 24>  H     -4.13990200      0.56197800     -1.94660400
| 25>  H     -4.62862700     -0.72149300     -0.79186600
| 26>  C     -1.86973000      0.24567700      2.08199000
| 27>  H     -2.53901200      0.94902100      2.58815700
| 28>  H     -1.65928400     -0.56829400      2.77651600
| 29>  H     -0.92648100      0.74949900      1.86604900
| 30>  C     -0.73708000     -2.16796500      0.75216800
| 31>  H     -1.54831500     -2.84442400      1.03481700
| 32>  H      0.01011200     -2.73228400      0.18260900
| 33>  H     -0.24408600     -1.77992500      1.64347800
| 34>  C     -1.81723800     -1.59002200     -1.46550300
| 35>  H     -1.04082600     -2.18579800     -1.95605700
| 36>  H     -2.68430300     -2.23319100     -1.28494100
| 37>  H     -2.08986400     -0.78378300     -2.15049000
| 38> *
| 39> 
| 40> 
| 41>                          ****END OF INPUT****
================================================================================

                       ****************************
                       * Single Point Calculation *
                       ****************************

---------------------------------
CARTESIAN COORDINATES (ANGSTROEM)
---------------------------------
  O     -0.292535   -0.112036   -0.414899
  C     -1.217722   -1.039947   -0.171191
  C     -2.529967   -0.296215    0.811091
  C     -3.121590    0.647666   -0.065914
  C     -4.310863    0.317640   -0.890716
  Fe     1.539723    0.168028   -0.102058
  Cl     1.892365    2.142156   -1.004513
  C     -2.436171    1.929310   -0.287942
  Cl     2.531135   -1.537524   -1.080175
  Cl     1.867674    0.179700    2.085582
  H     -3.177623   -1.156638    0.989543
  H     -2.929935    2.578725   -1.012367
  H     -2.246053    2.469220    0.646090
  H     -1.419814    1.646412   -0.649099
  H     -5.136316    0.968026   -0.562223
  H     -4.139902    0.561978   -1.946604
  H     -4.628627   -0.721493   -0.791866
  C     -1.869730    0.245677    2.081990
  H     -2.539012    0.949021    2.588157
  H     -1.659284   -0.568294    2.776516
  H     -0.926481    0.749499    1.866049
  C     -0.737080   -2.167965    0.752168
  H     -1.548315   -2.844424    1.034817
  H      0.010112   -2.732284    0.182609
  H     -0.244086   -1.779925    1.643478
  C     -1.817238   -1.590022   -1.465503
  H     -1.040826   -2.185798   -1.956057
  H     -2.684303   -2.233191   -1.284941
  H     -2.089864   -0.783783   -2.150490

----------------------------
CARTESIAN COORDINATES (A.U.)
----------------------------
  NO LB      ZA    FRAG     MASS         X           Y           Z
   0 O     8.0000    0    15.999   -0.552811   -0.211717   -0.784045
   1 C     6.0000    0    12.011   -2.301161   -1.965215   -0.323504
   2 C     6.0000    0    12.011   -4.780945   -0.559765    1.532740
   3 C     6.0000    0    12.011   -5.898950    1.223911   -0.124559
   4 C     6.0000    0    12.011   -8.146350    0.600253   -1.683209
   5 Fe   26.0000    0    55.850    2.909655    0.317527   -0.192862
   6 Cl   17.0000    0    35.453    3.576052    4.048088   -1.898254
   7 C     6.0000    0    12.011   -4.603696    3.645868   -0.544132
   8 Cl   17.0000    0    35.453    4.783152   -2.905499   -2.041235
   9 Cl   17.0000    0    35.453    3.529392    0.339584    3.941179
  10 H     1.0000    0     1.008   -6.004837   -2.185729    1.869965
  11 H     1.0000    0     1.008   -5.536775    4.873084   -1.913096
  12 H     1.0000    0     1.008   -4.244425    4.666150    1.220933
  13 H     1.0000    0     1.008   -2.683060    3.111268   -1.226619
  14 H     1.0000    0     1.008   -9.706231    1.829304   -1.062447
  15 H     1.0000    0     1.008   -7.823281    1.061985   -3.678548
  16 H     1.0000    0     1.008   -8.746837   -1.363424   -1.496410
  17 C     6.0000    0    12.011   -3.533278    0.464262    3.934391
  18 H     1.0000    0     1.008   -4.798037    1.793390    4.890908
  19 H     1.0000    0     1.008   -3.135592   -1.073920    5.246855
  20 H     1.0000    0     1.008   -1.750795    1.416348    3.526322
  21 C     6.0000    0    12.011   -1.392879   -4.096860    1.421392
  22 H     1.0000    0     1.008   -2.925891   -5.375182    1.955521
  23 H     1.0000    0     1.008    0.019109   -5.163268    0.345081
  24 H     1.0000    0     1.008   -0.461256   -3.363571    3.105723
  25 C     6.0000    0    12.011   -3.434082   -3.004706   -2.769399
  26 H     1.0000    0     1.008   -1.966876   -4.130560   -3.696412
  27 H     1.0000    0     1.008   -5.072598   -4.220119   -2.428187
  28 H     1.0000    0     1.008   -3.949271   -1.481135   -4.063837



           ************************************************************
           *        Program running with 10 parallel MPI-processes    *
           *              working on a common directory               *
           ************************************************************


           ************************************************************
           *        Program running with 10 parallel MPI-processes    *
           *              working on a common directory               *
           ************************************************************

Diagonalization of the overlap matrix:
Smallest eigenvalue                        ... 6.787e-07
Time for diagonalization                   ...    0.331 sec
Threshold for overlap eigenvalues          ... 1.000e-08
Number of eigenvalues below threshold      ... 0
Time for construction of square roots      ...    0.273 sec
Total time needed                          ...    0.610 sec

-------------------
DFT GRID GENERATION
-------------------

General Integration Accuracy     IntAcc      ...  4.340
Radial Grid Type                 RadialGrid  ... Gauss-Chebyshev
Angular Grid (max. acc.)         AngularGrid ... Lebedev-110
Angular grid pruning method      GridPruning ... 3 (G Style)
Weight generation scheme         WeightScheme... Becke
Basis function cutoff            BFCut       ...    1.0000e-11
Integration weight cutoff        WCut        ...    1.0000e-14
Grids for H and He will be reduced by one unit

# of grid points (after initial pruning)     ...  36112 (   0.0 sec)
# of grid points (after weights+screening)   ...  32351 (   0.1 sec)
nearest neighbour list constructed           ...    0.0 sec
Grid point re-assignment to atoms done       ...    0.0 sec
Grid point division into batches done        ...    0.0 sec
Reduced shell lists constructed in    0.2 sec

Total number of grid points                  ...    32351
Total number of batches                      ...      523
Average number of points per batch           ...       61
Average number of grid points per atom       ...     1116
Average number of shells per batch           ...   293.35 (85.53%)
Average number of basis functions per batch  ...   870.76 (84.95%)
Average number of large shells per batch     ...   240.59 (82.02%)
Average number of large basis fcns per batch ...   713.33 (81.92%)
Maximum spatial batch extension              ...   2.79,  3.44,  3.37 au
Average spatial batch extension              ...   0.18,  0.17,  0.17 au

Time for grid setup =    0.361 sec

Loading Hartree-Fock densities                     ... done
Calculating cut-offs                               ... done
Setting up the integral package                    ... done
Initializing the effective Hamiltonian             ... done
Starting the Coulomb interaction                   ... done (   1.1 sec)
Reading the grid                                   ... done
Mapping shells                                     ... done
Starting the XC term evaluation                    ... done (   0.9 sec)
Transforming the Hamiltonian                       ... done (   0.2 sec)
Diagonalizing the Hamiltonian                      ... done (   0.3 sec)
Back transforming the eigenvectors                 ... done (   0.1 sec)
Now organizing SCF variables                       ... done
--------------
SCF ITERATIONS
--------------
ITER       Energy         Delta-E        Max-DP      RMS-DP      [F,P]     Damp
               ***  Starting incremental Fock matrix formation  ***
  0  -3027.5484577281   0.000000000000 0.30203423  0.00105800  0.2813015 0.7000
  1  -3027.8015842470  -0.253126518867 0.23082932  0.00083472  0.1637159 0.7000
                               ***Turning on DIIS***
  2  -3027.9712744604  -0.169690213457 0.16364716  0.00061654  0.1098301 0.7000
  3  -3029.6068941096  -1.635619649135 0.35652472  0.00154513  0.0824159 0.0000
  4  -3028.2876623177   1.319231791868 0.04848188  0.00021748  0.0204855 0.0000
  5  -3028.4019205973  -0.114258279574 0.04054223  0.00017140  0.0116519 0.0000
  6  -3028.4372483780  -0.035327780753 0.02166014  0.00007218  0.0057346 0.0000
  7  -3028.4578606191  -0.020612241025 0.00934004  0.00003462  0.0034208 0.0000
  8  -3028.4493777064   0.008482912673 0.00587422  0.00001946  0.0014845 0.0000
  9  -3028.4424331579   0.006944548471 0.00312714  0.00001207  0.0006999 0.0000
 10  -3028.4328431009   0.009590057059 0.00080802  0.00000388  0.0003377 0.0000
 11  -3028.4368162535  -0.003973152631 0.00044000  0.00000283  0.0001223 0.0000
 12  -3028.4332352181   0.003581035382 0.00036492  0.00000260  0.0000347 0.0000
 13  -3028.4338881250  -0.000652906911 0.00111008  0.00000233  0.0000151 0.0000
 14  -3028.4340034514  -0.000115326397 0.00039380  0.00000217  0.0000110 0.0000
 15  -3028.4339187839   0.000084667554 0.00163830  0.00000348  0.0000095 0.0000
 16  -3028.4339828762  -0.000064092323 0.00020971  0.00000250  0.0000079 0.0000
 17  -3028.4339354699   0.000047406298 0.00278635  0.00000519  0.0000063 0.0000
 18  -3028.4339562579  -0.000020788048 0.00069189  0.00000328  0.0000043 0.0000
 19  -3028.4340016379  -0.000045379976 0.00073280  0.00000180  0.0000024 0.0000
               *** Restarting incremental Fock matrix formation ***
                                   *** Resetting DIIS ***
 20  -3028.4340128052  -0.000011167299 0.00563609  0.00001106  0.0000015 0.0000
 21  -3028.4340122798   0.000000525377 0.00136266  0.00000271  0.0000013 0.0000
 22  -3028.4340093709   0.000002908950 0.00284661  0.00000514  0.0000012 0.0000
                            ***DIIS convergence achieved***

               *****************************************************
               *                     SUCCESS                       *
               *           SCF CONVERGED AFTER  23 CYCLES          *
               *****************************************************

Total Energy       :        -3028.43401236 Eh          -82407.87901 eV
  Last Energy change         ...   -2.9848e-06  Tolerance :   1.0000e-08
  Last MAX-Density change    ...    9.7487e-04  Tolerance :   1.0000e-07
             **** THE GBW FILE WAS UPDATED (simple-grid-180-295-b3lyp_d3bj-631gd-gas-singlepoint-DLPNO_CCSD_T1-NormalPNO-augtz-gas.gbw) ****
             **** DENSITY FILE WAS UPDATED (simple-grid-180-295-b3lyp_d3bj-631gd-gas-singlepoint-DLPNO_CCSD_T1-NormalPNO-augtz-gas.scfp.tmp) ****
             **** ENERGY FILE WAS UPDATED (simple-grid-180-295-b3lyp_d3bj-631gd-gas-singlepoint-DLPNO_CCSD_T1-NormalPNO-augtz-gas.en.tmp) ****
----------------------
UHF SPIN CONTAMINATION
----------------------

Expectation value of <S**2>     :     8.764457
Ideal value S*(S+1) for S=2.5   :     8.750000
Deviation                       :     0.014457

----------------
ORBITAL ENERGIES
----------------
                 SPIN UP ORBITALS
  NO   OCC          E(Eh)            E(eV) 
   0   1.0000    -261.541233     -7116.8988 
   1   1.0000    -104.768009     -2850.8825 
   2   1.0000    -104.766026     -2850.8285 
   3   1.0000    -104.764813     -2850.7955 
   4   1.0000     -32.209139      -876.4552 
   5   1.0000     -27.685120      -753.3504 
   6   1.0000     -27.684766      -753.3408 
   7   1.0000     -27.684596      -753.3361 
   8   1.0000     -20.545177      -559.0627 
   9   1.0000     -11.389298      -309.9186 
  10   1.0000     -11.363649      -309.2206 
  11   1.0000     -11.304232      -307.6038 
  12   1.0000     -11.287945      -307.1606 
  13   1.0000     -11.279843      -306.9401 
  14   1.0000     -11.252989      -306.2094 
  15   1.0000     -11.249578      -306.1166 
  16   1.0000     -11.239141      -305.8326 
  17   1.0000     -10.494654      -285.5741 
  18   1.0000     -10.492622      -285.5188 
  19   1.0000     -10.491442      -285.4866 
  20   1.0000      -7.961524      -216.6441 
  21   1.0000      -7.960710      -216.6219 
  22   1.0000      -7.960659      -216.6205 
  23   1.0000      -7.959441      -216.5874 
  24   1.0000      -7.958738      -216.5683 
  25   1.0000      -7.958637      -216.5655 
  26   1.0000      -7.958304      -216.5565 
  27   1.0000      -7.957537      -216.5356 
  28   1.0000      -7.957453      -216.5333 
  29   1.0000      -4.564548      -124.2077 
  30   1.0000      -3.177163       -86.4550 
  31   1.0000      -3.176589       -86.4394 
  32   1.0000      -3.176134       -86.4270 
  33   1.0000      -1.378504       -37.5110 
  34   1.0000      -1.197325       -32.5809 
  35   1.0000      -1.082362       -29.4526 
  36   1.0000      -1.047042       -28.4915 
  37   1.0000      -1.039065       -28.2744 
  38   1.0000      -1.033776       -28.1305 
  39   1.0000      -1.031710       -28.0743 
  40   1.0000      -1.020138       -27.7594 
  41   1.0000      -0.972485       -26.4626 
  42   1.0000      -0.930741       -25.3268 
  43   1.0000      -0.908006       -24.7081 
  44   1.0000      -0.894007       -24.3272 
  45   1.0000      -0.893989       -24.3267 
  46   1.0000      -0.885191       -24.0873 
  47   1.0000      -0.884790       -24.0763 
  48   1.0000      -0.796952       -21.6862 
  49   1.0000      -0.768989       -20.9253 
  50   1.0000      -0.709430       -19.3046 
  51   1.0000      -0.694698       -18.9037 
  52   1.0000      -0.673006       -18.3134 
  53   1.0000      -0.654691       -17.8150 
  54   1.0000      -0.650072       -17.6894 
  55   1.0000      -0.636501       -17.3201 
  56   1.0000      -0.607554       -16.5324 
  57   1.0000      -0.603253       -16.4153 
  58   1.0000      -0.591037       -16.0829 
  59   1.0000      -0.583629       -15.8814 
  60   1.0000      -0.577914       -15.7258 
  61   1.0000      -0.562932       -15.3182 
  62   1.0000      -0.556249       -15.1363 
  63   1.0000      -0.539639       -14.6843 
  64   1.0000      -0.534344       -14.5402 
  65   1.0000      -0.520384       -14.1604 
  66   1.0000      -0.502666       -13.6782 
  67   1.0000      -0.465151       -12.6574 
  68   1.0000      -0.456074       -12.4104 
  69   1.0000      -0.441434       -12.0120 
  70   1.0000      -0.424510       -11.5515 
  71   1.0000      -0.418986       -11.4012 
  72   1.0000      -0.414786       -11.2869 
  73   1.0000      -0.407083       -11.0773 
  74   1.0000      -0.405056       -11.0221 
  75   1.0000      -0.404369       -11.0034 
  76   1.0000      -0.402304       -10.9472 
  77   0.0000      -0.001960        -0.0533 
  78   0.0000       0.001423         0.0387 
  79   0.0000       0.016856         0.4587 
  80   0.0000       0.017774         0.4836 
  81   0.0000       0.026776         0.7286 
  82   0.0000       0.037031         1.0077 
  83   0.0000       0.038117         1.0372 
  84   0.0000       0.040789         1.1099 
  85   0.0000       0.043630         1.1872 
  86   0.0000       0.048891         1.3304 
  87   0.0000       0.056699         1.5428 
  88   0.0000       0.058157         1.5825 
  89   0.0000       0.059701         1.6245 
  90   0.0000       0.062009         1.6873 
  91   0.0000       0.065489         1.7820 
  92   0.0000       0.072041         1.9603 
  93   0.0000       0.074715         2.0331 
  94   0.0000       0.081542         2.2189 
  95   0.0000       0.084634         2.3030 
  96   0.0000       0.088284         2.4023 
  97   0.0000       0.091079         2.4784 
  98   0.0000       0.092656         2.5213 
  99   0.0000       0.096439         2.6242 
 100   0.0000       0.101201         2.7538 
 101   0.0000       0.104406         2.8410 
 102   0.0000       0.113734         3.0949 
 103   0.0000       0.115022         3.1299 
 104   0.0000       0.119587         3.2541 
 105   0.0000       0.123131         3.3506 
 106   0.0000       0.128332         3.4921 
 107   0.0000       0.130231         3.5438 
 108   0.0000       0.132019         3.5924 
 109   0.0000       0.134418         3.6577 
 110   0.0000       0.140885         3.8337 
 111   0.0000       0.142901         3.8885 
 112   0.0000       0.145666         3.9638 
 113   0.0000       0.149977         4.0811 
 114   0.0000       0.151562         4.1242 
 115   0.0000       0.155572         4.2333 
 116   0.0000       0.156768         4.2659 
 117   0.0000       0.158669         4.3176 
 118   0.0000       0.160137         4.3576 
 119   0.0000       0.162677         4.4267 
 120   0.0000       0.162727         4.4280 
 121   0.0000       0.168728         4.5913 
 122   0.0000       0.175929         4.7873 
 123   0.0000       0.177040         4.8175 
 124   0.0000       0.177424         4.8279 
 125   0.0000       0.184920         5.0319 
 126   0.0000       0.187927         5.1137 
 127   0.0000       0.190569         5.1856 
 128   0.0000       0.194890         5.3032 
 129   0.0000       0.202371         5.5068 
 130   0.0000       0.203001         5.5240 
 131   0.0000       0.207762         5.6535 
 132   0.0000       0.213120         5.7993 
 133   0.0000       0.215975         5.8770 
 134   0.0000       0.217469         5.9176 
 135   0.0000       0.219566         5.9747 
 136   0.0000       0.220950         6.0124 
 137   0.0000       0.224981         6.1221 
 138   0.0000       0.227975         6.2035 
 139   0.0000       0.228802         6.2260 
 140   0.0000       0.234507         6.3813 
 141   0.0000       0.238800         6.4981 
 142   0.0000       0.242260         6.5922 
 143   0.0000       0.244292         6.6475 
 144   0.0000       0.245642         6.6842 
 145   0.0000       0.251698         6.8491 
 146   0.0000       0.254534         6.9262 
 147   0.0000       0.255544         6.9537 
 148   0.0000       0.262076         7.1315 
 149   0.0000       0.263460         7.1691 
 150   0.0000       0.268432         7.3044 
 151   0.0000       0.275668         7.5013 
 152   0.0000       0.280543         7.6340 
 153   0.0000       0.282575         7.6893 
 154   0.0000       0.284152         7.7322 
 155   0.0000       0.290497         7.9048 
 156   0.0000       0.292919         7.9707 
 157   0.0000       0.298011         8.1093 
 158   0.0000       0.300877         8.1873 
 159   0.0000       0.304434         8.2841 
 160   0.0000       0.308034         8.3820 
 161   0.0000       0.310723         8.4552 
 162   0.0000       0.314124         8.5478 
 163   0.0000       0.320491         8.7210 
 164   0.0000       0.322770         8.7830 
 165   0.0000       0.327636         8.9154 
 166   0.0000       0.331016         9.0074 
 167   0.0000       0.332856         9.0575 
 168   0.0000       0.334435         9.1004 
 169   0.0000       0.340938         9.2774 
 170   0.0000       0.343391         9.3441 
 171   0.0000       0.348372         9.4797 
 172   0.0000       0.349982         9.5235 
 173   0.0000       0.355370         9.6701 
 174   0.0000       0.357885         9.7385 
 175   0.0000       0.360991         9.8231 
 176   0.0000       0.362715         9.8700 
 177   0.0000       0.367982        10.0133 
 178   0.0000       0.370405        10.0792 
 179   0.0000       0.375840        10.2271 
 180   0.0000       0.379657        10.3310 
 181   0.0000       0.382121        10.3980 
 182   0.0000       0.384216        10.4551 
 183   0.0000       0.389060        10.5869 
 184   0.0000       0.393227        10.7002 
 185   0.0000       0.394749        10.7417 
 186   0.0000       0.397195        10.8082 
 187   0.0000       0.400278        10.8921 
 188   0.0000       0.404639        11.0108 
 189   0.0000       0.407272        11.0824 
 190   0.0000       0.409309        11.1379 
 191   0.0000       0.412500        11.2247 
 192   0.0000       0.417555        11.3623 
 193   0.0000       0.421718        11.4755 
 194   0.0000       0.428577        11.6622 
 195   0.0000       0.431613        11.7448 
 196   0.0000       0.433365        11.7924 
 197   0.0000       0.434920        11.8348 
 198   0.0000       0.438818        11.9408 
 199   0.0000       0.446008        12.1365 
 200   0.0000       0.446772        12.1573 
 201   0.0000       0.448856        12.2140 
 202   0.0000       0.452965        12.3258 
 203   0.0000       0.455274        12.3886 
 204   0.0000       0.462565        12.5870 
 205   0.0000       0.464702        12.6452 
 206   0.0000       0.470791        12.8109 
 207   0.0000       0.473424        12.8825 
 208   0.0000       0.476184        12.9576 
 209   0.0000       0.478676        13.0254 
 210   0.0000       0.481383        13.0991 
 211   0.0000       0.486486        13.2380 
 212   0.0000       0.489294        13.3144 
 213   0.0000       0.491692        13.3796 
 214   0.0000       0.494687        13.4611 
 215   0.0000       0.497549        13.5390 
 216   0.0000       0.501784        13.6542 
 217   0.0000       0.502897        13.6845 
 218   0.0000       0.506810        13.7910 
 219   0.0000       0.513013        13.9598 
 220   0.0000       0.513762        13.9802 
 221   0.0000       0.518585        14.1114 
 222   0.0000       0.520167        14.1545 
 223   0.0000       0.527162        14.3448 
 224   0.0000       0.527733        14.3603 
 225   0.0000       0.529903        14.4194 
 226   0.0000       0.533065        14.5054 
 227   0.0000       0.535627        14.5751 
 228   0.0000       0.538381        14.6501 
 229   0.0000       0.541867        14.7450 
 230   0.0000       0.544798        14.8247 
 231   0.0000       0.548357        14.9216 
 232   0.0000       0.551678        15.0119 
 233   0.0000       0.551818        15.0157 
 234   0.0000       0.559442        15.2232 
 235   0.0000       0.565023        15.3751 
 236   0.0000       0.569450        15.4955 
 237   0.0000       0.571502        15.5513 
 238   0.0000       0.574349        15.6288 
 239   0.0000       0.576899        15.6982 
 240   0.0000       0.582138        15.8408 
 241   0.0000       0.586229        15.9521 
 242   0.0000       0.587368        15.9831 
 243   0.0000       0.590820        16.0770 
 244   0.0000       0.598299        16.2806 
 245   0.0000       0.600742        16.3470 
 246   0.0000       0.605941        16.4885 
 247   0.0000       0.610061        16.6006 
 248   0.0000       0.614342        16.7171 
 249   0.0000       0.616825        16.7847 
 250   0.0000       0.621694        16.9172 
 251   0.0000       0.624265        16.9871 
 252   0.0000       0.626253        17.0412 
 253   0.0000       0.626810        17.0564 
 254   0.0000       0.629409        17.1271 
 255   0.0000       0.639372        17.3982 
 256   0.0000       0.644417        17.5355 
 257   0.0000       0.649134        17.6638 
 258   0.0000       0.650729        17.7072 
 259   0.0000       0.658193        17.9103 
 260   0.0000       0.661223        17.9928 
 261   0.0000       0.666895        18.1471 
 262   0.0000       0.673126        18.3167 
 263   0.0000       0.677330        18.4311 
 264   0.0000       0.679623        18.4935 
 265   0.0000       0.681701        18.5500 
 266   0.0000       0.684405        18.6236 
 267   0.0000       0.694069        18.8866 
 268   0.0000       0.697430        18.9780 
 269   0.0000       0.702262        19.1095 
 270   0.0000       0.705075        19.1861 
 271   0.0000       0.707639        19.2558 
 272   0.0000       0.711036        19.3483 
 273   0.0000       0.715282        19.4638 
 274   0.0000       0.719223        19.5710 
 275   0.0000       0.722319        19.6553 
 276   0.0000       0.724177        19.7059 
 277   0.0000       0.730129        19.8678 
 278   0.0000       0.737409        20.0659 
 279   0.0000       0.739228        20.1154 
 280   0.0000       0.751279        20.4433 
 281   0.0000       0.753449        20.5024 
 282   0.0000       0.760679        20.6991 
 283   0.0000       0.762896        20.7595 
 284   0.0000       0.766115        20.8470 
 285   0.0000       0.780048        21.2262 
 286   0.0000       0.782432        21.2911 
 287   0.0000       0.789513        21.4837 
 288   0.0000       0.792403        21.5624 
 289   0.0000       0.795784        21.6544 
 290   0.0000       0.805142        21.9090 
 291   0.0000       0.816950        22.2303 
 292   0.0000       0.817162        22.2361 
 293   0.0000       0.823974        22.4215 
 294   0.0000       0.832556        22.6550 
 295   0.0000       0.833719        22.6866 
 296   0.0000       0.839722        22.8500 
 297   0.0000       0.846480        23.0339 
 298   0.0000       0.852230        23.1903 
 299   0.0000       0.854520        23.2527 
 300   0.0000       0.856402        23.3039 
 301   0.0000       0.861506        23.4428 
 302   0.0000       0.868319        23.6282 
 303   0.0000       0.871395        23.7119 
 304   0.0000       0.872047        23.7296 
 305   0.0000       0.878443        23.9036 
 306   0.0000       0.882760        24.0211 
 307   0.0000       0.885347        24.0915 
 308   0.0000       0.898121        24.4391 
 309   0.0000       0.898446        24.4480 
 310   0.0000       0.908265        24.7151 
 311   0.0000       0.910526        24.7767 
 312   0.0000       0.911880        24.8135 
 313   0.0000       0.916822        24.9480 
 314   0.0000       0.924579        25.1591 
 315   0.0000       0.928732        25.2721 
 316   0.0000       0.932156        25.3653 
 317   0.0000       0.936028        25.4706 
 318   0.0000       0.939856        25.5748 
 319   0.0000       0.943376        25.6706 
 320   0.0000       0.946222        25.7480 
 321   0.0000       0.949693        25.8425 
 322   0.0000       0.956248        26.0208 
 323   0.0000       0.959163        26.1002 
 324   0.0000       0.960301        26.1311 
 325   0.0000       0.965297        26.2671 
 326   0.0000       0.968974        26.3671 
 327   0.0000       0.974477        26.5169 
 328   0.0000       0.976951        26.5842 
 329   0.0000       0.984658        26.7939 
 330   0.0000       0.987434        26.8694 
 331   0.0000       0.989537        26.9267 
 332   0.0000       0.992946        27.0194 
 333   0.0000       0.993540        27.0356 
 334   0.0000       0.998554        27.1720 
 335   0.0000       1.003710        27.3123 
 336   0.0000       1.008449        27.4413 
 337   0.0000       1.011364        27.5206 
 338   0.0000       1.012653        27.5557 
 339   0.0000       1.016354        27.6564 
 340   0.0000       1.021438        27.7947 
 341   0.0000       1.022942        27.8357 
 342   0.0000       1.026195        27.9242 
 343   0.0000       1.031950        28.0808 
 344   0.0000       1.036154        28.1952 
 345   0.0000       1.040283        28.3075 
 346   0.0000       1.045517        28.4500 
 347   0.0000       1.047564        28.5057 
 348   0.0000       1.050253        28.5788 
 349   0.0000       1.051486        28.6124 
 350   0.0000       1.057164        28.7669 
 351   0.0000       1.057651        28.7801 
 352   0.0000       1.060872        28.8678 
 353   0.0000       1.065740        29.0002 
 354   0.0000       1.068237        29.0682 
 355   0.0000       1.075194        29.2575 
 356   0.0000       1.079634        29.3783 
 357   0.0000       1.082811        29.4648 
 358   0.0000       1.085235        29.5308 
 359   0.0000       1.092581        29.7306 
 360   0.0000       1.094692        29.7881 
 361   0.0000       1.101883        29.9837 
 362   0.0000       1.103214        30.0200 
 363   0.0000       1.105028        30.0694 
 364   0.0000       1.108521        30.1644 
 365   0.0000       1.115675        30.3591 
 366   0.0000       1.118323        30.4311 
 367   0.0000       1.125969        30.6392 
 368   0.0000       1.127652        30.6850 
 369   0.0000       1.132528        30.8177 
 370   0.0000       1.136093        30.9147 
 371   0.0000       1.140400        31.0318 
 372   0.0000       1.146571        31.1998 
 373   0.0000       1.147609        31.2280 
 374   0.0000       1.155762        31.4499 
 375   0.0000       1.158049        31.5121 
 376   0.0000       1.164472        31.6869 
 377   0.0000       1.168416        31.7942 
 378   0.0000       1.172230        31.8980 
 379   0.0000       1.177811        32.0499 
 380   0.0000       1.179264        32.0894 
 381   0.0000       1.187549        32.3149 
 382   0.0000       1.189298        32.3624 
 383   0.0000       1.197071        32.5740 
 384   0.0000       1.197796        32.5937 
 385   0.0000       1.200910        32.6784 
 386   0.0000       1.210608        32.9423 
 387   0.0000       1.212637        32.9975 
 388   0.0000       1.218632        33.1607 
 389   0.0000       1.224436        33.3186 
 390   0.0000       1.226832        33.3838 
 391   0.0000       1.230692        33.4888 
 392   0.0000       1.233118        33.5548 
 393   0.0000       1.235474        33.6190 
 394   0.0000       1.244567        33.8664 
 395   0.0000       1.254566        34.1385 
 396   0.0000       1.260842        34.3093 
 397   0.0000       1.261835        34.3363 
 398   0.0000       1.266524        34.4639 
 399   0.0000       1.274047        34.6686 
 400   0.0000       1.278854        34.7994 
 401   0.0000       1.284964        34.9657 
 402   0.0000       1.288558        35.0635 
 403   0.0000       1.293069        35.1862 
 404   0.0000       1.297845        35.3161 
 405   0.0000       1.302270        35.4366 
 406   0.0000       1.306042        35.5392 
 407   0.0000       1.312378        35.7116 
 408   0.0000       1.313988        35.7554 
 409   0.0000       1.319416        35.9031 
 410   0.0000       1.323918        36.0257 
 411   0.0000       1.329815        36.1861 
 412   0.0000       1.335130        36.3307 
 413   0.0000       1.346904        36.6511 
 414   0.0000       1.348125        36.6843 
 415   0.0000       1.352344        36.7991 
 416   0.0000       1.360527        37.0218 
 417   0.0000       1.366850        37.1939 
 418   0.0000       1.373151        37.3653 
 419   0.0000       1.376222        37.4489 
 420   0.0000       1.377929        37.4953 
 421   0.0000       1.381883        37.6029 
 422   0.0000       1.385809        37.7098 
 423   0.0000       1.391096        37.8536 
 424   0.0000       1.396158        37.9914 
 425   0.0000       1.406472        38.2720 
 426   0.0000       1.413538        38.4643 
 427   0.0000       1.417373        38.5687 
 428   0.0000       1.426461        38.8160 
 429   0.0000       1.436499        39.0891 
 430   0.0000       1.441165        39.2161 
 431   0.0000       1.444540        39.3079 
 432   0.0000       1.449074        39.4313 
 433   0.0000       1.454231        39.5716 
 434   0.0000       1.459704        39.7206 
 435   0.0000       1.459954        39.7274 
 436   0.0000       1.464329        39.8464 
 437   0.0000       1.465138        39.8684 
 438   0.0000       1.471064        40.0297 
 439   0.0000       1.477261        40.1983 
 440   0.0000       1.482520        40.3414 
 441   0.0000       1.488221        40.4965 
 442   0.0000       1.489693        40.5366 
 443   0.0000       1.499320        40.7986 
 444   0.0000       1.501934        40.8697 
 445   0.0000       1.511775        41.1375 
 446   0.0000       1.513683        41.1894 
 447   0.0000       1.521223        41.3946 
 448   0.0000       1.524591        41.4862 
 449   0.0000       1.533296        41.7231 
 450   0.0000       1.541201        41.9382 
 451   0.0000       1.544312        42.0229 
 452   0.0000       1.547955        42.1220 
 453   0.0000       1.552287        42.2399 
 454   0.0000       1.559840        42.4454 
 455   0.0000       1.565385        42.5963 
 456   0.0000       1.568127        42.6709 
 457   0.0000       1.572617        42.7931 
 458   0.0000       1.578637        42.9569 
 459   0.0000       1.580779        43.0152 
 460   0.0000       1.588260        43.2188 
 461   0.0000       1.589694        43.2578 
 462   0.0000       1.598557        43.4989 
 463   0.0000       1.601193        43.5707 
 464   0.0000       1.603644        43.6374 
 465   0.0000       1.614418        43.9305 
 466   0.0000       1.618399        44.0389 
 467   0.0000       1.626606        44.2622 
 468   0.0000       1.632991        44.4359 
 469   0.0000       1.639372        44.6096 
 470   0.0000       1.643522        44.7225 
 471   0.0000       1.650182        44.9037 
 472   0.0000       1.654743        45.0278 
 473   0.0000       1.658976        45.1430 
 474   0.0000       1.666807        45.3561 
 475   0.0000       1.670303        45.4512 
 476   0.0000       1.673425        45.5362 
 477   0.0000       1.682645        45.7871 
 478   0.0000       1.685942        45.8768 
 479   0.0000       1.688652        45.9505 
 480   0.0000       1.695132        46.1269 
 481   0.0000       1.696333        46.1596 
 482   0.0000       1.700721        46.2790 
 483   0.0000       1.705090        46.3979 
 484   0.0000       1.710316        46.5401 
 485   0.0000       1.713157        46.6174 
 486   0.0000       1.722699        46.8770 
 487   0.0000       1.728753        47.0418 
 488   0.0000       1.731629        47.1200 
 489   0.0000       1.740922        47.3729 
 490   0.0000       1.743783        47.4507 
 491   0.0000       1.755705        47.7752 
 492   0.0000       1.756898        47.8076 
 493   0.0000       1.762485        47.9597 
 494   0.0000       1.763144        47.9776 
 495   0.0000       1.781400        48.4744 
 496   0.0000       1.784118        48.5483 
 497   0.0000       1.788906        48.6786 
 498   0.0000       1.796843        48.8946 
 499   0.0000       1.801419        49.0191 
 500   0.0000       1.804724        49.1090 
 501   0.0000       1.811814        49.3020 
 502   0.0000       1.813616        49.3510 
 503   0.0000       1.818002        49.4704 
 504   0.0000       1.826384        49.6984 
 505   0.0000       1.830062        49.7985 
 506   0.0000       1.837439        49.9993 
 507   0.0000       1.840288        50.0768 
 508   0.0000       1.844027        50.1785 
 509   0.0000       1.848371        50.2967 
 510   0.0000       1.859737        50.6060 
 511   0.0000       1.862816        50.6898 
 512   0.0000       1.867017        50.8041 
 513   0.0000       1.871185        50.9175 
 514   0.0000       1.872832        50.9624 
 515   0.0000       1.878520        51.1171 
 516   0.0000       1.886150        51.3247 
 517   0.0000       1.889126        51.4057 
 518   0.0000       1.896130        51.5963 
 519   0.0000       1.899143        51.6783 
 520   0.0000       1.904521        51.8246 
 521   0.0000       1.909118        51.9497 
 522   0.0000       1.919263        52.2258 
 523   0.0000       1.919604        52.2351 
 524   0.0000       1.930003        52.5181 
 525   0.0000       1.932532        52.5869 
 526   0.0000       1.936552        52.6962 
 527   0.0000       1.938089        52.7381 
 528   0.0000       1.950129        53.0657 
 529   0.0000       1.955928        53.2235 
 530   0.0000       1.959481        53.3202 
 531   0.0000       1.968614        53.5687 
 532   0.0000       1.970425        53.6180 
 533   0.0000       1.975436        53.7543 
 534   0.0000       1.979730        53.8712 
 535   0.0000       1.985422        54.0261 
 536   0.0000       1.990664        54.1687 
 537   0.0000       1.999327        54.4045 
 538   0.0000       2.007626        54.6303 
 539   0.0000       2.013287        54.7843 
 540   0.0000       2.020490        54.9803 
 541   0.0000       2.025514        55.1170 
 542   0.0000       2.031151        55.2704 
 543   0.0000       2.044288        55.6279 
 544   0.0000       2.051177        55.8154 
 545   0.0000       2.057434        55.9856 
 546   0.0000       2.061123        56.0860 
 547   0.0000       2.066313        56.2272 
 548   0.0000       2.069719        56.3199 
 549   0.0000       2.071870        56.3784 
 550   0.0000       2.084368        56.7185 
 551   0.0000       2.090972        56.8982 
 552   0.0000       2.094021        56.9812 
 553   0.0000       2.103973        57.2520 
 554   0.0000       2.113732        57.5176 
 555   0.0000       2.119869        57.6846 
 556   0.0000       2.125759        57.8448 
 557   0.0000       2.139514        58.2191 
 558   0.0000       2.145319        58.3771 
 559   0.0000       2.147574        58.4385 
 560   0.0000       2.157186        58.7000 
 561   0.0000       2.162494        58.8445 
 562   0.0000       2.168112        58.9973 
 563   0.0000       2.176486        59.2252 
 564   0.0000       2.183670        59.4207 
 565   0.0000       2.191716        59.6396 
 566   0.0000       2.201988        59.9191 
 567   0.0000       2.206669        60.0465 
 568   0.0000       2.211467        60.1771 
 569   0.0000       2.216977        60.3270 
 570   0.0000       2.221733        60.4564 
 571   0.0000       2.230676        60.6998 
 572   0.0000       2.237380        60.8822 
 573   0.0000       2.247176        61.1488 
 574   0.0000       2.251350        61.2623 
 575   0.0000       2.255421        61.3731 
 576   0.0000       2.267146        61.6922 
 577   0.0000       2.270233        61.7762 
 578   0.0000       2.278418        61.9989 
 579   0.0000       2.294406        62.4340 
 580   0.0000       2.294532        62.4374 
 581   0.0000       2.302019        62.6411 
 582   0.0000       2.306380        62.7598 
 583   0.0000       2.315409        63.0055 
 584   0.0000       2.324339        63.2485 
 585   0.0000       2.329733        63.3953 
 586   0.0000       2.335938        63.5641 
 587   0.0000       2.338221        63.6262 
 588   0.0000       2.351933        63.9994 
 589   0.0000       2.353433        64.0402 
 590   0.0000       2.363183        64.3055 
 591   0.0000       2.379217        64.7418 
 592   0.0000       2.381057        64.7919 
 593   0.0000       2.390674        65.0536 
 594   0.0000       2.400847        65.3304 
 595   0.0000       2.409612        65.5689 
 596   0.0000       2.419044        65.8255 
 597   0.0000       2.425006        65.9878 
 598   0.0000       2.427605        66.0585 
 599   0.0000       2.437005        66.3143 
 600   0.0000       2.448030        66.6143 
 601   0.0000       2.466262        67.1104 
 602   0.0000       2.471118        67.2425 
 603   0.0000       2.478444        67.4419 
 604   0.0000       2.479528        67.4714 
 605   0.0000       2.500061        68.0301 
 606   0.0000       2.509497        68.2869 
 607   0.0000       2.526772        68.7570 
 608   0.0000       2.535494        68.9943 
 609   0.0000       2.540071        69.1188 
 610   0.0000       2.560826        69.6836 
 611   0.0000       2.574208        70.0478 
 612   0.0000       2.596695        70.6597 
 613   0.0000       2.608118        70.9705 
 614   0.0000       2.611477        71.0619 
 615   0.0000       2.623897        71.3999 
 616   0.0000       2.632701        71.6394 
 617   0.0000       2.646840        72.0242 
 618   0.0000       2.657426        72.3122 
 619   0.0000       2.658181        72.3328 
 620   0.0000       2.669241        72.6337 
 621   0.0000       2.680477        72.9395 
 622   0.0000       2.684972        73.0618 
 623   0.0000       2.691606        73.2423 
 624   0.0000       2.700603        73.4872 
 625   0.0000       2.708003        73.6885 
 626   0.0000       2.711523        73.7843 
 627   0.0000       2.724902        74.1484 
 628   0.0000       2.730240        74.2936 
 629   0.0000       2.735972        74.4496 
 630   0.0000       2.741490        74.5997 
 631   0.0000       2.747482        74.7628 
 632   0.0000       2.753895        74.9373 
 633   0.0000       2.767972        75.3204 
 634   0.0000       2.782244        75.7087 
 635   0.0000       2.787391        75.8488 
 636   0.0000       2.800423        76.2034 
 637   0.0000       2.814395        76.5836 
 638   0.0000       2.835493        77.1577 
 639   0.0000       2.845309        77.4248 
 640   0.0000       2.856984        77.7425 
 641   0.0000       2.879653        78.3594 
 642   0.0000       2.894762        78.7705 
 643   0.0000       2.898017        78.8590 
 644   0.0000       2.904407        79.0329 
 645   0.0000       2.929873        79.7259 
 646   0.0000       2.935989        79.8923 
 647   0.0000       2.944261        80.1174 
 648   0.0000       2.965550        80.6967 
 649   0.0000       2.972875        80.8960 
 650   0.0000       2.987483        81.2935 
 651   0.0000       2.992719        81.4360 
 652   0.0000       3.004696        81.7619 
 653   0.0000       3.023382        82.2704 
 654   0.0000       3.036805        82.6357 
 655   0.0000       3.050245        83.0014 
 656   0.0000       3.082011        83.8658 
 657   0.0000       3.090161        84.0876 
 658   0.0000       3.099079        84.3302 
 659   0.0000       3.104265        84.4713 
 660   0.0000       3.135386        85.3182 
 661   0.0000       3.143727        85.5452 
 662   0.0000       3.161570        86.0307 
 663   0.0000       3.172592        86.3306 
 664   0.0000       3.176010        86.4236 
 665   0.0000       3.192852        86.8819 
 666   0.0000       3.200217        87.0823 
 667   0.0000       3.208937        87.3196 
 668   0.0000       3.228127        87.8418 
 669   0.0000       3.236486        88.0693 
 670   0.0000       3.238827        88.1330 
 671   0.0000       3.252144        88.4953 
 672   0.0000       3.262530        88.7779 
 673   0.0000       3.265847        88.8682 
 674   0.0000       3.280490        89.2667 
 675   0.0000       3.282934        89.3332 
 676   0.0000       3.307311        89.9965 
 677   0.0000       3.308587        90.0312 
 678   0.0000       3.313589        90.1673 
 679   0.0000       3.318845        90.3104 
 680   0.0000       3.333914        90.7204 
 681   0.0000       3.341104        90.9161 
 682   0.0000       3.347428        91.0882 
 683   0.0000       3.359577        91.4187 
 684   0.0000       3.366659        91.6114 
 685   0.0000       3.372310        91.7652 
 686   0.0000       3.375717        91.8579 
 687   0.0000       3.398591        92.4804 
 688   0.0000       3.403170        92.6050 
 689   0.0000       3.409497        92.7771 
 690   0.0000       3.411368        92.8281 
 691   0.0000       3.426320        93.2349 
 692   0.0000       3.441330        93.6434 
 693   0.0000       3.445161        93.7476 
 694   0.0000       3.451739        93.9266 
 695   0.0000       3.468183        94.3741 
 696   0.0000       3.481518        94.7369 
 697   0.0000       3.486706        94.8781 
 698   0.0000       3.495970        95.1302 
 699   0.0000       3.501276        95.2746 
 700   0.0000       3.507275        95.4378 
 701   0.0000       3.510974        95.5385 
 702   0.0000       3.521941        95.8369 
 703   0.0000       3.526054        95.9488 
 704   0.0000       3.532718        96.1301 
 705   0.0000       3.544390        96.4478 
 706   0.0000       3.550513        96.6144 
 707   0.0000       3.561150        96.9038 
 708   0.0000       3.571361        97.1817 
 709   0.0000       3.583675        97.5168 
 710   0.0000       3.586557        97.5952 
 711   0.0000       3.592843        97.7662 
 712   0.0000       3.599748        97.9541 
 713   0.0000       3.616765        98.4172 
 714   0.0000       3.623773        98.6079 
 715   0.0000       3.632496        98.8452 
 716   0.0000       3.644692        99.1771 
 717   0.0000       3.650116        99.3247 
 718   0.0000       3.656245        99.4915 
 719   0.0000       3.665911        99.7545 
 720   0.0000       3.680156       100.1421 
 721   0.0000       3.680749       100.1583 
 722   0.0000       3.690757       100.4306 
 723   0.0000       3.699578       100.6706 
 724   0.0000       3.707760       100.8933 
 725   0.0000       3.720455       101.2387 
 726   0.0000       3.722679       101.2993 
 727   0.0000       3.731896       101.5500 
 728   0.0000       3.740857       101.7939 
 729   0.0000       3.753971       102.1507 
 730   0.0000       3.764091       102.4261 
 731   0.0000       3.766324       102.4869 
 732   0.0000       3.778786       102.8260 
 733   0.0000       3.781067       102.8881 
 734   0.0000       3.786843       103.0452 
 735   0.0000       3.792367       103.1955 
 736   0.0000       3.798914       103.3737 
 737   0.0000       3.803442       103.4969 
 738   0.0000       3.815478       103.8244 
 739   0.0000       3.820389       103.9581 
 740   0.0000       3.825126       104.0870 
 741   0.0000       3.830829       104.2422 
 742   0.0000       3.833427       104.3128 
 743   0.0000       3.850666       104.7819 
 744   0.0000       3.856980       104.9538 
 745   0.0000       3.866380       105.2095 
 746   0.0000       3.873611       105.4063 
 747   0.0000       3.880534       105.5947 
 748   0.0000       3.893017       105.9344 
 749   0.0000       3.898083       106.0722 
 750   0.0000       3.900544       106.1392 
 751   0.0000       3.904463       106.2459 
 752   0.0000       3.918556       106.6293 
 753   0.0000       3.920419       106.6800 
 754   0.0000       3.928381       106.8967 
 755   0.0000       3.938603       107.1748 
 756   0.0000       3.943075       107.2965 
 757   0.0000       3.949773       107.4788 
 758   0.0000       3.958447       107.7148 
 759   0.0000       3.964365       107.8759 
 760   0.0000       3.974936       108.1635 
 761   0.0000       3.982343       108.3651 
 762   0.0000       3.989904       108.5708 
 763   0.0000       3.997210       108.7696 
 764   0.0000       4.004288       108.9622 
 765   0.0000       4.008532       109.0777 
 766   0.0000       4.016977       109.3075 
 767   0.0000       4.022877       109.4681 
 768   0.0000       4.025710       109.5451 
 769   0.0000       4.034594       109.7869 
 770   0.0000       4.042072       109.9904 
 771   0.0000       4.053311       110.2962 
 772   0.0000       4.057070       110.3985 
 773   0.0000       4.062267       110.5399 
 774   0.0000       4.080723       111.0421 
 775   0.0000       4.085410       111.1696 
 776   0.0000       4.087057       111.2145 
 777   0.0000       4.090694       111.3134 
 778   0.0000       4.106394       111.7407 
 779   0.0000       4.109062       111.8133 
 780   0.0000       4.114899       111.9721 
 781   0.0000       4.125628       112.2641 
 782   0.0000       4.133297       112.4727 
 783   0.0000       4.144640       112.7814 
 784   0.0000       4.150599       112.9435 
 785   0.0000       4.154423       113.0476 
 786   0.0000       4.168737       113.4371 
 787   0.0000       4.178838       113.7120 
 788   0.0000       4.189334       113.9976 
 789   0.0000       4.192674       114.0884 
 790   0.0000       4.198280       114.2410 
 791   0.0000       4.209026       114.5334 
 792   0.0000       4.223393       114.9244 
 793   0.0000       4.230659       115.1221 
 794   0.0000       4.239753       115.3695 
 795   0.0000       4.241120       115.4067 
 796   0.0000       4.257952       115.8648 
 797   0.0000       4.261398       115.9585 
 798   0.0000       4.265460       116.0691 
 799   0.0000       4.277037       116.3841 
 800   0.0000       4.291782       116.7853 
 801   0.0000       4.295939       116.8985 
 802   0.0000       4.306698       117.1912 
 803   0.0000       4.316513       117.4583 
 804   0.0000       4.326090       117.7189 
 805   0.0000       4.333268       117.9142 
 806   0.0000       4.339769       118.0911 
 807   0.0000       4.347938       118.3134 
 808   0.0000       4.356607       118.5493 
 809   0.0000       4.371641       118.9584 
 810   0.0000       4.373282       119.0030 
 811   0.0000       4.378659       119.1494 
 812   0.0000       4.405187       119.8712 
 813   0.0000       4.407557       119.9357 
 814   0.0000       4.423592       120.3721 
 815   0.0000       4.432076       120.6029 
 816   0.0000       4.445862       120.9781 
 817   0.0000       4.449638       121.0808 
 818   0.0000       4.456693       121.2728 
 819   0.0000       4.460704       121.3819 
 820   0.0000       4.467902       121.5778 
 821   0.0000       4.482666       121.9795 
 822   0.0000       4.494234       122.2943 
 823   0.0000       4.501676       122.4968 
 824   0.0000       4.512487       122.7910 
 825   0.0000       4.525091       123.1340 
 826   0.0000       4.529681       123.2589 
 827   0.0000       4.537840       123.4809 
 828   0.0000       4.548278       123.7649 
 829   0.0000       4.552156       123.8705 
 830   0.0000       4.572189       124.4156 
 831   0.0000       4.587161       124.8230 
 832   0.0000       4.594914       125.0340 
 833   0.0000       4.604820       125.3035 
 834   0.0000       4.610581       125.4603 
 835   0.0000       4.630954       126.0147 
 836   0.0000       4.640350       126.2703 
 837   0.0000       4.658540       126.7653 
 838   0.0000       4.662942       126.8851 
 839   0.0000       4.670839       127.1000 
 840   0.0000       4.689931       127.6195 
 841   0.0000       4.700495       127.9070 
 842   0.0000       4.711750       128.2132 
 843   0.0000       4.715608       128.3182 
 844   0.0000       4.732284       128.7720 
 845   0.0000       4.739556       128.9699 
 846   0.0000       4.752006       129.3087 
 847   0.0000       4.769548       129.7860 
 848   0.0000       4.774479       129.9202 
 849   0.0000       4.784895       130.2036 
 850   0.0000       4.790660       130.3605 
 851   0.0000       4.796921       130.5309 
 852   0.0000       4.803975       130.7228 
 853   0.0000       4.822330       131.2223 
 854   0.0000       4.834476       131.5528 
 855   0.0000       4.844829       131.8345 
 856   0.0000       4.852586       132.0456 
 857   0.0000       4.868434       132.4768 
 858   0.0000       4.882781       132.8672 
 859   0.0000       4.883927       132.8984 
 860   0.0000       4.898721       133.3010 
 861   0.0000       4.909662       133.5987 
 862   0.0000       4.924448       134.0010 
 863   0.0000       4.940842       134.4472 
 864   0.0000       4.952262       134.7579 
 865   0.0000       4.967028       135.1597 
 866   0.0000       4.969073       135.2153 
 867   0.0000       4.986248       135.6827 
 868   0.0000       4.992312       135.8477 
 869   0.0000       4.993131       135.8700 
 870   0.0000       5.016295       136.5003 
 871   0.0000       5.020994       136.6282 
 872   0.0000       5.024481       136.7231 
 873   0.0000       5.051270       137.4521 
 874   0.0000       5.057417       137.6193 
 875   0.0000       5.065940       137.8512 
 876   0.0000       5.088591       138.4676 
 877   0.0000       5.092123       138.5637 
 878   0.0000       5.102869       138.8561 
 879   0.0000       5.115175       139.1910 
 880   0.0000       5.134953       139.7292 
 881   0.0000       5.146821       140.0521 
 882   0.0000       5.159420       140.3949 
 883   0.0000       5.177955       140.8993 
 884   0.0000       5.178379       140.9109 
 885   0.0000       5.194105       141.3388 
 886   0.0000       5.211046       141.7998 
 887   0.0000       5.216882       141.9586 
 888   0.0000       5.218869       142.0126 
 889   0.0000       5.235858       142.4749 
 890   0.0000       5.252435       142.9260 
 891   0.0000       5.263707       143.2328 
 892   0.0000       5.277633       143.6117 
 893   0.0000       5.294676       144.0755 
 894   0.0000       5.306343       144.3929 
 895   0.0000       5.320658       144.7825 
 896   0.0000       5.324389       144.8840 
 897   0.0000       5.336754       145.2205 
 898   0.0000       5.351514       145.6221 
 899   0.0000       5.359354       145.8354 
 900   0.0000       5.369523       146.1121 
 901   0.0000       5.392251       146.7306 
 902   0.0000       5.403383       147.0335 
 903   0.0000       5.423773       147.5884 
 904   0.0000       5.434617       147.8834 
 905   0.0000       5.450305       148.3103 
 906   0.0000       5.453273       148.3911 
 907   0.0000       5.471016       148.8739 
 908   0.0000       5.479321       149.0999 
 909   0.0000       5.488967       149.3624 
 910   0.0000       5.502091       149.7195 
 911   0.0000       5.506890       149.8501 
 912   0.0000       5.527629       150.4144 
 913   0.0000       5.530765       150.4998 
 914   0.0000       5.545438       150.8990 
 915   0.0000       5.562017       151.3502 
 916   0.0000       5.569248       151.5470 
 917   0.0000       5.580060       151.8411 
 918   0.0000       5.585832       151.9982 
 919   0.0000       5.596303       152.2831 
 920   0.0000       5.616442       152.8311 
 921   0.0000       5.631625       153.2443 
 922   0.0000       5.645755       153.6288 
 923   0.0000       5.652868       153.8224 
 924   0.0000       5.664547       154.1402 
 925   0.0000       5.673288       154.3780 
 926   0.0000       5.679316       154.5420 
 927   0.0000       5.697888       155.0474 
 928   0.0000       5.710994       155.4041 
 929   0.0000       5.720558       155.6643 
 930   0.0000       5.725753       155.8057 
 931   0.0000       5.753694       156.5660 
 932   0.0000       5.759795       156.7320 
 933   0.0000       5.776202       157.1785 
 934   0.0000       5.785392       157.4285 
 935   0.0000       5.802845       157.9034 
 936   0.0000       5.815553       158.2493 
 937   0.0000       5.816278       158.2690 
 938   0.0000       5.831868       158.6932 
 939   0.0000       5.844927       159.0485 
 940   0.0000       5.847177       159.1098 
 941   0.0000       5.887714       160.2129 
 942   0.0000       5.911089       160.8489 
 943   0.0000       5.929261       161.3434 
 944   0.0000       5.940243       161.6422 
 945   0.0000       5.951290       161.9428 
 946   0.0000       5.984933       162.8583 
 947   0.0000       6.047116       164.5504 
 948   0.0000       6.103016       166.0715 
 949   0.0000       6.122876       166.6119 
 950   0.0000       6.146882       167.2652 
 951   0.0000       6.180121       168.1697 
 952   0.0000       6.186974       168.3561 
 953   0.0000       6.197634       168.6462 
 954   0.0000       6.214474       169.1044 
 955   0.0000       6.230027       169.5277 
 956   0.0000       6.242693       169.8723 
 957   0.0000       6.253621       170.1697 
 958   0.0000       6.263763       170.4457 
 959   0.0000       6.295676       171.3140 
 960   0.0000       6.307611       171.6388 
 961   0.0000       6.309784       171.6980 
 962   0.0000       6.333099       172.3324 
 963   0.0000       6.346998       172.7106 
 964   0.0000       6.367059       173.2565 
 965   0.0000       6.384569       173.7330 
 966   0.0000       6.402909       174.2320 
 967   0.0000       6.432238       175.0301 
 968   0.0000       6.466401       175.9597 
 969   0.0000       6.488262       176.5546 
 970   0.0000       6.552132       178.2926 
 971   0.0000       6.704387       182.4356 
 972   0.0000       6.802665       185.1099 
 973   0.0000       6.860564       186.6854 
 974   0.0000       6.872424       187.0082 
 975   0.0000       6.915489       188.1800 
 976   0.0000       6.923793       188.4060 
 977   0.0000       6.933199       188.6619 
 978   0.0000       6.957990       189.3365 
 979   0.0000       6.997211       190.4038 
 980   0.0000       7.023306       191.1139 
 981   0.0000       7.038838       191.5365 
 982   0.0000       7.067027       192.3036 
 983   0.0000       7.085435       192.8045 
 984   0.0000       7.152655       194.6336 
 985   0.0000       7.217043       196.3857 
 986   0.0000       7.297486       198.5747 
 987   0.0000       7.384471       200.9417 
 988   0.0000       7.397577       201.2983 
 989   0.0000       7.499637       204.0755 
 990   0.0000       7.553499       205.5411 
 991   0.0000       7.611756       207.1264 
 992   0.0000       7.673445       208.8050 
 993   0.0000       7.775105       211.5714 
 994   0.0000       7.799843       212.2445 
 995   0.0000       7.893486       214.7927 
 996   0.0000       8.049823       219.0468 
 997   0.0000       8.143120       221.5855 
 998   0.0000       8.356140       227.3821 
 999   0.0000       9.449381       257.1307 
 1000   0.0000       9.461171       257.4515 
 1001   0.0000       9.474307       257.8090 
 1002   0.0000       9.485023       258.1006 
 1003   0.0000       9.489638       258.2262 
 1004   0.0000       9.523433       259.1458 
 1005   0.0000       9.766487       265.7596 
 1006   0.0000      10.113584       275.2046 
 1007   0.0000      10.129765       275.6449 
 1008   0.0000      10.153550       276.2921 
 1009   0.0000      10.232918       278.4518 
 1010   0.0000      10.239118       278.6206 
 1011   0.0000      10.263171       279.2751 
 1012   0.0000      10.411243       283.3043 
 1013   0.0000      10.437968       284.0315 
 1014   0.0000      10.567840       287.5655 
 1015   0.0000      16.217270       441.2943 
 1016   0.0000      17.511210       476.5043 
 1017   0.0000      18.117363       492.9985 
 1018   0.0000      18.442487       501.8456 
 1019   0.0000      18.735764       509.8261 
 1020   0.0000      19.022539       517.6296 
 1021   0.0000      19.059547       518.6367 
 1022   0.0000      19.518718       531.1313 
 1023   0.0000      20.324066       553.0460 
 1024   0.0000      21.803607       593.3063 

                 SPIN DOWN ORBITALS
  NO   OCC          E(Eh)            E(eV) 
   0   1.0000    -261.537680     -7116.8021 
   1   1.0000    -104.766627     -2850.8448 
   2   1.0000    -104.764645     -2850.7909 
   3   1.0000    -104.763385     -2850.7566 
   4   1.0000     -32.047046      -872.0444 
   5   1.0000     -27.525087      -748.9957 
   6   1.0000     -27.524969      -748.9925 
   7   1.0000     -27.524517      -748.9802 
   8   1.0000     -20.539890      -558.9188 
   9   1.0000     -11.389170      -309.9151 
  10   1.0000     -11.363576      -309.2186 
  11   1.0000     -11.304251      -307.6043 
  12   1.0000     -11.287826      -307.1574 
  13   1.0000     -11.279859      -306.9406 
  14   1.0000     -11.253022      -306.2103 
  15   1.0000     -11.249475      -306.1138 
  16   1.0000     -11.239119      -305.8320 
  17   1.0000     -10.493168      -285.5336 
  18   1.0000     -10.491144      -285.4785 
  19   1.0000     -10.489910      -285.4450 
  20   1.0000      -7.959068      -216.5772 
  21   1.0000      -7.958492      -216.5616 
  22   1.0000      -7.958425      -216.5598 
  23   1.0000      -7.957120      -216.5242 
  24   1.0000      -7.956439      -216.5057 
  25   1.0000      -7.956335      -216.5029 
  26   1.0000      -7.955832      -216.4892 
  27   1.0000      -7.955198      -216.4719 
  28   1.0000      -7.955113      -216.4696 
  29   1.0000      -4.122220      -112.1713 
  30   1.0000      -2.644060       -71.9485 
  31   1.0000      -2.643990       -71.9466 
  32   1.0000      -2.643111       -71.9227 
  33   1.0000      -1.364936       -37.1418 
  34   1.0000      -1.196403       -32.5558 
  35   1.0000      -1.079929       -29.3864 
  36   1.0000      -1.046050       -28.4645 
  37   1.0000      -1.024764       -27.8852 
  38   1.0000      -1.019602       -27.7448 
  39   1.0000      -1.013166       -27.5697 
  40   1.0000      -1.011358       -27.5204 
  41   1.0000      -0.971865       -26.4458 
  42   1.0000      -0.930442       -25.3186 
  43   1.0000      -0.803893       -21.8750 
  44   1.0000      -0.775450       -21.1011 
  45   1.0000      -0.709978       -19.3195 
  46   1.0000      -0.693985       -18.8843 
  47   1.0000      -0.673049       -18.3146 
  48   1.0000      -0.657577       -17.8936 
  49   1.0000      -0.648615       -17.6497 
  50   1.0000      -0.635788       -17.3007 
  51   1.0000      -0.607528       -16.5317 
  52   1.0000      -0.603081       -16.4107 
  53   1.0000      -0.590571       -16.0702 
  54   1.0000      -0.582983       -15.8638 
  55   1.0000      -0.577217       -15.7069 
  56   1.0000      -0.562594       -15.3090 
  57   1.0000      -0.556332       -15.1386 
  58   1.0000      -0.539165       -14.6714 
  59   1.0000      -0.533639       -14.5211 
  60   1.0000      -0.515454       -14.0262 
  61   1.0000      -0.495510       -13.4835 
  62   1.0000      -0.463170       -12.6035 
  63   1.0000      -0.458520       -12.4770 
  64   1.0000      -0.449983       -12.2447 
  65   1.0000      -0.429720       -11.6933 
  66   1.0000      -0.428139       -11.6503 
  67   1.0000      -0.424870       -11.5613 
  68   1.0000      -0.424268       -11.5449 
  69   1.0000      -0.403896       -10.9906 
  70   1.0000      -0.393172       -10.6987 
  71   1.0000      -0.390818       -10.6347 
  72   0.0000      -0.001998        -0.0544 
  73   0.0000       0.001429         0.0389 
  74   0.0000       0.016852         0.4586 
  75   0.0000       0.017756         0.4832 
  76   0.0000       0.026785         0.7289 
  77   0.0000       0.037013         1.0072 
  78   0.0000       0.038095         1.0366 
  79   0.0000       0.040723         1.1081 
  80   0.0000       0.043580         1.1859 
  81   0.0000       0.048977         1.3327 
  82   0.0000       0.056697         1.5428 
  83   0.0000       0.058057         1.5798 
  84   0.0000       0.059656         1.6233 
  85   0.0000       0.061966         1.6862 
  86   0.0000       0.065437         1.7806 
  87   0.0000       0.072025         1.9599 
  88   0.0000       0.074690         2.0324 
  89   0.0000       0.081561         2.2194 
  90   0.0000       0.084565         2.3011 
  91   0.0000       0.088085         2.3969 
  92   0.0000       0.091027         2.4770 
  93   0.0000       0.092577         2.5191 
  94   0.0000       0.096410         2.6235 
  95   0.0000       0.101154         2.7525 
  96   0.0000       0.104365         2.8399 
  97   0.0000       0.113510         3.0888 
  98   0.0000       0.114690         3.1209 
  99   0.0000       0.119515         3.2522 
 100   0.0000       0.122917         3.3447 
 101   0.0000       0.127455         3.4682 
 102   0.0000       0.129488         3.5235 
 103   0.0000       0.131234         3.5711 
 104   0.0000       0.133127         3.6226 
 105   0.0000       0.134369         3.6564 
 106   0.0000       0.135331         3.6825 
 107   0.0000       0.138100         3.7579 
 108   0.0000       0.140948         3.8354 
 109   0.0000       0.143258         3.8983 
 110   0.0000       0.144058         3.9200 
 111   0.0000       0.147096         4.0027 
 112   0.0000       0.150433         4.0935 
 113   0.0000       0.152448         4.1483 
 114   0.0000       0.152880         4.1601 
 115   0.0000       0.156843         4.2679 
 116   0.0000       0.158020         4.2999 
 117   0.0000       0.159843         4.3496 
 118   0.0000       0.161700         4.4001 
 119   0.0000       0.163834         4.4582 
 120   0.0000       0.165071         4.4918 
 121   0.0000       0.169678         4.6172 
 122   0.0000       0.176454         4.8016 
 123   0.0000       0.177966         4.8427 
 124   0.0000       0.178546         4.8585 
 125   0.0000       0.186021         5.0619 
 126   0.0000       0.189345         5.1523 
 127   0.0000       0.193103         5.2546 
 128   0.0000       0.195460         5.3187 
 129   0.0000       0.203309         5.5323 
 130   0.0000       0.204687         5.5698 
 131   0.0000       0.209079         5.6893 
 132   0.0000       0.217899         5.9293 
 133   0.0000       0.219074         5.9613 
 134   0.0000       0.219808         5.9813 
 135   0.0000       0.221564         6.0291 
 136   0.0000       0.224770         6.1163 
 137   0.0000       0.228838         6.2270 
 138   0.0000       0.230223         6.2647 
 139   0.0000       0.233444         6.3523 
 140   0.0000       0.237987         6.4759 
 141   0.0000       0.241581         6.5738 
 142   0.0000       0.244179         6.6445 
 143   0.0000       0.246672         6.7123 
 144   0.0000       0.249218         6.7816 
 145   0.0000       0.254139         6.9155 
 146   0.0000       0.258750         7.0409 
 147   0.0000       0.263030         7.1574 
 148   0.0000       0.264284         7.1915 
 149   0.0000       0.269262         7.3270 
 150   0.0000       0.274227         7.4621 
 151   0.0000       0.278718         7.5843 
 152   0.0000       0.283339         7.7101 
 153   0.0000       0.286452         7.7947 
 154   0.0000       0.291072         7.9205 
 155   0.0000       0.294351         8.0097 
 156   0.0000       0.297830         8.1044 
 157   0.0000       0.301472         8.2035 
 158   0.0000       0.303754         8.2656 
 159   0.0000       0.312591         8.5060 
 160   0.0000       0.313690         8.5359 
 161   0.0000       0.317149         8.6301 
 162   0.0000       0.318839         8.6760 
 163   0.0000       0.322839         8.7849 
 164   0.0000       0.328640         8.9427 
 165   0.0000       0.330864         9.0033 
 166   0.0000       0.332834         9.0569 
 167   0.0000       0.335017         9.1163 
 168   0.0000       0.341164         9.2835 
 169   0.0000       0.344763         9.3815 
 170   0.0000       0.347648         9.4600 
 171   0.0000       0.349624         9.5138 
 172   0.0000       0.354215         9.6387 
 173   0.0000       0.357290         9.7224 
 174   0.0000       0.361480         9.8364 
 175   0.0000       0.362921         9.8756 
 176   0.0000       0.367996        10.0137 
 177   0.0000       0.369922        10.0661 
 178   0.0000       0.372638        10.1400 
 179   0.0000       0.378760        10.3066 
 180   0.0000       0.383067        10.4238 
 181   0.0000       0.386466        10.5163 
 182   0.0000       0.390080        10.6146 
 183   0.0000       0.391674        10.6580 
 184   0.0000       0.398847        10.8532 
 185   0.0000       0.400566        10.9000 
 186   0.0000       0.402182        10.9439 
 187   0.0000       0.403755        10.9867 
 188   0.0000       0.409551        11.1445 
 189   0.0000       0.411659        11.2018 
 190   0.0000       0.414006        11.2657 
 191   0.0000       0.416353        11.3295 
 192   0.0000       0.420147        11.4328 
 193   0.0000       0.429065        11.6755 
 194   0.0000       0.430083        11.7032 
 195   0.0000       0.434621        11.8267 
 196   0.0000       0.437652        11.9091 
 197   0.0000       0.441521        12.0144 
 198   0.0000       0.442309        12.0359 
 199   0.0000       0.449779        12.2391 
 200   0.0000       0.452060        12.3012 
 201   0.0000       0.454200        12.3594 
 202   0.0000       0.456891        12.4326 
 203   0.0000       0.460817        12.5395 
 204   0.0000       0.463613        12.6155 
 205   0.0000       0.469299        12.7703 
 206   0.0000       0.472350        12.8533 
 207   0.0000       0.476283        12.9603 
 208   0.0000       0.479250        13.0411 
 209   0.0000       0.480108        13.0644 
 210   0.0000       0.485758        13.2182 
 211   0.0000       0.491015        13.3612 
 212   0.0000       0.492556        13.4031 
 213   0.0000       0.495309        13.4780 
 214   0.0000       0.501585        13.6488 
 215   0.0000       0.503332        13.6964 
 216   0.0000       0.505303        13.7500 
 217   0.0000       0.509371        13.8607 
 218   0.0000       0.512461        13.9448 
 219   0.0000       0.514509        14.0005 
 220   0.0000       0.519511        14.1366 
 221   0.0000       0.523692        14.2504 
 222   0.0000       0.526530        14.3276 
 223   0.0000       0.529357        14.4045 
 224   0.0000       0.530783        14.4433 
 225   0.0000       0.532172        14.4811 
 226   0.0000       0.537038        14.6135 
 227   0.0000       0.539551        14.6819 
 228   0.0000       0.541954        14.7473 
 229   0.0000       0.545041        14.8313 
 230   0.0000       0.548082        14.9141 
 231   0.0000       0.551462        15.0061 
 232   0.0000       0.554280        15.0827 
 233   0.0000       0.555526        15.1166 
 234   0.0000       0.561847        15.2886 
 235   0.0000       0.567538        15.4435 
 236   0.0000       0.571935        15.5631 
 237   0.0000       0.574573        15.6349 
 238   0.0000       0.578250        15.7350 
 239   0.0000       0.579235        15.7618 
 240   0.0000       0.584522        15.9056 
 241   0.0000       0.587427        15.9847 
 242   0.0000       0.588797        16.0220 
 243   0.0000       0.593556        16.1515 
 244   0.0000       0.600192        16.3320 
 245   0.0000       0.601849        16.3772 
 246   0.0000       0.607287        16.5251 
 247   0.0000       0.611951        16.6520 
 248   0.0000       0.615482        16.7481 
 249   0.0000       0.617701        16.8085 
 250   0.0000       0.622929        16.9508 
 251   0.0000       0.625777        17.0283 
 252   0.0000       0.628395        17.0995 
 253   0.0000       0.629935        17.1414 
 254   0.0000       0.631363        17.1803 
 255   0.0000       0.641286        17.4503 
 256   0.0000       0.648600        17.6493 
 257   0.0000       0.651244        17.7213 
 258   0.0000       0.652407        17.7529 
 259   0.0000       0.661279        17.9943 
 260   0.0000       0.663306        18.0495 
 261   0.0000       0.669520        18.2186 
 262   0.0000       0.675273        18.3751 
 263   0.0000       0.680736        18.5238 
 264   0.0000       0.682620        18.5750 
 265   0.0000       0.683884        18.6094 
 266   0.0000       0.687666        18.7123 
 267   0.0000       0.698000        18.9935 
 268   0.0000       0.699505        19.0345 
 269   0.0000       0.704898        19.1812 
 270   0.0000       0.709536        19.3075 
 271   0.0000       0.710648        19.3377 
 272   0.0000       0.713481        19.4148 
 273   0.0000       0.718784        19.5591 
[...]
  | sigma^2 in % of trace(Dij) retained ...   8.64e+00
  | sigma^2 in % of trace(Dip) retained ...   1.67e+01
  | sigma^2 in % of trace(Dpq) retained ...   1.38e-01
  | Av. % of trace(Di) retained         ...  99.998484525608
  | Av. % of trace(Dp) retained         ...  99.999999254381
  | sigma^2 in % of trace(Di) retained  ...   7.93e-07
  | sigma^2 in % of trace(Dp) retained  ...   4.42e-13
 Distributions of % trace(Dij) recovered:
  |       >= 99.9  ...   105 ( 20.8 % of all IJ-pairs)
  |   [80.0, 90.0) ...    33 (  6.5 % of all IJ-pairs)
  |   [90.0, 99.0) ...   273 ( 54.2 % of all IJ-pairs)
  |   [99.0, 99.9) ...    93 ( 18.5 % of all IJ-pairs)
 Distributions of % trace(Dip) recovered:
  |   [80.0, 90.0) ...    11 (  9.4 % of all IP-pairs)
  |   [90.0, 99.0) ...    64 ( 54.7 % of all IP-pairs)
  |   [99.0, 99.9) ...    42 ( 35.9 % of all IP-pairs)
 Distributions of % trace(Dpq) recovered:
  |       >= 99.9  ...     5 ( 33.3 % of all PQ-pairs)
  |   [99.0, 99.9) ...    10 ( 66.7 % of all PQ-pairs)
 Distributions of % trace(Di) recovered :
  |       >= 99.9  ...    43 (100.0 % of all I-pairs )
 Distributions of % trace(Dp) recovered :
  |       >= 99.9  ...     5 (100.0 % of all P-pairs )

                       ===========================
                       1107 OF 1649 PAIRS ARE KEPT
                       ===========================

 Initial PAO correlation energy (all pairs)    ...  -2.6958082412 Eh
 Energy constituents in PAO basis (Eh):
  | Vijab(+0) ...  -2.2666310793
  | Viab (-1) ...  -0.1752300136
  | Vab  (-2) ...  -0.0573683957
  | Va   (-1) ...  -0.0000420984
  | Vija (+1) ...  -0.0726477328
  | Vij  (+2) ...  -0.0155032444
  | Via  (+0) ...  -0.1082263591
  | Vi   (+1) ...  -0.0001593178
 Initial PNO correlation energy                ...  -2.6620178829 Eh
 Energy constituents in PNO basis (Eh):
  | Vijab(+0) ...  -2.2487318314 (err=  0.0178992479)
  | Viab (-1) ...  -0.1609527629 (err=  0.0142772507)
  | Vab  (-2) ...  -0.0568987506 (err=  0.0004696452)
  | Va   (-1) ...  -0.0000242181 (err=  0.0000178803)
  | Vija (+1) ...  -0.0716687613 (err=  0.0009789715)
  | Vij  (+2) ...  -0.0154535667 (err=  0.0000496777)
  | Via  (+0) ...  -0.1081289941 (err=  0.0000973650)
  | Vi   (+1) ...  -0.0001589977 (err=  0.0000003201)
 Sum of total truncation errors ...   0.0337903583 Eh
  | Pair screening ...   0.0106296130 Eh
  | PNO truncation ...   0.0231607453 Eh

 UMP2 correlation energy (PAO) ...  -2.6909268770
  | alpha-alpha ...  -0.3873044158 (NP_aa=  894)
  | alpha-beta  ...  -1.9958911410 (NP_ab= 1624)
  | beta -beta  ...  -0.3077313201 (NP_bb=  697)
 UMP2 correlation energy (PNO) ...  -2.6567562918
  | alpha-alpha ...  -0.3753952082 (err=  0.0119092076, NP_aa=  588)
  | alpha-beta  ...  -1.9774772207 (err=  0.0184139203, NP_ab= 1082)
  | beta -beta  ...  -0.3038838629 (err=  0.0038474573, NP_bb=  461)
 Sum of total UMP2 truncation errors ...   0.0341705852 Eh
  | Pair screening ...   0.0106438765 Eh
  | PNO truncation ...   0.0235267087 Eh
 Timing for NEV-PNO construction (sec.)
  | Intermediate construction  ..           44.368
  | Amplitude construction     ..           62.475
  | Total time                 ..          106.843
 Making pair pair interaction lists ...      ok
 Total size for 2-ext PNO integrals ...     11.0 MB
Checking the number of SOMO/SOMO doubles PNOs ... 
 #Truncate: (72, 72)[159] -> [86] .. 
 #Truncate: (73, 73)[161] -> [86] .. 
 #Truncate: (74, 74)[161] -> [86] .. 
 #Truncate: (75, 75)[161] -> [86] .. 
 #Truncate: (76, 76)[163] -> [86] .. 

--------------------------------
LOCAL RI TRANSFORMATION (VABPAO)
--------------------------------

Number of PAOs:    1030
Basis functions:   1025 (343 shells)
Aux. functions:    2424 (644 shells)

Processing maps (0.0 sec)
Average map sizes:
   Aux shells -> PAOs           1030.0
   PAOs       -> AO shells       343.0

Calculating integrals (196.5 sec, 37370.165 MB)
Finished
-----------------------------
LOCAL RI TRANSFORMATION (IJV)
-----------------------------

Orbital window:      29 to 76
Basis functions:   1025 (343 shells)
Aux. functions:    2424 (644 shells)

Processing maps (0.0 sec)
Average map sizes:
   Aux shells -> MOs(i)           45.3
   Aux shells -> MOs(j)           48.0
   MOs        -> AO shells       339.6

Calculating integrals (23.0 sec, 40.366 MB)
Sorting integrals (0.3 sec, 40.339 MB)
Total time for the integral transformation: 23.4 sec


-------------------------------------
Pair Pair Term precalculation with     
RI-(ij|mn) and (im|jn) transformation  
ON THE FLY                             
-------------------------------------

   IBatch   1 (of   2)              ... done ( 1110.676 sec)
   IBatch   2 (of   2)              ... done ( 1207.515 sec)
Total EXT                           ...        2318.190 sec

---------------------
RI-PNO TRANSFORMATION
---------------------

Total Number of PNOs                   ... 34908
Total Number of IJ-PNOs                ... 30736
Total Number of IP-PNOs                ...  3218
Total Number of PQ-PNOs                ...   954
Total Number of IJ-pairs               ...   965
Total Number of PI-pairs               ...   117
Total Number of PQ-pairs               ...    25
Average number of PNOs per pair        ...    31
Maximal number of PNOs per pair        ...    86
>> Statistics for ij-pairs..
   #pairs with  1 -  5 PNOs   :    0
   #pairs with  6 - 10 PNOs   :    0
   #pairs with 11 - 15 PNOs   :   42
   #pairs with 16 - 20 PNOs   :  236
   #pairs with 21 - 25 PNOs   :  162
   #pairs with 26 - 30 PNOs   :  158
   #pairs with 31 - 35 PNOs   :   68
   #pairs with 36 - 40 PNOs   :   50
   #pairs with 41 - 45 PNOs   :   54
   #pairs with 46 - 50 PNOs   :   23
   #pairs with 51 - 55 PNOs   :   38
   #pairs with 56 - 60 PNOs   :   50
   #pairs with 61 - 65 PNOs   :   73
   #pairs with 66 - 70 PNOs   :    8
   #pairs with 71 - 75 PNOs   :    3
>> Statistics for ip-pairs..
   #pairs with  1 -  5 PNOs   :    0
   #pairs with  6 - 10 PNOs   :    2
   #pairs with 11 - 15 PNOs   :   14
   #pairs with 16 - 20 PNOs   :    4
   #pairs with 21 - 25 PNOs   :   27
   #pairs with 26 - 30 PNOs   :   11
   #pairs with 31 - 35 PNOs   :   47
   #pairs with 36 - 40 PNOs   :   12
   #pairs with 41 - 45 PNOs   :    0
   #pairs with 46 - 50 PNOs   :    0
>> Statistics for pq-pairs..
   #pairs with  1 -  5 PNOs   :    0
   #pairs with  6 - 10 PNOs   :    0
   #pairs with 11 - 15 PNOs   :    0
   #pairs with 16 - 20 PNOs   :    0
   #pairs with 21 - 25 PNOs   :   12
   #pairs with 26 - 30 PNOs   :    8
   #pairs with 31 - 35 PNOs   :    0
   #pairs with 36 - 40 PNOs   :    0
   #pairs with 41 - 45 PNOs   :    0
   #pairs with 46 - 50 PNOs   :    0
   #pairs with 86 - 90 PNOs   :    5

Generation of (ij|ab)[P] integrals            ... on
Generation of (ia|bc)[P],(ja|bc)[P] integrals ... on
Storage of 3 and 4 external integrals         ... on
Generation of ALL (ka|bc)[P] integrals        ... on
Keep RI integrals in memory                   ... off

Ibatch:  1 (of  1)
Starting 2-4 index PNO integral generation ... done

Timings:
Total PNO integral transformation time     ...       2183.096 sec
Size of the 3-external file                ...       291 MB
Size of the 4-external file                ...      1982 MB
Size of the IKJL file                      ...        18 MB
Size of the all 3-external file            ...      7007 MB
Size of the 1-external file                ...        22 MB

Size of the PAO/PNO coefficient matrices   ...     224.5 MB

Making pair/pair overlap matrices          ... done (  373.351 sec)
Size of the pair overlap file              ...    2475.0 MB
Total # unrestricted pairs ...       2131
  # of alpha-alpha pairs   ...        588
  # of alpha-beta pairs    ...       1082
  # of beta-beta pairs     ...        461
Constructing the guess amplitudes          ... done (    0.731 sec)

-------------------------
FINAL STARTUP INFORMATION
-------------------------

E(0)                                       ...  -3028.426036436
E(SL-UMP2 in NEV-PNO space)                ...     -2.691931208
Initial E(tot)                             ...  -3031.117967645
<T|T>                                      ...      0.535837687
Number of unrestricted pairs included      ... 2131
Total number of pairs                      ... 4095
----------------------------------------------------------
                     OPEN-SHELL COUPLED CLUSTER ITERATIONS
----------------------------------------------------------

Number of PNO amplitudes to be optimized        ...          2158386
Number of canonical amplitudes for strong pairs ...       1924735192
Untruncated number of canonical amplitudes      ...       3698645738

Iter       E(tot)           E(Corr)          Delta-E          Residual     Time
  0  -3031.125147624     -2.663936271      0.027994938      0.020903955 2048.58
                           *** Turning on DIIS ***
  1  -3031.236577078     -2.775365725     -0.111429455      0.009397375 2005.97
  2  -3031.300815433     -2.839604080     -0.064238355      0.008292170 2040.39
  3  -3031.321785780     -2.860574427     -0.020970347      0.003231833 2016.87
  4  -3031.328936644     -2.867725291     -0.007150864      0.002645506 2032.46
  5  -3031.332695712     -2.871484359     -0.003759068      0.001898953 2016.31
  6  -3031.334088747     -2.872877394     -0.001393034      0.000907767 2033.13
  7  -3031.334888403     -2.873677050     -0.000799656      0.000398065 2033.26
  8  -3031.335050601     -2.873839248     -0.000162198      0.000197893 2040.85
  9  -3031.335099491     -2.873888138     -0.000048890      0.000145752 2031.13
 10  -3031.335093577     -2.873882224      0.000005914      0.000107049 1992.40
 11  -3031.335105399     -2.873894046     -0.000011822      0.000066543 2033.12
 12  -3031.335111891     -2.873900538     -0.000006492      0.000035098 1866.89
 13  -3031.335114277     -2.873902924     -0.000002386      0.000017088 1760.07
 14  -3031.335115027     -2.873903674     -0.000000750      0.000008503 1726.65
               --- The CCSD iterations have converged ---

E(0)                                       ...  -3028.426036436
E(CORR)(strong-pairs)                      ...     -2.873903674
E(CORR)(weak-pairs)                        ...     -0.035174917
E(CORR)(corrected)                         ...     -2.909078590
E(TOT)                                     ...  -3031.335115027
Singles norm <S|S>**1/2                    ...      0.199045876 ( 0.071436525, 0.127609351)  
T1 diagnostic                              ...      0.020865677                              
<S**2>(linearized)                         ...      8.7507597 (ideal value:      8.7500000)

----------------------
LARGEST PNO AMPLITUDES
----------------------
  71a-> 77a  71b-> 77b       0.058956
  50b-> 73b  -1b-> -1b       0.054583
  51b-> 73b  -1b-> -1b       0.051125
  48b-> 72b  -1b-> -1b       0.048977
  71a-> 78a  71b-> 78b       0.048338
  29a-> 77a  -1a-> -1a       0.048242
  71a-> 77a  -1a-> -1a       0.047891
  29b-> 77b  -1b-> -1b       0.046733
  48b-> 74b  -1b-> -1b       0.046546
  48b-> 75b  -1b-> -1b       0.044749
  62a-> 77a  62b-> 77b       0.044555
  68a-> 77a  68b-> 77b       0.043668
  71b-> 77b  -1b-> -1b       0.043579
  66a-> 77a  66b-> 77b       0.043521
  58a-> 77a  58b-> 77b       0.043134
  61a-> 77a  61b-> 77b       0.042776

Total # unrestricted pairs ...       1084
  # of alpha-alpha pairs   ...        306
  # of alpha-beta pairs    ...        542
  # of beta-beta pairs     ...        236

-------------------------------------------
DLPNO BASED TRIPLES CORRECTION
-------------------------------------------

Singles multiplier          ...  1.000000
Fragment selection                          .... not used
TCutTNO                     ... 1.000e-09
TCutMP2Pairs                ... 1.000e-05
TCutDOStrong                ... 2.000e-02
TCutMKNStrong               ... 1.000e-02
TCutDOWeak                  ... 4.000e-02
TCutMKNWeak                 ... 1.000e-01
NTCutTNO                    ... 1

Number of Triples that are to be computed         ...     33288

 . . . . . . . . .
10% done  
20% done  
30% done  
40% done  
50% done  
60% done  
70% done  
80% done  
90% done  
          Batch   1   done (  15914.805 sec)

Triples-Correction TCutTNO=   1.000e-09 (NWeakPairs = 0  1  2  3)  -0.117999812889   -0.001901373049    0.000000000000    0.000000000000
Triples-Correction  -0.119901185938

Triples timings:
Total time                      ... 16545.215 sec

Triples List generation         ...     0.000 sec
TNO generation                  ...   630.171 sec
Pair density generation         ...     0.087 sec
Look up tables                  ...     0.109 sec
Generating 3-index integrals    ... 10338.039 sec
Make 4-ind.int. from 3-ind.int  ...     3.841 sec
Projecting amplitudes (D + S)   ...  5311.709 sec
Sorting integrals for spin cases...    53.628 sec
Calculate W0/W1                 ...   167.287 sec
Energy contr. (sum over a,b,c)  ...    40.173 sec

Everything after 3-index        ...  5723.128 sec

Energy contribution AAA         ...    25.222 sec
Energy contribution AAB         ...   116.009 sec
Energy contribution ABB         ...   105.947 sec
Energy contribution BBB         ...    13.945 sec
prep                ...     3.179 sec
makeTTNO            ...  5256.136 sec
copyij              ...     0.126 sec
copyil              ...     4.047 sec
transposeij         ...     0.078 sec
newMatInDoubleProj  ...    50.622 sec
BlasInDoubleProj    ...  2857.423 sec
ProjSingles         ...    45.795 sec
ProjDoubles         ...  5265.914 sec
overall Doubles for projection      ... 2940231
used Doubles for projection         ... 2940231


Number of Triples   (0, 1, 2, 3 weak pairs; overall):  16881   10684       0       0  ( 27565)
Number of Atoms     (0, 1, 2, 3 weak pairs; overall):   19.5    15.0     0.0     0.0  (    29)
Number of PAOs      (0, 1, 2, 3 weak pairs; overall):  757.1   607.2     0.0     0.0  (  1025)
Number of AuxFcns   (0, 1, 2, 3 weak pairs; overall):  991.1   576.4     0.0     0.0  (  2424)
Number of TNOs (0, 1, 2, 3 weak pairs         ):   80.0    58.0     0.0     0.0
Aver. Number of NTNO, Atoms, PAOs, AuxFcns / Triples:  27565    71.5    17.7   699.0   830.4

Triples Correction (T)                     ...     -0.119901186
    alpha-alpha-alpha ... -0.003960109 (  3.3%)
    alpha-alpha-beta  ... -0.056270545 ( 46.9%)
    alpha-beta -beta  ... -0.055503375 ( 46.3%)
    beta -beta -beta  ... -0.004167157 (  3.5%)
Final correlation energy                   ...     -3.028979776
E(CCSD)                                    ...  -3031.335115027
E(CCSD(T))                                 ...  -3031.455016213

----------------------------
STATISTICS FOR PAIR-ENERGIES
----------------------------
Minimum, maximum and average ratios of UMP and CCSD pair-energies ... 0.52, 1.42, 1.02


------------------------------------------------------------------------------- 
                                     TIMINGS                                   
------------------------------------------------------------------------------- 


Total execution time                   ...    54713.198 sec

Localization of occupied MO's          ...       10.965 sec (  0.0%)
Fock Matrix Formation                  ...     1432.528 sec (  2.6%)
Differential overlap integrals         ...        1.444 sec (  0.0%)
Organizing maps                        ...        1.687 sec (  0.0%)
RI 3-index integral generations        ...      283.676 sec (  0.5%)
RI-PNO integral transformation         ...     5039.925 sec (  9.2%)
Initial Guess                          ...     1807.966 sec (  3.3%)
DIIS Solver                            ...       15.465 sec (  0.0%)
State Vector Update                    ...        0.751 sec (  0.0%)
Sigma-vector construction              ...    29678.082 sec ( 54.2%)
  <0|H|D>                              ...        0.032 sec (  0.0% of sigma)
  <D|H|D>(0-ext)                       ...     5946.490 sec ( 20.0% of sigma)
  <D|H|D>(2-ext Fock)                  ...        1.763 sec (  0.0% of sigma)
  <D|H|D>(2-ext)                       ...     4145.251 sec ( 14.0% of sigma)
  <D|H|D>(4-ext)                       ...      167.665 sec (  0.6% of sigma)
  <D|H|D>(4-ext-corr)                  ...     1041.905 sec (  3.5% of sigma)
  CCSD doubles correction              ...      603.218 sec (  2.0% of sigma)
  <S|H|S>                              ...      770.809 sec (  2.6% of sigma)
  <S|H|D>(1-ext)                       ...      240.795 sec (  0.8% of sigma)
  <D|H|S>(1-ext)                       ...        0.682 sec (  0.0% of sigma)
  <S|H|D>(3-ext)                       ...       22.888 sec (  0.1% of sigma)
  CCSD singles correction              ...        0.004 sec (  0.0% of sigma)
  Fock-dressing                        ...     8960.798 sec ( 30.2% of sigma)
  Singles amplitudes                   ...      106.483 sec (  0.4% of sigma)
  (ik|jl)-dressing                     ...     5934.145 sec ( 20.0% of sigma)
  (ij|ab),(ia|jb)-dressing             ...     1690.930 sec (  5.7% of sigma)
  Pair energies                        ...        0.128 sec (  0.0% of sigma)
Total Time for computing (T)           ...    16779.162 sec ( 30.7% of ALL)


-------------------------   --------------------
FINAL SINGLE POINT ENERGY     -3031.455016212857
-------------------------   --------------------


                            ***************************************
                            *     ORCA property calculations      *
                            ***************************************

                                    ---------------------
                                    Active property flags
                                    ---------------------
   (+) Dipole Moment


------------------------------------------------------------------------------
                       ORCA ELECTRIC PROPERTIES CALCULATION
------------------------------------------------------------------------------

Dipole Moment Calculation                       ... on
Quadrupole Moment Calculation                   ... off
Polarizability Calculation                      ... off
GBWName                                         ... simple-grid-180-295-b3lyp_d3bj-631gd-gas-singlepoint-DLPNO_CCSD_T1-NormalPNO-augtz-gas.gbw
Electron density file                           ... simple-grid-180-295-b3lyp_d3bj-631gd-gas-singlepoint-DLPNO_CCSD_T1-NormalPNO-augtz-gas.scfp.tmp
The origin for moment calculation is the CENTER OF MASS  = ( 0.331715,  0.044295 -0.011357)

-------------
DIPOLE MOMENT
-------------
                                X             Y             Z
Electronic contribution:     43.43865       6.38707      -1.70487
Nuclear contribution   :    -49.42564      -6.59989       1.69221
                        -----------------------------------------
Total Dipole Moment    :     -5.98699      -0.21282      -0.01265
                        -----------------------------------------
Magnitude (a.u.)       :      5.99078
Magnitude (Debye)      :     15.22736



--------------------
Rotational spectrum 
--------------------
 
Rotational constants in cm-1:     0.020326     0.009965     0.009548 
Rotational constants in MHz :   609.348063   298.753138   286.245007 

 Dipole components along the rotational axes: 
x,y,z [a.u.] :    -5.987338     0.186854    -0.079816 
x,y,z [Debye]:   -15.218604     0.474946    -0.202875 

 

Timings for individual modules:

Sum of individual times         ...    74460.335 sec (=1241.006 min)
GTO integral calculation        ...       12.078 sec (=   0.201 min)   0.0 %
SCF iterations                  ...    19718.663 sec (= 328.644 min)  26.5 %
MDCI module                     ...    54729.594 sec (= 912.160 min)  73.5 %
                             ****ORCA TERMINATED NORMALLY****
TOTAL RUN TIME: 0 days 20 hours 41 minutes 2 seconds 777 msec
