
                                 *****************
                                 * O   R   C   A *
                                 *****************

           --- An Ab Initio, DFT and Semiempirical electronic structure package ---

                  #######################################################
                  #                        -***-                        #
                  #          Department of theory and spectroscopy      #
                  #               Directorship: Frank Neese             #
                  #        Max Planck Institute fuer Kohlenforschung    #
                  #                Kaiser Wilhelm Platz 1               #
                  #                 D-45470 Muelheim/Ruhr               #
                  #                      Germany                        #
                  #                                                     #
                  #                  All rights reserved                #
                  #                        -***-                        #
                  #######################################################


                         Program Version 4.1.2  - RELEASE  -


 With contributions from (in alphabetic order):
   Daniel Aravena         : Magnetic Properties
   Michael Atanasov       : Ab Initio Ligand Field Theory
   Alexander A. Auer      : GIAO ZORA
   Ute Becker             : Parallelization
   Giovanni Bistoni       : ED, Open-shell LED
   Martin Brehm           : Molecular dynamics
   Dmytro Bykov           : SCF Hessian
   Vijay G. Chilkuri      : MRCI spin determinant printing
   Dipayan Datta          : RHF DLPNO-CCSD density
   Achintya Kumar Dutta   : EOM-CC, STEOM-CC
   Dmitry Ganyushin       : Spin-Orbit,Spin-Spin,Magnetic field MRCI
   Miquel Garcia          : C-PCM Hessian
   Yang Guo               : DLPNO-NEVPT2, CIM, IAO-localization
   Andreas Hansen         : Spin unrestricted coupled pair/coupled cluster methods
   Benjamin Helmich-Paris : CASSCF linear response (MC-RPA)
   Lee Huntington         : MR-EOM, pCC
   Robert Izsak           : Overlap fitted RIJCOSX, COSX-SCS-MP3, EOM
   Christian Kollmar      : KDIIS, OOCD, Brueckner-CCSD(T), CCSD density
   Simone Kossmann        : Meta GGA functionals, TD-DFT gradient, OOMP2, MP2 Hessian
   Martin Krupicka        : AUTO-CI
   Lucas Lang             : DCDCAS
   Dagmar Lenk            : GEPOL surface, SMD
   Dimitrios Liakos       : Extrapolation schemes; parallel MDCI
   Dimitrios Manganas     : ROCIS; embedding schemes
   Dimitrios Pantazis     : SARC Basis sets
   Taras Petrenko         : DFT Hessian,TD-DFT gradient, ASA, ECA, R-Raman, ABS, FL, XAS/XES, NRVS
   Peter Pinski           : DLPNO-MP2, DLPNO-MP2 Gradient
   Christoph Reimann      : Effective Core Potentials
   Marius Retegan         : Local ZFS, SOC
   Christoph Riplinger    : Optimizer, TS searches, QM/MM, DLPNO-CCSD(T), (RO)-DLPNO pert. Triples
   Tobias Risthaus        : Range-separated hybrids, TD-DFT gradient, RPA, STAB
   Michael Roemelt        : Restricted open shell CIS
   Masaaki Saitow         : Open-shell DLPNO
   Barbara Sandhoefer     : DKH picture change effects
   Avijit Sen             : IP-ROCIS
   Kantharuban Sivalingam : CASSCF convergence, NEVPT2, FIC-MRCI
   Bernardo de Souza      : ESD, SOC TD-DFT
   Georgi Stoychev        : AutoAux, RI-MP2 NMR
   Willem Van den Heuvel  : Paramagnetic NMR
   Boris Wezisla          : Elementary symmetry handling
   Frank Wennmohs         : Technical directorship


 We gratefully acknowledge several colleagues who have allowed us to
 interface, adapt or use parts of their codes:
   Stefan Grimme, W. Hujo, H. Kruse,             : VdW corrections, initial TS optimization,
                  C. Bannwarth                     DFT functionals, gCP, sTDA/sTD-DF
   Ed Valeev                                     : LibInt (2-el integral package), F12 methods
   Garnet Chan, S. Sharma, J. Yang, R. Olivares  : DMRG
   Ulf Ekstrom                                   : XCFun DFT Library
   Mihaly Kallay                                 : mrcc  (arbitrary order and MRCC methods)
   Andreas Klamt, Michael Diedenhofen            : otool_cosmo (COSMO solvation model)
   Jiri Pittner, Ondrej Demel                    : Mk-CCSD
   Frank Weinhold                                : gennbo (NPA and NBO analysis)
   Christopher J. Cramer and Donald G. Truhlar   : smd solvation model
   Lars Goerigk                                  : TD-DFT with DH, B97 family of functionals
   V. Asgeirsson, H. Jonsson                     : NEB implementation
   FAccTs GmbH                                   : IRC, NEB, NEB-TS, Multilevel


 Your calculation uses the libint2 library for the computation of 2-el integrals
 For citations please refer to: http://libint.valeyev.net

 This ORCA versions uses:
   CBLAS   interface :  Fast vector & matrix operations
   LAPACKE interface :  Fast linear algebra routines
   SCALAPACK package :  Parallel linear algebra routines


----- Orbital basis set information -----
Your calculation utilizes the basis: aug-cc-pVTZ 
    H, B-Ne : Obtained from the ccRepo (grant-hill.group.shef.ac.uk/ccrepo) Feb. 2017
              R. A. Kendall, T. H. Dunning, Jr., R. J. Harrison, J. Chem. Phys. 96, 6796 (1992)
         He : Obtained from the ccRepo (grant-hill.group.shef.ac.uk/ccrepo) Feb. 2017
              D. E. Woon, T. H. Dunning, Jr., J. Chem. Phys. 100, 2975 (1994)
  Li-Be, Na : Obtained from the ccRepo (grant-hill.group.shef.ac.uk/ccrepo) Feb. 2017
              B. P. Prascher, D. E. Woon, K. A. Peterson, T. H. Dunning, Jr., A. K. Wilson, Theor. Chem. Acc. 128, 69 (2011)
         Mg : Obtained from the Peterson Research Group Website (tyr0.chem.wsu.edu/~kipeters) Feb. 2017
              B. P. Prascher, D. E. Woon, K. A. Peterson, T. H. Dunning, Jr., A. K. Wilson, Theor. Chem. Acc. 128, 69 (2011)
      Al-Ar : Obtained from the ccRepo (grant-hill.group.shef.ac.uk/ccrepo) Feb. 2017
              D. E. Woon, T. H. Dunning, Jr., J. Chem. Phys. 98, 1358 (1993)
      Sc-Zn : Obtained from the ccRepo (grant-hill.group.shef.ac.uk/ccrepo) Feb. 2017
              N. B. Balabanov, K. A. Peterson, J. Chem. Phys. 123, 064107 (2005)
              N. B. Balabanov, K. A. Peterson, J. Chem. Phys. 125, 074110 (2006)
      Ga-Kr : Obtained from the ccRepo (grant-hill.group.shef.ac.uk/ccrepo) Feb. 2017
              A. K. Wilson, D. E. Woon, K. A. Peterson, T. H. Dunning, Jr., J. Chem. Phys. 110, 7667 (1999)
     Ag, Au : Obtained from the Peterson Research Group Website (tyr0.chem.wsu.edu/~kipeters) Feb. 2017
              K. A. Peterson, C. Puzzarini, Theor. Chem. Acc. 114, 283 (2005)

----- AuxJ basis set information -----
Your calculation utilizes the AutoAux generation procedure.
  G. L. Stoychev, A. A. Auer, F. Neese, J. Chem. Theory Comput. 13, 554 (2017)

----- AuxC basis set information -----
Your calculation utilizes the auxiliary basis: aug-cc-pVTZ/C 
  H-He, B-F, Al-Ar, Ga-Kr : Obtained from the EMSL Basis Set Exchange (bse.pnl.gov) Feb. 2017
                            F. Weigend, A. Kohn, C. Hattig, J. Chem. Phys. 116, 3175 (2002)
                   Be, Mg : Obtained from the TURBOMOLE 7.0 basis set library
                            C. Haettig, Phys. Chem. Chem. Phys. 7, 59 (2005)
                       Ne : Obtained from the EMSL Basis Set Exchange (bse.pnl.gov) Feb. 2017
                            C. Haettig, Phys. Chem. Chem. Phys. 7, 59 (2005)
                            F. Weigend, A. Kohn, C. Hattig, J. Chem. Phys. 116, 3175 (2002)
                    Sc-Zn : Obtained from the EMSL Basis Set Exchange (bse.pnl.gov) Feb. 2017
                            J. G. Hill, J. A. Platts, J. Chem. Phys. 128, 044104 (2008)

----- AuxJK basis set information -----
Your calculation utilizes the AutoAux generation procedure.
  G. L. Stoychev, A. A. Auer, F. Neese, J. Chem. Theory Comput. 13, 554 (2017)

================================================================================
                                        WARNINGS
                       Please study these warnings very carefully!
================================================================================


WARNING: your system is open-shell and RHF/RKS was chosen
  ===> : WILL SWITCH to UHF/UKS


WARNING: MDCI localization with Augmented Hessian Foster-Boys
  ===> : Switching off randomization!

WARNING: Post HF methods need fully converged wavefunctions
  ===> : Setting SCFConvForced true
         You can overwrite this default with %scf ConvForced false 


INFO   : the flag for use of LIBINT has been found!

================================================================================
                                       INPUT FILE
================================================================================
NAME = simple-grid-170-290-b3lyp_d3bj-631gd-gas-singlepoint-DLPNO_CCSD_T1-NormalPNO-augtz-gas.inp
|  1> ! aug-cc-pVTZ aug-cc-pVTZ/C DLPNO-CCSD(T1) TightSCF NormalPNO UNO MiniPrint AutoAux
|  2> %pal nproc 10 end
|  3> %maxcore 20000
|  4> %mdci
|  5>      density none
|  6> end
|  7> 
|  8> * xyz 0 6
|  9>  O     -0.29943400     -0.09838000     -0.41248800
| 10>  C     -1.24983500     -1.03568600     -0.19916300
| 11>  C     -2.49374200     -0.37139500      0.75026600
| 12>  C     -3.07170600      0.67192600     -0.05034700
| 13>  C     -4.27983900      0.44154200     -0.87685300
| 14> Fe      1.52316200      0.17040400     -0.09423600
| 15> Cl      1.84329400      2.19784600     -0.89713500
| 16>  C     -2.33593900      1.92398800     -0.18697800
| 17> Cl      2.55008800     -1.46664900     -1.15080400
| 18> Cl      1.84947300      0.08814900      2.09590800
| 19>  H     -3.19122900     -1.20509300      0.86571900
| 20>  H     -2.79512100      2.65605300     -0.85198700
| 21>  H     -2.06707300      2.37271500      0.77490000
| 22>  H     -1.34205200      1.58127000     -0.58580200
| 23>  H     -5.09458400      1.04051000     -0.43869200
| 24>  H     -4.14355200      0.82277300     -1.89610000
| 25>  H     -4.59456600     -0.60281400     -0.89820500
| 26>  C     -1.89789300      0.07701900      2.09487500
| 27>  H     -2.58683800      0.74928700      2.61587300
| 28>  H     -1.73248600     -0.78945500      2.73632800
| 29>  H     -0.93882600      0.58000200      1.96239500
| 30>  C     -0.73459900     -2.21975600      0.63983100
| 31>  H     -1.53740400     -2.91750900      0.89639600
| 32>  H      0.00617900     -2.74264100      0.02612100
| 33>  H     -0.23193600     -1.88213300      1.54652200
| 34>  C     -1.81724600     -1.53080400     -1.53584600
| 35>  H     -1.02306100     -2.07772500     -2.05211400
| 36>  H     -2.67154100     -2.20328700     -1.40239300
| 37>  H     -2.10638200     -0.69530500     -2.17913600
| 38> *
| 39> 
| 40> 
| 41>                          ****END OF INPUT****
================================================================================

                       ****************************
                       * Single Point Calculation *
                       ****************************

---------------------------------
CARTESIAN COORDINATES (ANGSTROEM)
---------------------------------
  O     -0.299434   -0.098380   -0.412488
  C     -1.249835   -1.035686   -0.199163
  C     -2.493742   -0.371395    0.750266
  C     -3.071706    0.671926   -0.050347
  C     -4.279839    0.441542   -0.876853
  Fe     1.523162    0.170404   -0.094236
  Cl     1.843294    2.197846   -0.897135
  C     -2.335939    1.923988   -0.186978
  Cl     2.550088   -1.466649   -1.150804
  Cl     1.849473    0.088149    2.095908
  H     -3.191229   -1.205093    0.865719
  H     -2.795121    2.656053   -0.851987
  H     -2.067073    2.372715    0.774900
  H     -1.342052    1.581270   -0.585802
  H     -5.094584    1.040510   -0.438692
  H     -4.143552    0.822773   -1.896100
  H     -4.594566   -0.602814   -0.898205
  C     -1.897893    0.077019    2.094875
  H     -2.586838    0.749287    2.615873
  H     -1.732486   -0.789455    2.736328
  H     -0.938826    0.580002    1.962395
  C     -0.734599   -2.219756    0.639831
  H     -1.537404   -2.917509    0.896396
  H      0.006179   -2.742641    0.026121
  H     -0.231936   -1.882133    1.546522
  C     -1.817246   -1.530804   -1.535846
  H     -1.023061   -2.077725   -2.052114
  H     -2.671541   -2.203287   -1.402393
  H     -2.106382   -0.695305   -2.179136

----------------------------
CARTESIAN COORDINATES (A.U.)
----------------------------
  NO LB      ZA    FRAG     MASS         X           Y           Z
   0 O     8.0000    0    15.999   -0.565848   -0.185911   -0.779489
   1 C     6.0000    0    12.011   -2.361846   -1.957163   -0.376364
   2 C     6.0000    0    12.011   -4.712489   -0.701835    1.417797
   3 C     6.0000    0    12.011   -5.804683    1.269756   -0.095142
   4 C     6.0000    0    12.011   -8.087724    0.834393   -1.657012
   5 Fe   26.0000    0    55.850    2.878359    0.322017   -0.178080
   6 Cl   17.0000    0    35.453    3.483321    4.153327   -1.695339
   7 C     6.0000    0    12.011   -4.414285    3.635810   -0.353337
   8 Cl   17.0000    0    35.453    4.818968   -2.771565   -2.174704
   9 Cl   17.0000    0    35.453    3.494997    0.166577    3.960692
  10 H     1.0000    0     1.008   -6.030549   -2.277296    1.635972
  11 H     1.0000    0     1.008   -5.282013    5.019213   -1.610022
  12 H     1.0000    0     1.008   -3.906202    4.483782    1.464349
  13 H     1.0000    0     1.008   -2.536111    2.988167   -1.107005
  14 H     1.0000    0     1.008   -9.627369    1.966279   -0.829008
  15 H     1.0000    0     1.008   -7.830179    1.554816   -3.583110
  16 H     1.0000    0     1.008   -8.682471   -1.139153   -1.697361
  17 C     6.0000    0    12.011   -3.586498    0.145545    3.958740
  18 H     1.0000    0     1.008   -4.888415    1.415947    4.943284
  19 H     1.0000    0     1.008   -3.273924   -1.491854    5.170911
  20 H     1.0000    0     1.008   -1.774124    1.096045    3.708389
  21 C     6.0000    0    12.011   -1.388191   -4.194731    1.209105
  22 H     1.0000    0     1.008   -2.905273   -5.513293    1.693943
  23 H     1.0000    0     1.008    0.011677   -5.182840    0.049362
  24 H     1.0000    0     1.008   -0.438296   -3.556716    2.922503
  25 C     6.0000    0    12.011   -3.434097   -2.892800   -2.902328
  26 H     1.0000    0     1.008   -1.933305   -3.926331   -3.877933
  27 H     1.0000    0     1.008   -5.048481   -4.163609   -2.650139
  28 H     1.0000    0     1.008   -3.980485   -1.313936   -4.117970



           ************************************************************
           *        Program running with 10 parallel MPI-processes    *
           *              working on a common directory               *
           ************************************************************


           ************************************************************
           *        Program running with 10 parallel MPI-processes    *
           *              working on a common directory               *
           ************************************************************

Diagonalization of the overlap matrix:
Smallest eigenvalue                        ... 6.352e-07
Time for diagonalization                   ...    0.390 sec
Threshold for overlap eigenvalues          ... 1.000e-08
Number of eigenvalues below threshold      ... 0
Time for construction of square roots      ...    0.343 sec
Total time needed                          ...    0.741 sec

-------------------
DFT GRID GENERATION
-------------------

General Integration Accuracy     IntAcc      ...  4.340
Radial Grid Type                 RadialGrid  ... Gauss-Chebyshev
Angular Grid (max. acc.)         AngularGrid ... Lebedev-110
Angular grid pruning method      GridPruning ... 3 (G Style)
Weight generation scheme         WeightScheme... Becke
Basis function cutoff            BFCut       ...    1.0000e-11
Integration weight cutoff        WCut        ...    1.0000e-14
Grids for H and He will be reduced by one unit

# of grid points (after initial pruning)     ...  36112 (   0.0 sec)
# of grid points (after weights+screening)   ...  32329 (   0.1 sec)
nearest neighbour list constructed           ...    0.0 sec
Grid point re-assignment to atoms done       ...    0.0 sec
Grid point division into batches done        ...    0.0 sec
Reduced shell lists constructed in    0.3 sec

Total number of grid points                  ...    32329
Total number of batches                      ...      523
Average number of points per batch           ...       61
Average number of grid points per atom       ...     1115
Average number of shells per batch           ...   293.81 (85.66%)
Average number of basis functions per batch  ...   872.96 (85.17%)
Average number of large shells per batch     ...   241.35 (82.14%)
Average number of large basis fcns per batch ...   716.06 (82.03%)
Maximum spatial batch extension              ...   3.29,  3.35,  3.51 au
Average spatial batch extension              ...   0.17,  0.17,  0.17 au

Time for grid setup =    0.408 sec

Loading Hartree-Fock densities                     ... done
Calculating cut-offs                               ... done
Setting up the integral package                    ... done
Initializing the effective Hamiltonian             ... done
Starting the Coulomb interaction                   ... done (   1.1 sec)
Reading the grid                                   ... done
Mapping shells                                     ... done
Starting the XC term evaluation                    ... done (   0.8 sec)
Transforming the Hamiltonian                       ... done (   0.2 sec)
Diagonalizing the Hamiltonian                      ... done (   0.3 sec)
Back transforming the eigenvectors                 ... done (   0.1 sec)
Now organizing SCF variables                       ... done
--------------
SCF ITERATIONS
--------------
ITER       Energy         Delta-E        Max-DP      RMS-DP      [F,P]     Damp
               ***  Starting incremental Fock matrix formation  ***
  0  -3027.5507924901   0.000000000000 0.35561494  0.00108965  0.2867762 0.7000
  1  -3027.8036982821  -0.252905791935 0.26397785  0.00085615  0.1644607 0.7000
                               ***Turning on DIIS***
  2  -3027.9730392461  -0.169340964031 0.18343403  0.00063013  0.1098696 0.7000
  3  -3029.6298275700  -1.656788323901 0.38658358  0.00157378  0.0824816 0.0000
  4  -3028.2913811702   1.338446399772 0.04849291  0.00022214  0.0198301 0.0000
  5  -3028.4059755404  -0.114594370181 0.03972119  0.00017136  0.0115159 0.0000
  6  -3028.4366150843  -0.030639543871 0.02130473  0.00007150  0.0054901 0.0000
  7  -3028.4564982617  -0.019883177431 0.00925844  0.00003476  0.0033471 0.0000
  8  -3028.4505395275   0.005958734215 0.00581519  0.00001975  0.0014413 0.0000
  9  -3028.4420060859   0.008533441582 0.00274252  0.00001226  0.0006784 0.0000
 10  -3028.4323589736   0.009647112339 0.00072754  0.00000388  0.0003481 0.0000
 11  -3028.4366802274  -0.004321253845 0.00039390  0.00000265  0.0001338 0.0000
 12  -3028.4330944246   0.003585802780 0.00030666  0.00000221  0.0000324 0.0000
 13  -3028.4336063183  -0.000511893654 0.00032397  0.00000185  0.0000144 0.0000
 14  -3028.4336955492  -0.000089230961 0.00164789  0.00000312  0.0000072 0.0000
 15  -3028.4336526802   0.000042869087 0.00056219  0.00000266  0.0000056 0.0000
 16  -3028.4337140937  -0.000061413501 0.00202968  0.00000345  0.0000042 0.0000
 17  -3028.4336999414   0.000014152255 0.00064624  0.00000337  0.0000031 0.0000
 18  -3028.4337016378  -0.000001696346 0.00089420  0.00000318  0.0000021 0.0000
 19  -3028.4337180595  -0.000016421725 0.00117567  0.00000311  0.0000010 0.0000
               *** Restarting incremental Fock matrix formation ***
                                   *** Resetting DIIS ***
                            ***DIIS convergence achieved***

               *****************************************************
               *                     SUCCESS                       *
               *           SCF CONVERGED AFTER  20 CYCLES          *
               *****************************************************

Total Energy       :        -3028.43371786 Eh          -82407.87100 eV
  Last Energy change         ...    1.9915e-07  Tolerance :   1.0000e-08
  Last MAX-Density change    ...    6.3810e-03  Tolerance :   1.0000e-07
             **** THE GBW FILE WAS UPDATED (simple-grid-170-290-b3lyp_d3bj-631gd-gas-singlepoint-DLPNO_CCSD_T1-NormalPNO-augtz-gas.gbw) ****
             **** DENSITY FILE WAS UPDATED (simple-grid-170-290-b3lyp_d3bj-631gd-gas-singlepoint-DLPNO_CCSD_T1-NormalPNO-augtz-gas.scfp.tmp) ****
             **** ENERGY FILE WAS UPDATED (simple-grid-170-290-b3lyp_d3bj-631gd-gas-singlepoint-DLPNO_CCSD_T1-NormalPNO-augtz-gas.en.tmp) ****
----------------------
UHF SPIN CONTAMINATION
----------------------

Expectation value of <S**2>     :     8.764388
Ideal value S*(S+1) for S=2.5   :     8.750000
Deviation                       :     0.014388

----------------
ORBITAL ENERGIES
----------------
                 SPIN UP ORBITALS
  NO   OCC          E(Eh)            E(eV) 
   0   1.0000    -261.537182     -7116.7885 
   1   1.0000    -104.765519     -2850.8147 
   2   1.0000    -104.764016     -2850.7738 
   3   1.0000    -104.762024     -2850.7196 
   4   1.0000     -32.205102      -876.3454 
   5   1.0000     -27.680994      -753.2382 
   6   1.0000     -27.680794      -753.2327 
   7   1.0000     -27.680586      -753.2270 
   8   1.0000     -20.536371      -558.8231 
   9   1.0000     -11.404124      -310.3220 
  10   1.0000     -11.348441      -308.8068 
  11   1.0000     -11.311298      -307.7961 
  12   1.0000     -11.292364      -307.2809 
  13   1.0000     -11.283332      -307.0351 
  14   1.0000     -11.255473      -306.2770 
  15   1.0000     -11.245591      -306.0081 
  16   1.0000     -11.233551      -305.6805 
  17   1.0000     -10.492146      -285.5058 
  18   1.0000     -10.490602      -285.4638 
  19   1.0000     -10.488642      -285.4105 
  20   1.0000      -7.959020      -216.5760 
  21   1.0000      -7.958199      -216.5536 
  22   1.0000      -7.958143      -216.5521 
  23   1.0000      -7.957427      -216.5326 
  24   1.0000      -7.956711      -216.5131 
  25   1.0000      -7.956606      -216.5103 
  26   1.0000      -7.955495      -216.4800 
  27   1.0000      -7.954739      -216.4595 
  28   1.0000      -7.954654      -216.4571 
  29   1.0000      -4.560570      -124.0994 
  30   1.0000      -3.173099       -86.3444 
  31   1.0000      -3.172700       -86.3336 
  32   1.0000      -3.172203       -86.3200 
  33   1.0000      -1.366387       -37.1813 
  34   1.0000      -1.205599       -32.8060 
  35   1.0000      -1.088266       -29.6132 
  36   1.0000      -1.047737       -28.5104 
  37   1.0000      -1.036275       -28.1985 
  38   1.0000      -1.031139       -28.0587 
  39   1.0000      -1.028899       -27.9978 
  40   1.0000      -1.024436       -27.8763 
  41   1.0000      -0.967544       -26.3282 
  42   1.0000      -0.932579       -25.3768 
  43   1.0000      -0.903364       -24.5818 
  44   1.0000      -0.890140       -24.2219 
  45   1.0000      -0.890081       -24.2203 
  46   1.0000      -0.881625       -23.9902 
  47   1.0000      -0.881279       -23.9808 
  48   1.0000      -0.805128       -21.9087 
  49   1.0000      -0.768409       -20.9095 
  50   1.0000      -0.716119       -19.4866 
  51   1.0000      -0.697780       -18.9876 
  52   1.0000      -0.678377       -18.4596 
  53   1.0000      -0.650134       -17.6911 
  54   1.0000      -0.646572       -17.5941 
  55   1.0000      -0.638181       -17.3658 
  56   1.0000      -0.612309       -16.6618 
  57   1.0000      -0.602877       -16.4051 
  58   1.0000      -0.593355       -16.1460 
  59   1.0000      -0.582952       -15.8629 
  60   1.0000      -0.576185       -15.6788 
  61   1.0000      -0.562440       -15.3048 
  62   1.0000      -0.552820       -15.0430 
  63   1.0000      -0.539168       -14.6715 
  64   1.0000      -0.530824       -14.4444 
  65   1.0000      -0.517023       -14.0689 
  66   1.0000      -0.498777       -13.5724 
  67   1.0000      -0.461536       -12.5590 
  68   1.0000      -0.456395       -12.4191 
  69   1.0000      -0.437322       -11.9001 
  70   1.0000      -0.427433       -11.6310 
  71   1.0000      -0.416463       -11.3325 
  72   1.0000      -0.412210       -11.2168 
  73   1.0000      -0.406533       -11.0623 
  74   1.0000      -0.403573       -10.9818 
  75   1.0000      -0.402820       -10.9613 
  76   1.0000      -0.401835       -10.9345 
  77   0.0000      -0.008109        -0.2207 
  78   0.0000      -0.000408        -0.0111 
  79   0.0000       0.016075         0.4374 
  80   0.0000       0.016728         0.4552 
  81   0.0000       0.026189         0.7126 
  82   0.0000       0.036572         0.9952 
  83   0.0000       0.037490         1.0202 
  84   0.0000       0.040695         1.1074 
  85   0.0000       0.043454         1.1824 
  86   0.0000       0.049444         1.3454 
  87   0.0000       0.056853         1.5471 
  88   0.0000       0.058431         1.5900 
  89   0.0000       0.059513         1.6194 
  90   0.0000       0.061730         1.6798 
  91   0.0000       0.064876         1.7654 
  92   0.0000       0.071386         1.9425 
  93   0.0000       0.074240         2.0202 
  94   0.0000       0.080208         2.1826 
  95   0.0000       0.085252         2.3198 
  96   0.0000       0.088736         2.4146 
  97   0.0000       0.090368         2.4590 
  98   0.0000       0.092428         2.5151 
  99   0.0000       0.096035         2.6133 
 100   0.0000       0.100364         2.7310 
 101   0.0000       0.104872         2.8537 
 102   0.0000       0.113028         3.0756 
 103   0.0000       0.114174         3.1068 
 104   0.0000       0.119196         3.2435 
 105   0.0000       0.122222         3.3258 
 106   0.0000       0.128914         3.5079 
 107   0.0000       0.130406         3.5485 
 108   0.0000       0.131705         3.5839 
 109   0.0000       0.133640         3.6365 
 110   0.0000       0.141054         3.8383 
 111   0.0000       0.143710         3.9105 
 112   0.0000       0.146387         3.9834 
 113   0.0000       0.150240         4.0882 
 114   0.0000       0.150841         4.1046 
 115   0.0000       0.155789         4.2392 
 116   0.0000       0.157397         4.2830 
 117   0.0000       0.158785         4.3208 
 118   0.0000       0.160799         4.3756 
 119   0.0000       0.161646         4.3986 
 120   0.0000       0.162907         4.4329 
 121   0.0000       0.168256         4.5785 
 122   0.0000       0.175541         4.7767 
 123   0.0000       0.176944         4.8149 
 124   0.0000       0.178597         4.8599 
 125   0.0000       0.185623         5.0511 
 126   0.0000       0.187199         5.0939 
 127   0.0000       0.190018         5.1706 
 128   0.0000       0.195455         5.3186 
 129   0.0000       0.202702         5.5158 
 130   0.0000       0.204361         5.5609 
 131   0.0000       0.208511         5.6739 
 132   0.0000       0.213599         5.8123 
 133   0.0000       0.216530         5.8921 
 134   0.0000       0.217942         5.9305 
 135   0.0000       0.219960         5.9854 
 136   0.0000       0.222832         6.0636 
 137   0.0000       0.226769         6.1707 
 138   0.0000       0.227887         6.2011 
 139   0.0000       0.228825         6.2267 
 140   0.0000       0.235778         6.4159 
 141   0.0000       0.238704         6.4955 
 142   0.0000       0.241525         6.5722 
 143   0.0000       0.246613         6.7107 
 144   0.0000       0.248192         6.7536 
 145   0.0000       0.251094         6.8326 
 146   0.0000       0.255319         6.9476 
 147   0.0000       0.256970         6.9925 
 148   0.0000       0.260858         7.0983 
 149   0.0000       0.265032         7.2119 
 150   0.0000       0.269728         7.3397 
 151   0.0000       0.274952         7.4818 
 152   0.0000       0.279832         7.6146 
 153   0.0000       0.282477         7.6866 
 154   0.0000       0.286803         7.8043 
 155   0.0000       0.291148         7.9225 
 156   0.0000       0.291962         7.9447 
 157   0.0000       0.298433         8.1208 
 158   0.0000       0.302805         8.2397 
 159   0.0000       0.307163         8.3583 
 160   0.0000       0.308385         8.3916 
 161   0.0000       0.312065         8.4917 
 162   0.0000       0.313830         8.5398 
 163   0.0000       0.320886         8.7317 
 164   0.0000       0.324038         8.8175 
 165   0.0000       0.327038         8.8992 
 166   0.0000       0.330405         8.9908 
 167   0.0000       0.332530         9.0486 
 168   0.0000       0.334815         9.1108 
 169   0.0000       0.340756         9.2724 
 170   0.0000       0.344854         9.3840 
 171   0.0000       0.350565         9.5394 
 172   0.0000       0.350934         9.5494 
 173   0.0000       0.355199         9.6655 
 174   0.0000       0.358914         9.7665 
 175   0.0000       0.361763         9.8441 
 176   0.0000       0.363289         9.8856 
 177   0.0000       0.368089        10.0162 
 178   0.0000       0.369795        10.0626 
 179   0.0000       0.376355        10.2411 
 180   0.0000       0.380279        10.3479 
 181   0.0000       0.383233        10.4283 
 182   0.0000       0.384841        10.4721 
 183   0.0000       0.388147        10.5620 
 184   0.0000       0.392217        10.6728 
 185   0.0000       0.394974        10.7478 
 186   0.0000       0.399305        10.8656 
 187   0.0000       0.400768        10.9054 
 188   0.0000       0.405422        11.0321 
 189   0.0000       0.407799        11.0968 
 190   0.0000       0.410830        11.1792 
 191   0.0000       0.412933        11.2365 
 192   0.0000       0.417331        11.3562 
 193   0.0000       0.423484        11.5236 
 194   0.0000       0.428143        11.6504 
 195   0.0000       0.432111        11.7583 
 196   0.0000       0.433512        11.7965 
 197   0.0000       0.435926        11.8621 
 198   0.0000       0.439301        11.9540 
 199   0.0000       0.444485        12.0950 
 200   0.0000       0.446210        12.1420 
 201   0.0000       0.449450        12.2301 
 202   0.0000       0.453097        12.3294 
 203   0.0000       0.457661        12.4536 
 204   0.0000       0.462307        12.5800 
 205   0.0000       0.465441        12.6653 
 206   0.0000       0.471932        12.8419 
 207   0.0000       0.474346        12.9076 
 208   0.0000       0.476752        12.9731 
 209   0.0000       0.478171        13.0117 
 210   0.0000       0.481116        13.0918 
 211   0.0000       0.487356        13.2616 
 212   0.0000       0.488522        13.2934 
 213   0.0000       0.493078        13.4173 
 214   0.0000       0.495028        13.4704 
 215   0.0000       0.498960        13.5774 
 216   0.0000       0.500637        13.6230 
 217   0.0000       0.502752        13.6806 
 218   0.0000       0.506750        13.7894 
 219   0.0000       0.513705        13.9786 
 220   0.0000       0.514764        14.0074 
 221   0.0000       0.519040        14.1238 
 222   0.0000       0.521378        14.1874 
 223   0.0000       0.526729        14.3330 
 224   0.0000       0.528574        14.3832 
 225   0.0000       0.530352        14.4316 
 226   0.0000       0.533762        14.5244 
 227   0.0000       0.536103        14.5881 
 228   0.0000       0.537694        14.6314 
 229   0.0000       0.540755        14.7147 
 230   0.0000       0.544014        14.8034 
 231   0.0000       0.547708        14.9039 
 232   0.0000       0.552531        15.0351 
 233   0.0000       0.554937        15.1006 
 234   0.0000       0.558708        15.2032 
 235   0.0000       0.564550        15.3622 
 236   0.0000       0.570285        15.5182 
 237   0.0000       0.570943        15.5361 
 238   0.0000       0.576332        15.6828 
 239   0.0000       0.579675        15.7738 
 240   0.0000       0.582234        15.8434 
 241   0.0000       0.586709        15.9652 
 242   0.0000       0.590308        16.0631 
 243   0.0000       0.593746        16.1567 
 244   0.0000       0.598200        16.2778 
 245   0.0000       0.601097        16.3567 
 246   0.0000       0.606624        16.5071 
 247   0.0000       0.609607        16.5883 
 248   0.0000       0.614259        16.7148 
 249   0.0000       0.615244        16.7416 
 250   0.0000       0.623345        16.9621 
 251   0.0000       0.623709        16.9720 
 252   0.0000       0.627307        17.0699 
 253   0.0000       0.631258        17.1774 
 254   0.0000       0.632106        17.2005 
 255   0.0000       0.639518        17.4022 
 256   0.0000       0.645476        17.5643 
 257   0.0000       0.648631        17.6501 
 258   0.0000       0.650155        17.6916 
 259   0.0000       0.657868        17.9015 
 260   0.0000       0.661542        18.0015 
 261   0.0000       0.666363        18.1327 
 262   0.0000       0.674579        18.3562 
 263   0.0000       0.680496        18.5172 
 264   0.0000       0.682456        18.5706 
 265   0.0000       0.684336        18.6217 
 266   0.0000       0.686359        18.6768 
 267   0.0000       0.694203        18.8902 
 268   0.0000       0.696642        18.9566 
 269   0.0000       0.703354        19.1392 
 270   0.0000       0.704686        19.1755 
 271   0.0000       0.709252        19.2997 
 272   0.0000       0.711798        19.3690 
 273   0.0000       0.714974        19.4554 
 274   0.0000       0.720337        19.6014 
 275   0.0000       0.722980        19.6733 
 276   0.0000       0.727887        19.8068 
 277   0.0000       0.729056        19.8386 
 278   0.0000       0.737965        20.0811 
 279   0.0000       0.743077        20.2202 
 280   0.0000       0.753304        20.4984 
 281   0.0000       0.755001        20.5446 
 282   0.0000       0.761747        20.7282 
 283   0.0000       0.765116        20.8199 
 284   0.0000       0.768106        20.9012 
 285   0.0000       0.777569        21.1587 
 286   0.0000       0.781986        21.2789 
 287   0.0000       0.789269        21.4771 
 288   0.0000       0.794552        21.6208 
 289   0.0000       0.797875        21.7113 
 290   0.0000       0.806268        21.9397 
 291   0.0000       0.815451        22.1895 
 292   0.0000       0.817787        22.2531 
 293   0.0000       0.823947        22.4207 
 294   0.0000       0.830706        22.6047 
 295   0.0000       0.837187        22.7810 
 296   0.0000       0.839172        22.8350 
 297   0.0000       0.844514        22.9804 
 298   0.0000       0.848883        23.0993 
 299   0.0000       0.853879        23.2352 
 300   0.0000       0.854997        23.2656 
 301   0.0000       0.860175        23.4065 
 302   0.0000       0.870206        23.6795 
 303   0.0000       0.874265        23.7900 
 304   0.0000       0.876385        23.8476 
 305   0.0000       0.878965        23.9179 
 306   0.0000       0.885064        24.0838 
 307   0.0000       0.885815        24.1042 
 308   0.0000       0.897078        24.4107 
 309   0.0000       0.901199        24.5229 
 310   0.0000       0.906894        24.6778 
 311   0.0000       0.908129        24.7114 
 312   0.0000       0.912661        24.8348 
 313   0.0000       0.917783        24.9741 
 314   0.0000       0.927509        25.2388 
 315   0.0000       0.929390        25.2900 
 316   0.0000       0.931667        25.3519 
 317   0.0000       0.935505        25.4564 
 318   0.0000       0.941859        25.6293 
 319   0.0000       0.944535        25.7021 
 320   0.0000       0.947448        25.7814 
 321   0.0000       0.951144        25.8820 
 322   0.0000       0.955657        26.0047 
 323   0.0000       0.956256        26.0211 
 324   0.0000       0.958956        26.0945 
 325   0.0000       0.965614        26.2757 
 326   0.0000       0.972284        26.4572 
 327   0.0000       0.978382        26.6231 
 328   0.0000       0.980239        26.6737 
 329   0.0000       0.986530        26.8448 
 330   0.0000       0.987103        26.8604 
 331   0.0000       0.989373        26.9222 
 332   0.0000       0.993632        27.0381 
 333   0.0000       0.995919        27.1003 
 334   0.0000       1.000256        27.2183 
 335   0.0000       1.006626        27.3917 
 336   0.0000       1.006863        27.3981 
 337   0.0000       1.011093        27.5132 
 338   0.0000       1.015697        27.6385 
 339   0.0000       1.017589        27.6900 
 340   0.0000       1.021282        27.7905 
 341   0.0000       1.023280        27.8449 
 342   0.0000       1.030035        28.0287 
 343   0.0000       1.034800        28.1583 
 344   0.0000       1.036031        28.1918 
 345   0.0000       1.043445        28.3936 
 346   0.0000       1.046610        28.4797 
 347   0.0000       1.049409        28.5559 
 348   0.0000       1.051308        28.6075 
 349   0.0000       1.057315        28.7710 
 350   0.0000       1.058555        28.8047 
 351   0.0000       1.063395        28.9365 
 352   0.0000       1.064516        28.9670 
 353   0.0000       1.065462        28.9927 
 354   0.0000       1.072308        29.1790 
 355   0.0000       1.074781        29.2463 
 356   0.0000       1.081953        29.4414 
 357   0.0000       1.084932        29.5225 
 358   0.0000       1.089749        29.6536 
 359   0.0000       1.093933        29.7674 
 360   0.0000       1.097841        29.8738 
 361   0.0000       1.100878        29.9564 
 362   0.0000       1.106176        30.1006 
 363   0.0000       1.108832        30.1728 
 364   0.0000       1.113068        30.2881 
 365   0.0000       1.116878        30.3918 
 366   0.0000       1.123537        30.5730 
 367   0.0000       1.126766        30.6609 
 368   0.0000       1.131128        30.7796 
 369   0.0000       1.136307        30.9205 
 370   0.0000       1.139708        31.0130 
 371   0.0000       1.144582        31.1457 
 372   0.0000       1.145324        31.1659 
 373   0.0000       1.146187        31.1893 
 374   0.0000       1.154411        31.4131 
 375   0.0000       1.157548        31.4985 
 376   0.0000       1.167767        31.7766 
 377   0.0000       1.170575        31.8530 
 378   0.0000       1.174495        31.9596 
 379   0.0000       1.180437        32.1213 
 380   0.0000       1.183441        32.2031 
 381   0.0000       1.189834        32.3770 
 382   0.0000       1.193108        32.4661 
 383   0.0000       1.196798        32.5665 
 384   0.0000       1.201959        32.7070 
 385   0.0000       1.206387        32.8275 
 386   0.0000       1.210300        32.9339 
 387   0.0000       1.214938        33.0602 
 388   0.0000       1.216461        33.1016 
 389   0.0000       1.226604        33.3776 
 390   0.0000       1.229585        33.4587 
 391   0.0000       1.233958        33.5777 
 392   0.0000       1.239173        33.7196 
 393   0.0000       1.242347        33.8060 
 394   0.0000       1.244225        33.8571 
 395   0.0000       1.255076        34.1524 
 396   0.0000       1.260804        34.3082 
 397   0.0000       1.262351        34.3503 
 398   0.0000       1.271306        34.5940 
 399   0.0000       1.275416        34.7058 
 400   0.0000       1.280337        34.8397 
 401   0.0000       1.284047        34.9407 
 402   0.0000       1.293038        35.1853 
 403   0.0000       1.293779        35.2055 
 404   0.0000       1.300544        35.3896 
 405   0.0000       1.304479        35.4967 
 406   0.0000       1.307247        35.5720 
 407   0.0000       1.310328        35.6558 
 408   0.0000       1.315431        35.7947 
 409   0.0000       1.321882        35.9702 
 410   0.0000       1.325203        36.0606 
 411   0.0000       1.336279        36.3620 
 412   0.0000       1.337512        36.3955 
 413   0.0000       1.345219        36.6053 
 414   0.0000       1.347063        36.6554 
 415   0.0000       1.354601        36.8606 
 416   0.0000       1.358896        36.9775 
 417   0.0000       1.364840        37.1392 
 418   0.0000       1.370708        37.2988 
 419   0.0000       1.372398        37.3448 
 420   0.0000       1.375496        37.4292 
 421   0.0000       1.383889        37.6575 
 422   0.0000       1.392370        37.8883 
 423   0.0000       1.394620        37.9495 
 424   0.0000       1.400055        38.0974 
 425   0.0000       1.408552        38.3286 
 426   0.0000       1.414513        38.4909 
 427   0.0000       1.419576        38.6286 
 428   0.0000       1.427015        38.8311 
 429   0.0000       1.432111        38.9697 
 430   0.0000       1.446519        39.3618 
 431   0.0000       1.447949        39.4007 
 432   0.0000       1.455537        39.6072 
 433   0.0000       1.459656        39.7193 
 434   0.0000       1.461408        39.7669 
 435   0.0000       1.463424        39.8218 
 436   0.0000       1.463769        39.8312 
 437   0.0000       1.467410        39.9303 
 438   0.0000       1.474703        40.1287 
 439   0.0000       1.481048        40.3014 
 440   0.0000       1.484960        40.4078 
 441   0.0000       1.492924        40.6245 
 442   0.0000       1.496020        40.7088 
 443   0.0000       1.497977        40.7620 
 444   0.0000       1.507496        41.0210 
 445   0.0000       1.515142        41.2291 
 446   0.0000       1.521297        41.3966 
 447   0.0000       1.524617        41.4869 
 448   0.0000       1.530819        41.6557 
 449   0.0000       1.537131        41.8274 
 450   0.0000       1.537973        41.8504 
 451   0.0000       1.547979        42.1226 
 452   0.0000       1.552831        42.2547 
 453   0.0000       1.557039        42.3692 
 454   0.0000       1.562062        42.5059 
 455   0.0000       1.566938        42.6385 
 456   0.0000       1.570397        42.7327 
 457   0.0000       1.580351        43.0035 
 458   0.0000       1.584215        43.1087 
 459   0.0000       1.587065        43.1862 
 460   0.0000       1.593097        43.3504 
 461   0.0000       1.597457        43.4690 
 462   0.0000       1.603426        43.6315 
 463   0.0000       1.606085        43.7038 
 464   0.0000       1.608372        43.7660 
 465   0.0000       1.616748        43.9940 
 466   0.0000       1.623854        44.1873 
 467   0.0000       1.628598        44.3164 
 468   0.0000       1.636477        44.5308 
 469   0.0000       1.640994        44.6537 
 470   0.0000       1.641568        44.6693 
 471   0.0000       1.653004        44.9805 
 472   0.0000       1.657256        45.0962 
 473   0.0000       1.660766        45.1917 
 474   0.0000       1.667356        45.3711 
 475   0.0000       1.676668        45.6245 
 476   0.0000       1.679034        45.6888 
 477   0.0000       1.681780        45.7636 
 478   0.0000       1.690380        45.9976 
 479   0.0000       1.691576        46.0301 
 480   0.0000       1.694072        46.0980 
 481   0.0000       1.696709        46.1698 
 482   0.0000       1.702267        46.3211 
 483   0.0000       1.704163        46.3726 
 484   0.0000       1.713702        46.6322 
 485   0.0000       1.720027        46.8043 
 486   0.0000       1.725949        46.9655 
 487   0.0000       1.734141        47.1884 
 488   0.0000       1.735323        47.2205 
 489   0.0000       1.739395        47.3313 
 490   0.0000       1.748330        47.5745 
 491   0.0000       1.756144        47.7871 
 492   0.0000       1.760717        47.9115 
 493   0.0000       1.763941        47.9993 
 494   0.0000       1.767443        48.0946 
 495   0.0000       1.784337        48.5543 
 496   0.0000       1.789080        48.6833 
 497   0.0000       1.791810        48.7576 
 498   0.0000       1.795890        48.8686 
 499   0.0000       1.801703        49.0268 
 500   0.0000       1.802706        49.0541 
 501   0.0000       1.809933        49.2508 
 502   0.0000       1.816343        49.4252 
 503   0.0000       1.826537        49.7026 
 504   0.0000       1.827782        49.7365 
 505   0.0000       1.833624        49.8955 
 506   0.0000       1.837937        50.0128 
 507   0.0000       1.848072        50.2886 
 508   0.0000       1.850634        50.3583 
 509   0.0000       1.853225        50.4288 
 510   0.0000       1.863185        50.6999 
 511   0.0000       1.869204        50.8636 
 512   0.0000       1.871459        50.9250 
 513   0.0000       1.874304        51.0024 
 514   0.0000       1.875975        51.0479 
 515   0.0000       1.880957        51.1835 
 516   0.0000       1.885460        51.3060 
 517   0.0000       1.892639        51.5013 
 518   0.0000       1.895862        51.5890 
 519   0.0000       1.904009        51.8107 
 520   0.0000       1.906464        51.8775 
 521   0.0000       1.910756        51.9943 
 522   0.0000       1.916705        52.1562 
 523   0.0000       1.924631        52.3719 
 524   0.0000       1.926885        52.4332 
 525   0.0000       1.934606        52.6433 
 526   0.0000       1.935953        52.6800 
 527   0.0000       1.947108        52.9835 
 528   0.0000       1.951032        53.0903 
 529   0.0000       1.960820        53.3566 
 530   0.0000       1.966035        53.4985 
 531   0.0000       1.966599        53.5139 
 532   0.0000       1.976238        53.7762 
 533   0.0000       1.980514        53.8925 
 534   0.0000       1.985913        54.0394 
 535   0.0000       1.988768        54.1171 
 536   0.0000       1.995628        54.3038 
 537   0.0000       1.996494        54.3274 
 538   0.0000       2.004822        54.5540 
 539   0.0000       2.015023        54.8316 
 540   0.0000       2.025066        55.1048 
 541   0.0000       2.031613        55.2830 
 542   0.0000       2.037039        55.4306 
 543   0.0000       2.053320        55.8737 
 544   0.0000       2.055118        55.9226 
 545   0.0000       2.061237        56.0891 
 546   0.0000       2.067326        56.2548 
 547   0.0000       2.069384        56.3108 
 548   0.0000       2.075007        56.4638 
 549   0.0000       2.079488        56.5857 
 550   0.0000       2.081488        56.6402 
 551   0.0000       2.094083        56.9829 
 552   0.0000       2.101540        57.1858 
 553   0.0000       2.106825        57.3296 
 554   0.0000       2.119618        57.6777 
 555   0.0000       2.123658        57.7877 
 556   0.0000       2.130893        57.9845 
 557   0.0000       2.143738        58.3341 
 558   0.0000       2.147131        58.4264 
 559   0.0000       2.152321        58.5676 
 560   0.0000       2.164118        58.8887 
 561   0.0000       2.168473        59.0072 
 562   0.0000       2.171961        59.1021 
 563   0.0000       2.179682        59.3122 
 564   0.0000       2.182486        59.3885 
 565   0.0000       2.190698        59.6119 
 566   0.0000       2.200766        59.8859 
 567   0.0000       2.204365        59.9838 
 568   0.0000       2.211692        60.1832 
 569   0.0000       2.220012        60.4096 
 570   0.0000       2.225194        60.5506 
 571   0.0000       2.230207        60.6870 
 572   0.0000       2.243140        61.0389 
 573   0.0000       2.248868        61.1948 
 574   0.0000       2.254386        61.3450 
 575   0.0000       2.260502        61.5114 
 576   0.0000       2.268097        61.7181 
 577   0.0000       2.271110        61.8000 
 578   0.0000       2.285482        62.1911 
 579   0.0000       2.297277        62.5121 
 580   0.0000       2.304088        62.6974 
 581   0.0000       2.306439        62.7614 
 582   0.0000       2.312880        62.9367 
 583   0.0000       2.322894        63.2092 
 584   0.0000       2.329913        63.4002 
 585   0.0000       2.335143        63.5425 
 586   0.0000       2.348244        63.8990 
 587   0.0000       2.349825        63.9420 
 588   0.0000       2.359371        64.2017 
 589   0.0000       2.363950        64.3264 
 590   0.0000       2.368220        64.4425 
 591   0.0000       2.378771        64.7297 
 592   0.0000       2.390023        65.0358 
 593   0.0000       2.394682        65.1626 
 594   0.0000       2.398842        65.2758 
 595   0.0000       2.407944        65.5235 
 596   0.0000       2.424826        65.9829 
 597   0.0000       2.428442        66.0813 
 598   0.0000       2.443145        66.4814 
 599   0.0000       2.445072        66.5338 
 600   0.0000       2.449869        66.6643 
 601   0.0000       2.463668        67.0398 
 602   0.0000       2.472432        67.2783 
 603   0.0000       2.481373        67.5216 
 604   0.0000       2.487847        67.6978 
 605   0.0000       2.500282        68.0361 
 606   0.0000       2.516166        68.4683 
 607   0.0000       2.534418        68.9650 
 608   0.0000       2.534954        68.9796 
 609   0.0000       2.545584        69.2689 
 610   0.0000       2.567957        69.8777 
 611   0.0000       2.581693        70.2514 
 612   0.0000       2.594729        70.6062 
 613   0.0000       2.606996        70.9400 
 614   0.0000       2.617545        71.2270 
 615   0.0000       2.629688        71.5575 
 616   0.0000       2.638982        71.8103 
 617   0.0000       2.650250        72.1170 
 618   0.0000       2.661394        72.4202 
 619   0.0000       2.667546        72.5876 
 620   0.0000       2.680983        72.9532 
 621   0.0000       2.685808        73.0845 
 622   0.0000       2.689580        73.1872 
 623   0.0000       2.697497        73.4026 
 624   0.0000       2.707222        73.6673 
 625   0.0000       2.708314        73.6970 
 626   0.0000       2.720643        74.0324 
 627   0.0000       2.731212        74.3201 
 628   0.0000       2.737331        74.4866 
 629   0.0000       2.740366        74.5691 
 630   0.0000       2.746234        74.7288 
 631   0.0000       2.753024        74.9136 
 632   0.0000       2.757363        75.0317 
 633   0.0000       2.772191        75.4351 
 634   0.0000       2.788143        75.8692 
 635   0.0000       2.790706        75.9390 
 636   0.0000       2.797313        76.1187 
 637   0.0000       2.823584        76.8336 
 638   0.0000       2.840986        77.3071 
 639   0.0000       2.851918        77.6046 
 640   0.0000       2.866478        78.0008 
 641   0.0000       2.883217        78.4563 
 642   0.0000       2.895955        78.8029 
 643   0.0000       2.903548        79.0095 
 644   0.0000       2.921470        79.4972 
 645   0.0000       2.930407        79.7404 
 646   0.0000       2.939071        79.9762 
 647   0.0000       2.949981        80.2731 
 648   0.0000       2.968923        80.7885 
 649   0.0000       2.973101        80.9022 
 650   0.0000       2.992639        81.4338 
 651   0.0000       2.997563        81.5678 
 652   0.0000       3.014386        82.0256 
 653   0.0000       3.024805        82.3091 
 654   0.0000       3.037314        82.6495 
 655   0.0000       3.054824        83.1260 
 656   0.0000       3.083142        83.8966 
 657   0.0000       3.098623        84.3178 
 658   0.0000       3.105890        84.5156 
 659   0.0000       3.115126        84.7669 
 660   0.0000       3.145170        85.5844 
 661   0.0000       3.151338        85.7523 
 662   0.0000       3.161973        86.0417 
 663   0.0000       3.175085        86.3985 
 664   0.0000       3.180571        86.5477 
 665   0.0000       3.200989        87.1033 
 666   0.0000       3.201456        87.1161 
 667   0.0000       3.226974        87.8104 
 668   0.0000       3.238362        88.1203 
 669   0.0000       3.240713        88.1843 
 670   0.0000       3.247821        88.3777 
 671   0.0000       3.255389        88.5836 
 672   0.0000       3.264974        88.8445 
 673   0.0000       3.268408        88.9379 
 674   0.0000       3.283816        89.3572 
 675   0.0000       3.285173        89.3941 
 676   0.0000       3.305646        89.9512 
 677   0.0000       3.311345        90.1063 
 678   0.0000       3.318946        90.3131 
 679   0.0000       3.322333        90.4053 
 680   0.0000       3.338341        90.8409 
 681   0.0000       3.343433        90.9794 
 682   0.0000       3.349494        91.1444 
 683   0.0000       3.361355        91.4671 
 684   0.0000       3.367733        91.6407 
 685   0.0000       3.378793        91.9416 
 686   0.0000       3.382375        92.0391 
 687   0.0000       3.401390        92.5565 
 688   0.0000       3.407714        92.7286 
 689   0.0000       3.417947        93.0071 
 690   0.0000       3.419751        93.0562 
 691   0.0000       3.426361        93.2360 
 692   0.0000       3.441780        93.6556 
 693   0.0000       3.449041        93.8532 
 694   0.0000       3.453239        93.9674 
 695   0.0000       3.469798        94.4180 
 696   0.0000       3.480767        94.7165 
 697   0.0000       3.490151        94.9718 
 698   0.0000       3.495525        95.1181 
 699   0.0000       3.507321        95.4391 
 700   0.0000       3.511359        95.5489 
 701   0.0000       3.513890        95.6178 
 702   0.0000       3.521877        95.8351 
 703   0.0000       3.530679        96.0746 
 704   0.0000       3.535948        96.2180 
 705   0.0000       3.546089        96.4940 
 706   0.0000       3.561833        96.9224 
 707   0.0000       3.566522        97.0500 
 708   0.0000       3.581580        97.4597 
 709   0.0000       3.585561        97.5681 
 710   0.0000       3.593875        97.7943 
 711   0.0000       3.601547        98.0031 
 712   0.0000       3.609747        98.2262 
 713   0.0000       3.622154        98.5638 
 714   0.0000       3.629633        98.7673 
 715   0.0000       3.639584        99.0381 
 716   0.0000       3.647952        99.2658 
 717   0.0000       3.653801        99.4250 
 718   0.0000       3.670255        99.8727 
 719   0.0000       3.674152        99.9788 
 720   0.0000       3.682250       100.1991 
 721   0.0000       3.684617       100.2635 
 722   0.0000       3.699952       100.6808 
 723   0.0000       3.708672       100.9181 
 724   0.0000       3.716269       101.1248 
 725   0.0000       3.723699       101.3270 
 726   0.0000       3.727162       101.4212 
 727   0.0000       3.736274       101.6692 
 728   0.0000       3.743174       101.8569 
 729   0.0000       3.755247       102.1855 
 730   0.0000       3.763098       102.3991 
 731   0.0000       3.767204       102.5108 
 732   0.0000       3.772142       102.6452 
 733   0.0000       3.783427       102.9523 
 734   0.0000       3.788172       103.0814 
 735   0.0000       3.796597       103.3107 
 736   0.0000       3.804712       103.5315 
 737   0.0000       3.814023       103.7848 
 738   0.0000       3.818170       103.8977 
 739   0.0000       3.828576       104.1809 
 740   0.0000       3.832624       104.2910 
 741   0.0000       3.840309       104.5001 
 742   0.0000       3.846184       104.6600 
 743   0.0000       3.854604       104.8891 
 744   0.0000       3.860591       105.0520 
 745   0.0000       3.868324       105.2624 
 746   0.0000       3.878541       105.5405 
 747   0.0000       3.883812       105.6839 
 748   0.0000       3.892741       105.9269 
 749   0.0000       3.897824       106.0652 
 750   0.0000       3.900242       106.1310 
 751   0.0000       3.908875       106.3659 
 752   0.0000       3.917615       106.6037 
 753   0.0000       3.932199       107.0006 
 754   0.0000       3.934634       107.0668 
 755   0.0000       3.941376       107.2503 
 756   0.0000       3.944248       107.3284 
 757   0.0000       3.954201       107.5993 
 758   0.0000       3.954714       107.6132 
 759   0.0000       3.970329       108.0381 
 760   0.0000       3.984825       108.4326 
 761   0.0000       3.991031       108.6015 
 762   0.0000       3.991412       108.6118 
 763   0.0000       4.000517       108.8596 
 764   0.0000       4.007436       109.0479 
 765   0.0000       4.013474       109.2122 
 766   0.0000       4.019431       109.3743 
 767   0.0000       4.028057       109.6090 
 768   0.0000       4.035324       109.8068 
 769   0.0000       4.040570       109.9495 
 770   0.0000       4.046802       110.1191 
 771   0.0000       4.057647       110.4142 
 772   0.0000       4.065825       110.6367 
 773   0.0000       4.071132       110.7811 
 774   0.0000       4.080336       111.0316 
 775   0.0000       4.086791       111.2072 
 776   0.0000       4.092844       111.3720 
 777   0.0000       4.098111       111.5153 
 778   0.0000       4.105607       111.7192 
 779   0.0000       4.118778       112.0777 
 780   0.0000       4.120896       112.1353 
 781   0.0000       4.134545       112.5067 
 782   0.0000       4.140417       112.6665 
 783   0.0000       4.146644       112.8359 
 784   0.0000       4.158883       113.1690 
 785   0.0000       4.166627       113.3797 
 786   0.0000       4.173516       113.5671 
 787   0.0000       4.179197       113.7217 
 788   0.0000       4.190614       114.0324 
 789   0.0000       4.198492       114.2468 
 790   0.0000       4.208809       114.5275 
 791   0.0000       4.211886       114.6112 
 792   0.0000       4.228430       115.0614 
 793   0.0000       4.234481       115.2261 
 794   0.0000       4.246327       115.5484 
 795   0.0000       4.248019       115.5945 
 796   0.0000       4.261157       115.9520 
 797   0.0000       4.265669       116.0748 
 798   0.0000       4.272224       116.2531 
 799   0.0000       4.279950       116.4634 
 800   0.0000       4.291629       116.7812 
 801   0.0000       4.299993       117.0087 
 802   0.0000       4.317965       117.4978 
 803   0.0000       4.321040       117.5815 
 804   0.0000       4.329704       117.8172 
 805   0.0000       4.339686       118.0889 
 806   0.0000       4.351981       118.4234 
 807   0.0000       4.353685       118.4698 
 808   0.0000       4.365851       118.8009 
 809   0.0000       4.372860       118.9916 
 810   0.0000       4.379210       119.1644 
 811   0.0000       4.383922       119.2926 
 812   0.0000       4.409247       119.9817 
 813   0.0000       4.420556       120.2894 
 814   0.0000       4.425540       120.4251 
 815   0.0000       4.433225       120.6342 
 816   0.0000       4.438744       120.7844 
 817   0.0000       4.449033       121.0643 
 818   0.0000       4.458328       121.3173 
 819   0.0000       4.472277       121.6969 
 820   0.0000       4.479038       121.8808 
 821   0.0000       4.488728       122.1445 
 822   0.0000       4.492009       122.2338 
 823   0.0000       4.505772       122.6083 
 824   0.0000       4.517912       122.9386 
 825   0.0000       4.528236       123.2196 
 826   0.0000       4.537604       123.4745 
 827   0.0000       4.544969       123.6749 
 828   0.0000       4.552816       123.8884 
 829   0.0000       4.567864       124.2979 
 830   0.0000       4.581186       124.6604 
 831   0.0000       4.588600       124.8622 
 832   0.0000       4.601551       125.2146 
 833   0.0000       4.604823       125.3036 
 834   0.0000       4.622160       125.7754 
 835   0.0000       4.631481       126.0290 
 836   0.0000       4.646461       126.4366 
 837   0.0000       4.657129       126.7269 
 838   0.0000       4.662582       126.8753 
 839   0.0000       4.687882       127.5638 
 840   0.0000       4.693219       127.7090 
 841   0.0000       4.698172       127.8438 
 842   0.0000       4.711026       128.1935 
 843   0.0000       4.722570       128.5077 
 844   0.0000       4.735101       128.8486 
 845   0.0000       4.741871       129.0329 
 846   0.0000       4.751169       129.2859 
 847   0.0000       4.785299       130.2146 
 848   0.0000       4.785986       130.2333 
 849   0.0000       4.792259       130.4040 
 850   0.0000       4.806085       130.7802 
 851   0.0000       4.809046       130.8608 
 852   0.0000       4.810785       130.9081 
 853   0.0000       4.822478       131.2263 
 854   0.0000       4.843700       131.8038 
 855   0.0000       4.852734       132.0496 
 856   0.0000       4.862758       132.3224 
 857   0.0000       4.872276       132.5814 
 858   0.0000       4.886355       132.9645 
 859   0.0000       4.892748       133.1384 
 860   0.0000       4.904503       133.4583 
 861   0.0000       4.906599       133.5153 
 862   0.0000       4.926977       134.0699 
 863   0.0000       4.945179       134.5652 
 864   0.0000       4.955285       134.8402 
 865   0.0000       4.970819       135.2629 
 866   0.0000       4.971941       135.2934 
 867   0.0000       4.987666       135.7213 
 868   0.0000       5.001019       136.0846 
 869   0.0000       5.002193       136.1166 
 870   0.0000       5.014206       136.4435 
 871   0.0000       5.026097       136.7671 
 872   0.0000       5.037543       137.0785 
 873   0.0000       5.057282       137.6156 
 874   0.0000       5.068920       137.9323 
 875   0.0000       5.078878       138.2033 
 876   0.0000       5.095264       138.6492 
 877   0.0000       5.103413       138.8709 
 878   0.0000       5.115583       139.2021 
 879   0.0000       5.123515       139.4179 
 880   0.0000       5.144074       139.9774 
 881   0.0000       5.157771       140.3501 
 882   0.0000       5.169205       140.6612 
 883   0.0000       5.175628       140.8360 
 884   0.0000       5.193219       141.3147 
 885   0.0000       5.198445       141.4569 
 886   0.0000       5.214947       141.9059 
 887   0.0000       5.222632       142.1150 
 888   0.0000       5.226500       142.2203 
 889   0.0000       5.248825       142.8278 
 890   0.0000       5.262182       143.1913 
 891   0.0000       5.270428       143.4156 
 892   0.0000       5.296196       144.1168 
 893   0.0000       5.308482       144.4511 
 894   0.0000       5.320951       144.7904 
 895   0.0000       5.328923       145.0074 
 896   0.0000       5.337738       145.2472 
 897   0.0000       5.345086       145.4472 
 898   0.0000       5.357178       145.7762 
 899   0.0000       5.365237       145.9955 
 900   0.0000       5.382463       146.4643 
 901   0.0000       5.405312       147.0860 
 902   0.0000       5.407627       147.1490 
 903   0.0000       5.429125       147.7340 
 904   0.0000       5.440927       148.0551 
 905   0.0000       5.444462       148.1514 
 906   0.0000       5.463223       148.6619 
 907   0.0000       5.465880       148.7342 
 908   0.0000       5.474481       148.9682 
 909   0.0000       5.497063       149.5827 
 910   0.0000       5.510572       149.9503 
 911   0.0000       5.519301       150.1878 
 912   0.0000       5.531457       150.5186 
 913   0.0000       5.542510       150.8194 
 914   0.0000       5.547079       150.9437 
 915   0.0000       5.573352       151.6586 
 916   0.0000       5.583403       151.9321 
 917   0.0000       5.585566       151.9910 
 918   0.0000       5.600407       152.3948 
 919   0.0000       5.608831       152.6241 
 920   0.0000       5.622139       152.9862 
 921   0.0000       5.641756       153.5200 
 922   0.0000       5.647411       153.6739 
 923   0.0000       5.672011       154.3433 
 924   0.0000       5.672245       154.3496 
 925   0.0000       5.682697       154.6340 
 926   0.0000       5.695033       154.9697 
 927   0.0000       5.698753       155.0710 
 928   0.0000       5.706745       155.2884 
 929   0.0000       5.730581       155.9370 
 930   0.0000       5.747600       156.4001 
 931   0.0000       5.759368       156.7204 
 932   0.0000       5.780873       157.3056 
 933   0.0000       5.785441       157.4299 
 934   0.0000       5.803933       157.9330 
 935   0.0000       5.819047       158.3443 
 936   0.0000       5.827557       158.5759 
 937   0.0000       5.832246       158.7035 
 938   0.0000       5.842680       158.9874 
 939   0.0000       5.854384       159.3059 
 940   0.0000       5.875845       159.8899 
 941   0.0000       5.891091       160.3047 
 942   0.0000       5.928024       161.3097 
 943   0.0000       5.935789       161.5210 
 944   0.0000       5.946040       161.8000 
 945   0.0000       5.962712       162.2536 
 946   0.0000       5.999269       163.2484 
 947   0.0000       6.048769       164.5954 
 948   0.0000       6.105251       166.1323 
 949   0.0000       6.121585       166.5768 
 950   0.0000       6.146703       167.2603 
 951   0.0000       6.177000       168.0847 
 952   0.0000       6.189605       168.4277 
 953   0.0000       6.202869       168.7886 
 954   0.0000       6.209112       168.9585 
 955   0.0000       6.233789       169.6300 
 956   0.0000       6.247286       169.9973 
 957   0.0000       6.255729       170.2270 
 958   0.0000       6.269062       170.5898 
 959   0.0000       6.287757       171.0986 
 960   0.0000       6.305243       171.5744 
 961   0.0000       6.315197       171.8452 
 962   0.0000       6.340200       172.5256 
 963   0.0000       6.352486       172.8599 
 964   0.0000       6.374944       173.4710 
 965   0.0000       6.403614       174.2512 
 966   0.0000       6.414050       174.5352 
 967   0.0000       6.440487       175.2546 
 968   0.0000       6.460158       175.7898 
 969   0.0000       6.481947       176.3827 
 970   0.0000       6.563200       178.5938 
 971   0.0000       6.724093       182.9719 
 972   0.0000       6.801832       185.0873 
 973   0.0000       6.858383       186.6261 
 974   0.0000       6.876047       187.1068 
 975   0.0000       6.911976       188.0844 
 976   0.0000       6.932348       188.6388 
 977   0.0000       6.939554       188.8349 
 978   0.0000       6.966823       189.5769 
 979   0.0000       6.998592       190.4414 
 980   0.0000       7.033627       191.3947 
 981   0.0000       7.051684       191.8861 
 982   0.0000       7.079244       192.6360 
 983   0.0000       7.097048       193.1205 
 984   0.0000       7.175644       195.2592 
 985   0.0000       7.270582       197.8426 
 986   0.0000       7.300769       198.6640 
 987   0.0000       7.394951       201.2268 
 988   0.0000       7.420406       201.9195 
 989   0.0000       7.520251       204.6364 
 990   0.0000       7.556805       205.6311 
 991   0.0000       7.617775       207.2902 
 992   0.0000       7.708692       209.7642 
 993   0.0000       7.780471       211.7174 
 994   0.0000       7.815013       212.6573 
 995   0.0000       7.883573       214.5229 
 996   0.0000       8.067718       219.5338 
 997   0.0000       8.155090       221.9113 
 998   0.0000       8.378632       227.9942 
 999   0.0000       9.454514       257.2704 
 1000   0.0000       9.466087       257.5853 
 1001   0.0000       9.478869       257.9331 
 1002   0.0000       9.493779       258.3389 
 1003   0.0000       9.496162       258.4037 
 1004   0.0000       9.529232       259.3036 
 1005   0.0000       9.784008       266.2364 
 1006   0.0000      10.116713       275.2898 
 1007   0.0000      10.135848       275.8104 
 1008   0.0000      10.160415       276.4789 
 1009   0.0000      10.236356       278.5454 
 1010   0.0000      10.243442       278.7382 
 1011   0.0000      10.266395       279.3628 
 1012   0.0000      10.422108       283.6000 
 1013   0.0000      10.444938       284.2212 
 1014   0.0000      10.582363       287.9607 
 1015   0.0000      16.646181       452.9656 
 1016   0.0000      17.686706       481.2797 
 1017   0.0000      18.142053       493.6704 
 1018   0.0000      18.442195       501.8376 
 1019   0.0000      18.821319       512.1541 
 1020   0.0000      18.924809       514.9702 
 1021   0.0000      19.067084       518.8417 
 1022   0.0000      19.501020       530.6497 
 1023   0.0000      20.311808       552.7124 
 1024   0.0000      21.770184       592.3968 

                 SPIN DOWN ORBITALS
  NO   OCC          E(Eh)            E(eV) 
   0   1.0000    -261.533632     -7116.6919 
   1   1.0000    -104.764157     -2850.7777 
   2   1.0000    -104.762665     -2850.7370 
   3   1.0000    -104.760609     -2850.6811 
   4   1.0000     -32.043016      -871.9348 
   5   1.0000     -27.521089      -748.8869 
   6   1.0000     -27.520941      -748.8829 
   7   1.0000     -27.520445      -748.8694 
   8   1.0000     -20.530700      -558.6687 
   9   1.0000     -11.404086      -310.3210 
  10   1.0000     -11.348300      -308.8029 
  11   1.0000     -11.311305      -307.7963 
  12   1.0000     -11.292239      -307.2775 
  13   1.0000     -11.283334      -307.0351 
  14   1.0000     -11.255503      -306.2778 
  15   1.0000     -11.245493      -306.0054 
  16   1.0000     -11.233517      -305.6795 
  17   1.0000     -10.490682      -285.4660 
  18   1.0000     -10.489153      -285.4244 
  19   1.0000     -10.487124      -285.3691 
  20   1.0000      -7.956577      -216.5095 
  21   1.0000      -7.956028      -216.4945 
  22   1.0000      -7.955959      -216.4926 
  23   1.0000      -7.955122      -216.4699 
  24   1.0000      -7.954481      -216.4524 
  25   1.0000      -7.954374      -216.4495 
  26   1.0000      -7.953060      -216.4138 
  27   1.0000      -7.952412      -216.3961 
  28   1.0000      -7.952332      -216.3939 
  29   1.0000      -4.118281      -112.0641 
  30   1.0000      -2.640176       -71.8428 
  31   1.0000      -2.640091       -71.8405 
  32   1.0000      -2.639164       -71.8153 
  33   1.0000      -1.351897       -36.7870 
  34   1.0000      -1.204666       -32.7806 
  35   1.0000      -1.085838       -29.5472 
  36   1.0000      -1.046832       -28.4858 
  37   1.0000      -1.024068       -27.8663 
  38   1.0000      -1.021506       -27.7966 
  39   1.0000      -1.010882       -27.5075 
  40   1.0000      -1.008791       -27.4506 
  41   1.0000      -0.966929       -26.3115 
  42   1.0000      -0.932360       -25.3708 
  43   1.0000      -0.810089       -22.0436 
  44   1.0000      -0.775954       -21.1148 
  45   1.0000      -0.716793       -19.5049 
  46   1.0000      -0.697278       -18.9739 
  47   1.0000      -0.678520       -18.4635 
  48   1.0000      -0.651029       -17.7154 
  49   1.0000      -0.647429       -17.6174 
  50   1.0000      -0.636992       -17.3334 
  51   1.0000      -0.612292       -16.6613 
  52   1.0000      -0.602755       -16.4018 
  53   1.0000      -0.593225       -16.1425 
  54   1.0000      -0.581911       -15.8346 
  55   1.0000      -0.574964       -15.6456 
  56   1.0000      -0.562062       -15.2945 
  57   1.0000      -0.552896       -15.0451 
  58   1.0000      -0.539188       -14.6720 
  59   1.0000      -0.529088       -14.3972 
  60   1.0000      -0.512304       -13.9405 
  61   1.0000      -0.492537       -13.4026 
  62   1.0000      -0.459904       -12.5146 
  63   1.0000      -0.456759       -12.4291 
  64   1.0000      -0.444215       -12.0877 
  65   1.0000      -0.434482       -11.8229 
  66   1.0000      -0.426627       -11.6091 
  67   1.0000      -0.423272       -11.5178 
  68   1.0000      -0.422448       -11.4954 
  69   1.0000      -0.401371       -10.9219 
  70   1.0000      -0.393685       -10.7127 
  71   1.0000      -0.388749       -10.5784 
  72   0.0000      -0.008245        -0.2244 
  73   0.0000      -0.000410        -0.0112 
  74   0.0000       0.016069         0.4373 
  75   0.0000       0.016715         0.4548 
  76   0.0000       0.026203         0.7130 
  77   0.0000       0.036559         0.9948 
  78   0.0000       0.037465         1.0195 
  79   0.0000       0.040641         1.1059 
  80   0.0000       0.043408         1.1812 
  81   0.0000       0.049527         1.3477 
  82   0.0000       0.056843         1.5468 
  83   0.0000       0.058341         1.5876 
  84   0.0000       0.059488         1.6188 
  85   0.0000       0.061668         1.6781 
  86   0.0000       0.064839         1.7644 
  87   0.0000       0.071367         1.9420 
  88   0.0000       0.074214         2.0195 
  89   0.0000       0.080209         2.1826 
  90   0.0000       0.085195         2.3183 
  91   0.0000       0.088570         2.4101 
  92   0.0000       0.090305         2.4573 
  93   0.0000       0.092348         2.5129 
  94   0.0000       0.096001         2.6123 
  95   0.0000       0.100344         2.7305 
  96   0.0000       0.104842         2.8529 
  97   0.0000       0.112867         3.0713 
  98   0.0000       0.113917         3.0998 
  99   0.0000       0.119189         3.2433 
 100   0.0000       0.122051         3.3212 
 101   0.0000       0.128339         3.4923 
 102   0.0000       0.129949         3.5361 
 103   0.0000       0.131333         3.5738 
 104   0.0000       0.133678         3.6376 
 105   0.0000       0.136030         3.7016 
 106   0.0000       0.137702         3.7471 
 107   0.0000       0.139811         3.8045 
 108   0.0000       0.142686         3.8827 
 109   0.0000       0.143346         3.9007 
 110   0.0000       0.146961         3.9990 
 111   0.0000       0.148873         4.0510 
 112   0.0000       0.150059         4.0833 
 113   0.0000       0.153178         4.1682 
 114   0.0000       0.155274         4.2252 
 115   0.0000       0.157430         4.2839 
 116   0.0000       0.159020         4.3272 
 117   0.0000       0.160448         4.3660 
 118   0.0000       0.161164         4.3855 
 119   0.0000       0.163904         4.4601 
 120   0.0000       0.165332         4.4989 
 121   0.0000       0.169134         4.6024 
 122   0.0000       0.175946         4.7877 
 123   0.0000       0.177996         4.8435 
 124   0.0000       0.179753         4.8913 
 125   0.0000       0.186314         5.0699 
 126   0.0000       0.188832         5.1384 
 127   0.0000       0.192723         5.2443 
 128   0.0000       0.196252         5.3403 
 129   0.0000       0.203887         5.5480 
 130   0.0000       0.206081         5.6078 
 131   0.0000       0.209556         5.7023 
 132   0.0000       0.217005         5.9050 
 133   0.0000       0.219945         5.9850 
 134   0.0000       0.221443         6.0258 
 135   0.0000       0.222338         6.0501 
 136   0.0000       0.226094         6.1523 
 137   0.0000       0.229493         6.2448 
 138   0.0000       0.230724         6.2783 
 139   0.0000       0.233623         6.3572 
 140   0.0000       0.239358         6.5133 
 141   0.0000       0.240430         6.5424 
 142   0.0000       0.243707         6.6316 
 143   0.0000       0.248898         6.7729 
 144   0.0000       0.251412         6.8413 
 145   0.0000       0.253005         6.8846 
 146   0.0000       0.258982         7.0473 
 147   0.0000       0.262947         7.1552 
 148   0.0000       0.265402         7.2219 
 149   0.0000       0.270142         7.3509 
 150   0.0000       0.275945         7.5089 
 151   0.0000       0.278403         7.5757 
 152   0.0000       0.283267         7.7081 
 153   0.0000       0.286221         7.7885 
 154   0.0000       0.291364         7.9284 
 155   0.0000       0.294236         8.0066 
 156   0.0000       0.300391         8.1741 
 157   0.0000       0.304109         8.2752 
 158   0.0000       0.304746         8.2926 
 159   0.0000       0.312025         8.4906 
 160   0.0000       0.313520         8.5313 
 161   0.0000       0.319285         8.6882 
 162   0.0000       0.320734         8.7276 
 163   0.0000       0.323794         8.8109 
 164   0.0000       0.327454         8.9105 
 165   0.0000       0.330421         8.9912 
 166   0.0000       0.332357         9.0439 
 167   0.0000       0.333798         9.0831 
 168   0.0000       0.343342         9.3428 
 169   0.0000       0.345789         9.4094 
 170   0.0000       0.346960         9.4413 
 171   0.0000       0.352097         9.5810 
 172   0.0000       0.355188         9.6652 
 173   0.0000       0.357322         9.7232 
 174   0.0000       0.361433         9.8351 
 175   0.0000       0.362379         9.8608 
 176   0.0000       0.369311        10.0495 
 177   0.0000       0.370061        10.0699 
 178   0.0000       0.373548        10.1648 
 179   0.0000       0.380007        10.3405 
 180   0.0000       0.383092        10.4245 
 181   0.0000       0.387469        10.5436 
 182   0.0000       0.390632        10.6296 
 183   0.0000       0.391426        10.6512 
 184   0.0000       0.399090        10.8598 
 185   0.0000       0.400636        10.9019 
 186   0.0000       0.403248        10.9729 
 187   0.0000       0.404734        11.0134 
 188   0.0000       0.409925        11.1546 
 189   0.0000       0.411997        11.2110 
 190   0.0000       0.414798        11.2872 
 191   0.0000       0.417197        11.3525 
 192   0.0000       0.419665        11.4197 
 193   0.0000       0.429432        11.6854 
 194   0.0000       0.430246        11.7076 
 195   0.0000       0.434703        11.8289 
 196   0.0000       0.437928        11.9166 
 197   0.0000       0.441531        12.0147 
 198   0.0000       0.444443        12.0939 
 199   0.0000       0.447702        12.1826 
 200   0.0000       0.450958        12.2712 
 201   0.0000       0.455555        12.3963 
 202   0.0000       0.460201        12.5227 
 203   0.0000       0.461347        12.5539 
 204   0.0000       0.463644        12.6164 
 205   0.0000       0.469746        12.7824 
 206   0.0000       0.473192        12.8762 
 207   0.0000       0.477177        12.9847 
 208   0.0000       0.478503        13.0207 
 209   0.0000       0.481035        13.0896 
 210   0.0000       0.486151        13.2288 
 211   0.0000       0.489824        13.3288 
 212   0.0000       0.492898        13.4124 
 213   0.0000       0.498040        13.5524 
 214   0.0000       0.502080        13.6623 
 215   0.0000       0.502636        13.6774 
 216   0.0000       0.504510        13.7284 
 217   0.0000       0.508923        13.8485 
 218   0.0000       0.514192        13.9919 
 219   0.0000       0.515234        14.0202 
 220   0.0000       0.519317        14.1313 
 221   0.0000       0.524496        14.2723 
 222   0.0000       0.525688        14.3047 
 223   0.0000       0.529682        14.4134 
 224   0.0000       0.531204        14.4548 
 225   0.0000       0.532818        14.4987 
 226   0.0000       0.536305        14.5936 
 227   0.0000       0.539954        14.6929 
 228   0.0000       0.542439        14.7605 
 229   0.0000       0.544904        14.8276 
 230   0.0000       0.547633        14.9019 
 231   0.0000       0.553003        15.0480 
 232   0.0000       0.555106        15.1052 
 233   0.0000       0.556764        15.1503 
 234   0.0000       0.561412        15.2768 
 235   0.0000       0.565954        15.4004 
 236   0.0000       0.573370        15.6022 
 237   0.0000       0.575670        15.6648 
 238   0.0000       0.578712        15.7476 
 239   0.0000       0.582771        15.8580 
 240   0.0000       0.584822        15.9138 
 241   0.0000       0.587607        15.9896 
 242   0.0000       0.591853        16.1051 
 243   0.0000       0.596278        16.2256 
 244   0.0000       0.599753        16.3201 
 245   0.0000       0.603232        16.4148 
 246   0.0000       0.608053        16.5460 
 247   0.0000       0.611086        16.6285 
 248   0.0000       0.615362        16.7449 
 249   0.0000       0.616582        16.7781 
 250   0.0000       0.624580        16.9957 
 251   0.0000       0.626169        17.0389 
 252   0.0000       0.629479        17.1290 
 253   0.0000       0.632754        17.2181 
 254   0.0000       0.634184        17.2570 
 255   0.0000       0.641789        17.4640 
 256   0.0000       0.649053        17.6616 
 257   0.0000       0.651330        17.7236 
 258   0.0000       0.652601        17.7582 
 259   0.0000       0.660418        17.9709 
 260   0.0000       0.664050        18.0697 
 261   0.0000       0.668547        18.1921 
 262   0.0000       0.676744        18.4151 
 263   0.0000       0.683105        18.5882 
 264   0.0000       0.685764        18.6606 
 265   0.0000       0.688621        18.7383 
 266   0.0000       0.688869        18.7451 
 267   0.0000       0.696880        18.9631 
 268   0.0000       0.698758        19.0142 
 269   0.0000       0.706044        19.2124 
 270   0.0000       0.709597        19.3091 
 271   0.0000       0.713989        19.4286 
 272   0.0000       0.714797        19.4506 
 273   0.0000       0.717213        19.5164 
 274   0.0000       0.724431        19.7128 
 275   0.0000       0.724730        19.7209 
 276   0.0000       0.731933        19.9169 
 277   0.0000       0.734124        19.9765 
 278   0.0000       0.740680        20.1549 
[...]
  | sigma^2 in % of trace(Dij) retained ...   8.72e+00
  | sigma^2 in % of trace(Dip) retained ...   1.71e+01
  | sigma^2 in % of trace(Dpq) retained ...   1.40e-01
  | Av. % of trace(Di) retained         ...  99.998478529285
  | Av. % of trace(Dp) retained         ...  99.999998269179
  | sigma^2 in % of trace(Di) retained  ...   8.14e-07
  | sigma^2 in % of trace(Dp) retained  ...   1.55e-12
 Distributions of % trace(Dij) recovered:
  |       >= 99.9  ...   105 ( 20.9 % of all IJ-pairs)
  |   [80.0, 90.0) ...    33 (  6.6 % of all IJ-pairs)
  |   [90.0, 99.0) ...   272 ( 54.2 % of all IJ-pairs)
  |   [99.0, 99.9) ...    92 ( 18.3 % of all IJ-pairs)
 Distributions of % trace(Dip) recovered:
  |   [80.0, 90.0) ...    12 ( 10.2 % of all IP-pairs)
  |   [90.0, 99.0) ...    63 ( 53.4 % of all IP-pairs)
  |   [99.0, 99.9) ...    43 ( 36.4 % of all IP-pairs)
 Distributions of % trace(Dpq) recovered:
  |       >= 99.9  ...     5 ( 33.3 % of all PQ-pairs)
  |   [99.0, 99.9) ...    10 ( 66.7 % of all PQ-pairs)
 Distributions of % trace(Di) recovered :
  |       >= 99.9  ...    43 (100.0 % of all I-pairs )
 Distributions of % trace(Dp) recovered :
  |       >= 99.9  ...     5 (100.0 % of all P-pairs )

                       ===========================
                       1104 OF 1652 PAIRS ARE KEPT
                       ===========================

 Initial PAO correlation energy (all pairs)    ...  -2.6934276374 Eh
 Energy constituents in PAO basis (Eh):
  | Vijab(+0) ...  -2.2637630195
  | Viab (-1) ...  -0.1754431784
  | Vab  (-2) ...  -0.0573690321
  | Va   (-1) ...  -0.0000418063
  | Vija (+1) ...  -0.0729189708
  | Vij  (+2) ...  -0.0155074250
  | Via  (+0) ...  -0.1082245186
  | Vi   (+1) ...  -0.0001596868
 Initial PNO correlation energy                ...  -2.6593858147 Eh
 Energy constituents in PNO basis (Eh):
  | Vijab(+0) ...  -2.2456012039 (err=  0.0181618156)
  | Viab (-1) ...  -0.1611986365 (err=  0.0142445419)
  | Vab  (-2) ...  -0.0568809110 (err=  0.0004881211)
  | Va   (-1) ...  -0.0000239295 (err=  0.0000178768)
  | Vija (+1) ...  -0.0719424024 (err=  0.0009765684)
  | Vij  (+2) ...  -0.0154576858 (err=  0.0000497391)
  | Via  (+0) ...  -0.1081216890 (err=  0.0001028295)
  | Vi   (+1) ...  -0.0001593565 (err=  0.0000003303)
 Sum of total truncation errors ...   0.0340418227 Eh
  | Pair screening ...   0.0109022200 Eh
  | PNO truncation ...   0.0231396027 Eh

 UMP2 correlation energy (PAO) ...  -2.6885686480
  | alpha-alpha ...  -0.3869153836 (NP_aa=  895)
  | alpha-beta  ...  -1.9942817503 (NP_ab= 1627)
  | beta -beta  ...  -0.3073715141 (NP_bb=  699)
 UMP2 correlation energy (PNO) ...  -2.6541580222
  | alpha-alpha ...  -0.3749383204 (err=  0.0119770632, NP_aa=  587)
  | alpha-beta  ...  -1.9757655043 (err=  0.0185162461, NP_ab= 1079)
  | beta -beta  ...  -0.3034541975 (err=  0.0039173166, NP_bb=  459)
 Sum of total UMP2 truncation errors ...   0.0344106258 Eh
  | Pair screening ...   0.0109156653 Eh
  | PNO truncation ...   0.0234949605 Eh
 Timing for NEV-PNO construction (sec.)
  | Intermediate construction  ..           47.845
  | Amplitude construction     ..           69.225
  | Total time                 ..          117.070
 Making pair pair interaction lists ...      ok
 Total size for 2-ext PNO integrals ...     10.9 MB
Checking the number of SOMO/SOMO doubles PNOs ... 
 #Truncate: (72, 72)[157] -> [86] .. 
 #Truncate: (73, 73)[158] -> [86] .. 
 #Truncate: (74, 74)[158] -> [86] .. 
 #Truncate: (75, 75)[159] -> [86] .. 
 #Truncate: (76, 76)[158] -> [86] .. 

--------------------------------
LOCAL RI TRANSFORMATION (VABPAO)
--------------------------------

Number of PAOs:    1030
Basis functions:   1025 (343 shells)
Aux. functions:    2424 (644 shells)

Processing maps (0.0 sec)
Average map sizes:
   Aux shells -> PAOs           1030.0
   PAOs       -> AO shells       343.0

Calculating integrals (1657.6 sec, 37370.165 MB)
Finished
-----------------------------
LOCAL RI TRANSFORMATION (IJV)
-----------------------------

Orbital window:      29 to 76
Basis functions:   1025 (343 shells)
Aux. functions:    2424 (644 shells)

Processing maps (0.0 sec)
Average map sizes:
   Aux shells -> MOs(i)           45.6
   Aux shells -> MOs(j)           48.0
   MOs        -> AO shells       339.1

Calculating integrals (23.5 sec, 40.595 MB)
Sorting integrals (0.3 sec, 40.568 MB)
Total time for the integral transformation: 23.9 sec


-------------------------------------
Pair Pair Term precalculation with     
RI-(ij|mn) and (im|jn) transformation  
ON THE FLY                             
-------------------------------------

   IBatch   1 (of   2)              ... done ( 6088.394 sec)
   IBatch   2 (of   2)              ... done ( 2243.423 sec)
Total EXT                           ...        8331.817 sec

---------------------
RI-PNO TRANSFORMATION
---------------------

Total Number of PNOs                   ... 34810
Total Number of IJ-PNOs                ... 30629
Total Number of IP-PNOs                ...  3231
Total Number of PQ-PNOs                ...   950
Total Number of IJ-pairs               ...   961
Total Number of PI-pairs               ...   118
Total Number of PQ-pairs               ...    25
Average number of PNOs per pair        ...    31
Maximal number of PNOs per pair        ...    86
>> Statistics for ij-pairs..
   #pairs with  1 -  5 PNOs   :    0
   #pairs with  6 - 10 PNOs   :    0
   #pairs with 11 - 15 PNOs   :   42
   #pairs with 16 - 20 PNOs   :  222
   #pairs with 21 - 25 PNOs   :  172
   #pairs with 26 - 30 PNOs   :  154
   #pairs with 31 - 35 PNOs   :   70
   #pairs with 36 - 40 PNOs   :   56
   #pairs with 41 - 45 PNOs   :   58
   #pairs with 46 - 50 PNOs   :   17
   #pairs with 51 - 55 PNOs   :   41
   #pairs with 56 - 60 PNOs   :   44
   #pairs with 61 - 65 PNOs   :   72
   #pairs with 66 - 70 PNOs   :   11
   #pairs with 71 - 75 PNOs   :    2
>> Statistics for ip-pairs..
   #pairs with  1 -  5 PNOs   :    0
   #pairs with  6 - 10 PNOs   :    2
   #pairs with 11 - 15 PNOs   :   15
   #pairs with 16 - 20 PNOs   :    5
   #pairs with 21 - 25 PNOs   :   24
   #pairs with 26 - 30 PNOs   :   11
   #pairs with 31 - 35 PNOs   :   49
   #pairs with 36 - 40 PNOs   :   12
   #pairs with 41 - 45 PNOs   :    0
   #pairs with 46 - 50 PNOs   :    0
>> Statistics for pq-pairs..
   #pairs with  1 -  5 PNOs   :    0
   #pairs with  6 - 10 PNOs   :    0
   #pairs with 11 - 15 PNOs   :    0
   #pairs with 16 - 20 PNOs   :    0
   #pairs with 21 - 25 PNOs   :   12
   #pairs with 26 - 30 PNOs   :    8
   #pairs with 31 - 35 PNOs   :    0
   #pairs with 36 - 40 PNOs   :    0
   #pairs with 41 - 45 PNOs   :    0
   #pairs with 46 - 50 PNOs   :    0
   #pairs with 86 - 90 PNOs   :    5

Generation of (ij|ab)[P] integrals            ... on
Generation of (ia|bc)[P],(ja|bc)[P] integrals ... on
Storage of 3 and 4 external integrals         ... on
Generation of ALL (ka|bc)[P] integrals        ... on
Keep RI integrals in memory                   ... off

Ibatch:  1 (of  1)
Starting 2-4 index PNO integral generation ... done

Timings:
Total PNO integral transformation time     ...       2048.830 sec
Size of the 3-external file                ...       290 MB
Size of the 4-external file                ...      1968 MB
Size of the IKJL file                      ...        18 MB
Size of the all 3-external file            ...      6969 MB
Size of the 1-external file                ...        22 MB

Size of the PAO/PNO coefficient matrices   ...     224.2 MB

Making pair/pair overlap matrices          ... done (  333.819 sec)
Size of the pair overlap file              ...    2464.0 MB
Total # unrestricted pairs ...       2125
  # of alpha-alpha pairs   ...        587
  # of alpha-beta pairs    ...       1079
  # of beta-beta pairs     ...        459
Constructing the guess amplitudes          ... done (    0.571 sec)

-------------------------
FINAL STARTUP INFORMATION
-------------------------

E(0)                                       ...  -3028.425737020
E(SL-UMP2 in NEV-PNO space)                ...     -2.689586771
Initial E(tot)                             ...  -3031.115323791
<T|T>                                      ...      0.533545889
Number of unrestricted pairs included      ... 2125
Total number of pairs                      ... 4095
----------------------------------------------------------
                     OPEN-SHELL COUPLED CLUSTER ITERATIONS
----------------------------------------------------------

Number of PNO amplitudes to be optimized        ...          2147949
Number of canonical amplitudes for strong pairs ...       1919309738
Untruncated number of canonical amplitudes      ...       3698645738

Iter       E(tot)           E(Corr)          Delta-E          Residual     Time
  0  -3031.122474592     -2.661308823      0.028277948      0.021254610 2003.60
                           *** Turning on DIIS ***
  1  -3031.235582178     -2.774416408     -0.113107585      0.008213944 2169.18
  2  -3031.299659906     -2.838494137     -0.064077729      0.008422520 2122.65
  3  -3031.320582945     -2.859417175     -0.020923038      0.003387405 2133.26
  4  -3031.327735811     -2.866570042     -0.007152867      0.002663249 2132.22
  5  -3031.331448417     -2.870282648     -0.003712606      0.002010116 2130.42
  6  -3031.332829028     -2.871663259     -0.001380612      0.000906483 2138.03
  7  -3031.333633744     -2.872467975     -0.000804715      0.000421187 2150.09
  8  -3031.333790934     -2.872625165     -0.000157190      0.000183195 2127.22
  9  -3031.333837282     -2.872671513     -0.000046348      0.000125545 2131.68
 10  -3031.333833101     -2.872667331      0.000004181      0.000087659 2135.17
 11  -3031.333843648     -2.872677879     -0.000010548      0.000052531 2128.32
 12  -3031.333849489     -2.872683719     -0.000005840      0.000030389 2120.26
 13  -3031.333851678     -2.872685909     -0.000002190      0.000016178 2121.70
 14  -3031.333852121     -2.872686351     -0.000000442      0.000008891 2109.59
               --- The CCSD iterations have converged ---

E(0)                                       ...  -3028.425737020
E(CORR)(strong-pairs)                      ...     -2.872686351
E(CORR)(weak-pairs)                        ...     -0.035428749
E(CORR)(corrected)                         ...     -2.908115100
E(TOT)                                     ...  -3031.333852121
Singles norm <S|S>**1/2                    ...      0.197811682 ( 0.070786110, 0.127025572)  
T1 diagnostic                              ...      0.020736299                              
<S**2>(linearized)                         ...      8.7507392 (ideal value:      8.7500000)

----------------------
LARGEST PNO AMPLITUDES
----------------------
  51b-> 73b  -1b-> -1b       0.055171
  52b-> 73b  -1b-> -1b       0.049309
  49b-> 72b  -1b-> -1b       0.047759
  49b-> 74b  -1b-> -1b       0.046584
  45a-> 77a  -1a-> -1a       0.045974
  30b-> 73b  -1b-> -1b       0.045178
  45a-> 77a  45b-> 77b       0.044729
  29a-> 77a  -1a-> -1a       0.044600
  63a-> 77a  63b-> 77b       0.044134
  29b-> 77b  -1b-> -1b       0.044126
  67a-> 77a  67b-> 77b       0.044059
  49b-> 75b  -1b-> -1b       0.043756
  59a-> 77a  59b-> 77b       0.043401
  69a-> 77a  69b-> 77b       0.043344
  45b-> 77b  -1b-> -1b       0.043222
  53a-> 77a  53b-> 77b       0.042929

Total # unrestricted pairs ...       1096
  # of alpha-alpha pairs   ...        308
  # of alpha-beta pairs    ...        548
  # of beta-beta pairs     ...        240

-------------------------------------------
DLPNO BASED TRIPLES CORRECTION
-------------------------------------------

Singles multiplier          ...  1.000000
Fragment selection                          .... not used
TCutTNO                     ... 1.000e-09
TCutMP2Pairs                ... 1.000e-05
TCutDOStrong                ... 2.000e-02
TCutMKNStrong               ... 1.000e-02
TCutDOWeak                  ... 4.000e-02
TCutMKNWeak                 ... 1.000e-01
NTCutTNO                    ... 1

Number of Triples that are to be computed         ...     33178

 . . . . . . . . .
10% done  
20% done  
30% done  
40% done  
50% done  
60% done  
70% done  
80% done  
90% done  
          Batch   1   done (  17147.392 sec)

Triples-Correction TCutTNO=   1.000e-09 (NWeakPairs = 0  1  2  3)  -0.117111698189   -0.001860770741    0.000000000000    0.000000000000
Triples-Correction  -0.118972468931

Triples timings:
Total time                      ... 17816.033 sec

Triples List generation         ...     0.000 sec
TNO generation                  ...   668.099 sec
Pair density generation         ...     0.099 sec
Look up tables                  ...     0.110 sec
Generating 3-index integrals    ... 11470.784 sec
Make 4-ind.int. from 3-ind.int  ...     3.760 sec
Projecting amplitudes (D + S)   ...  5417.766 sec
Sorting integrals for spin cases...    54.349 sec
Calculate W0/W1                 ...   162.350 sec
Energy contr. (sum over a,b,c)  ...    38.383 sec

Everything after 3-index        ...  5818.374 sec

Energy contribution AAA         ...    24.533 sec
Energy contribution AAB         ...   115.269 sec
Energy contribution ABB         ...   102.076 sec
Energy contribution BBB         ...    13.292 sec
prep                ...     3.084 sec
makeTTNO            ...  5361.759 sec
copyij              ...     0.129 sec
copyil              ...     3.995 sec
transposeij         ...     0.076 sec
newMatInDoubleProj  ...    52.543 sec
BlasInDoubleProj    ...  2886.375 sec
ProjSingles         ...    46.209 sec
ProjDoubles         ...  5371.556 sec
overall Doubles for projection      ... 2943026
used Doubles for projection         ... 2943026


Number of Triples   (0, 1, 2, 3 weak pairs; overall):  16852   10627       0       0  ( 27479)
Number of Atoms     (0, 1, 2, 3 weak pairs; overall):   19.4    15.3     0.0     0.0  (    29)
Number of PAOs      (0, 1, 2, 3 weak pairs; overall):  756.0   616.7     0.0     0.0  (  1025)
Number of AuxFcns   (0, 1, 2, 3 weak pairs; overall): 1008.8   572.9     0.0     0.0  (  2424)
Number of TNOs (0, 1, 2, 3 weak pairs         ):   80.0    57.8     0.0     0.0
Aver. Number of NTNO, Atoms, PAOs, AuxFcns / Triples:  27479    71.4    17.8   702.1   840.2

Triples Correction (T)                     ...     -0.118972469
    alpha-alpha-alpha ... -0.003943327 (  3.3%)
    alpha-alpha-beta  ... -0.055833406 ( 46.9%)
    alpha-beta -beta  ... -0.055050480 ( 46.3%)
    beta -beta -beta  ... -0.004145255 (  3.5%)
Final correlation energy                   ...     -3.027087569
E(CCSD)                                    ...  -3031.333852121
E(CCSD(T))                                 ...  -3031.452824589

----------------------------
STATISTICS FOR PAIR-ENERGIES
----------------------------
Minimum, maximum and average ratios of UMP and CCSD pair-energies ... 0.51, 1.42, 1.02


------------------------------------------------------------------------------- 
                                     TIMINGS                                   
------------------------------------------------------------------------------- 


Total execution time                   ...    67540.295 sec

Localization of occupied MO's          ...       20.241 sec (  0.0%)
Fock Matrix Formation                  ...     1350.202 sec (  2.0%)
Differential overlap integrals         ...        1.487 sec (  0.0%)
Organizing maps                        ...        1.689 sec (  0.0%)
RI 3-index integral generations        ...     1745.537 sec (  2.6%)
RI-PNO integral transformation         ...    10757.903 sec ( 15.9%)
Initial Guess                          ...     2555.539 sec (  3.8%)
DIIS Solver                            ...       18.108 sec (  0.0%)
State Vector Update                    ...        0.759 sec (  0.0%)
Sigma-vector construction              ...    31853.400 sec ( 47.2%)
  <0|H|D>                              ...        0.031 sec (  0.0% of sigma)
  <D|H|D>(0-ext)                       ...     5480.367 sec ( 17.2% of sigma)
  <D|H|D>(2-ext Fock)                  ...        1.541 sec (  0.0% of sigma)
  <D|H|D>(2-ext)                       ...     4859.953 sec ( 15.3% of sigma)
  <D|H|D>(4-ext)                       ...      162.051 sec (  0.5% of sigma)
  <D|H|D>(4-ext-corr)                  ...     1004.949 sec (  3.2% of sigma)
  CCSD doubles correction              ...      519.526 sec (  1.6% of sigma)
  <S|H|S>                              ...      829.238 sec (  2.6% of sigma)
  <S|H|D>(1-ext)                       ...      248.945 sec (  0.8% of sigma)
  <D|H|S>(1-ext)                       ...        0.926 sec (  0.0% of sigma)
  <S|H|D>(3-ext)                       ...       23.325 sec (  0.1% of sigma)
  CCSD singles correction              ...        0.004 sec (  0.0% of sigma)
  Fock-dressing                        ...     9713.424 sec ( 30.5% of sigma)
  Singles amplitudes                   ...      117.706 sec (  0.4% of sigma)
  (ik|jl)-dressing                     ...     6980.966 sec ( 21.9% of sigma)
  (ij|ab),(ia|jb)-dressing             ...     1795.202 sec (  5.6% of sigma)
  Pair energies                        ...        0.123 sec (  0.0% of sigma)
Total Time for computing (T)           ...    19639.841 sec ( 29.1% of ALL)


-------------------------   --------------------
FINAL SINGLE POINT ENERGY     -3031.452824589474
-------------------------   --------------------


                            ***************************************
                            *     ORCA property calculations      *
                            ***************************************

                                    ---------------------
                                    Active property flags
                                    ---------------------
   (+) Dipole Moment


------------------------------------------------------------------------------
                       ORCA ELECTRIC PROPERTIES CALCULATION
------------------------------------------------------------------------------

Dipole Moment Calculation                       ... on
Quadrupole Moment Calculation                   ... off
Polarizability Calculation                      ... off
GBWName                                         ... simple-grid-170-290-b3lyp_d3bj-631gd-gas-singlepoint-DLPNO_CCSD_T1-NormalPNO-augtz-gas.gbw
Electron density file                           ... simple-grid-170-290-b3lyp_d3bj-631gd-gas-singlepoint-DLPNO_CCSD_T1-NormalPNO-augtz-gas.scfp.tmp
The origin for moment calculation is the CENTER OF MASS  = ( 0.328597,  0.046166 -0.009088)

-------------
DIPOLE MOMENT
-------------
                                X             Y             Z
Electronic contribution:     42.74290       6.82625      -1.36075
Nuclear contribution   :    -48.96099      -6.87871       1.35399
                        -----------------------------------------
Total Dipole Moment    :     -6.21810      -0.05247      -0.00676
                        -----------------------------------------
Magnitude (a.u.)       :      6.21832
Magnitude (Debye)      :     15.80572



--------------------
Rotational spectrum 
--------------------
 
Rotational constants in cm-1:     0.020303     0.010106     0.009662 
Rotational constants in MHz :   608.670540   302.978864   289.673827 

 Dipole components along the rotational axes: 
x,y,z [a.u.] :    -6.217838     0.024612    -0.073463 
x,y,z [Debye]:   -15.804489     0.062559    -0.186729 

 

Timings for individual modules:

Sum of individual times         ...    85300.623 sec (=1421.677 min)
GTO integral calculation        ...       12.907 sec (=   0.215 min)   0.0 %
SCF iterations                  ...    17738.481 sec (= 295.641 min)  20.8 %
MDCI module                     ...    67549.235 sec (=1125.821 min)  79.2 %
                             ****ORCA TERMINATED NORMALLY****
TOTAL RUN TIME: 0 days 23 hours 41 minutes 44 seconds 626 msec
