
                                 *****************
                                 * O   R   C   A *
                                 *****************

           --- An Ab Initio, DFT and Semiempirical electronic structure package ---

                  #######################################################
                  #                        -***-                        #
                  #          Department of theory and spectroscopy      #
                  #               Directorship: Frank Neese             #
                  #        Max Planck Institute fuer Kohlenforschung    #
                  #                Kaiser Wilhelm Platz 1               #
                  #                 D-45470 Muelheim/Ruhr               #
                  #                      Germany                        #
                  #                                                     #
                  #                  All rights reserved                #
                  #                        -***-                        #
                  #######################################################


                         Program Version 4.1.2  - RELEASE  -


 With contributions from (in alphabetic order):
   Daniel Aravena         : Magnetic Properties
   Michael Atanasov       : Ab Initio Ligand Field Theory
   Alexander A. Auer      : GIAO ZORA
   Ute Becker             : Parallelization
   Giovanni Bistoni       : ED, Open-shell LED
   Martin Brehm           : Molecular dynamics
   Dmytro Bykov           : SCF Hessian
   Vijay G. Chilkuri      : MRCI spin determinant printing
   Dipayan Datta          : RHF DLPNO-CCSD density
   Achintya Kumar Dutta   : EOM-CC, STEOM-CC
   Dmitry Ganyushin       : Spin-Orbit,Spin-Spin,Magnetic field MRCI
   Miquel Garcia          : C-PCM Hessian
   Yang Guo               : DLPNO-NEVPT2, CIM, IAO-localization
   Andreas Hansen         : Spin unrestricted coupled pair/coupled cluster methods
   Benjamin Helmich-Paris : CASSCF linear response (MC-RPA)
   Lee Huntington         : MR-EOM, pCC
   Robert Izsak           : Overlap fitted RIJCOSX, COSX-SCS-MP3, EOM
   Christian Kollmar      : KDIIS, OOCD, Brueckner-CCSD(T), CCSD density
   Simone Kossmann        : Meta GGA functionals, TD-DFT gradient, OOMP2, MP2 Hessian
   Martin Krupicka        : AUTO-CI
   Lucas Lang             : DCDCAS
   Dagmar Lenk            : GEPOL surface, SMD
   Dimitrios Liakos       : Extrapolation schemes; parallel MDCI
   Dimitrios Manganas     : ROCIS; embedding schemes
   Dimitrios Pantazis     : SARC Basis sets
   Taras Petrenko         : DFT Hessian,TD-DFT gradient, ASA, ECA, R-Raman, ABS, FL, XAS/XES, NRVS
   Peter Pinski           : DLPNO-MP2, DLPNO-MP2 Gradient
   Christoph Reimann      : Effective Core Potentials
   Marius Retegan         : Local ZFS, SOC
   Christoph Riplinger    : Optimizer, TS searches, QM/MM, DLPNO-CCSD(T), (RO)-DLPNO pert. Triples
   Tobias Risthaus        : Range-separated hybrids, TD-DFT gradient, RPA, STAB
   Michael Roemelt        : Restricted open shell CIS
   Masaaki Saitow         : Open-shell DLPNO
   Barbara Sandhoefer     : DKH picture change effects
   Avijit Sen             : IP-ROCIS
   Kantharuban Sivalingam : CASSCF convergence, NEVPT2, FIC-MRCI
   Bernardo de Souza      : ESD, SOC TD-DFT
   Georgi Stoychev        : AutoAux, RI-MP2 NMR
   Willem Van den Heuvel  : Paramagnetic NMR
   Boris Wezisla          : Elementary symmetry handling
   Frank Wennmohs         : Technical directorship


 We gratefully acknowledge several colleagues who have allowed us to
 interface, adapt or use parts of their codes:
   Stefan Grimme, W. Hujo, H. Kruse,             : VdW corrections, initial TS optimization,
                  C. Bannwarth                     DFT functionals, gCP, sTDA/sTD-DF
   Ed Valeev                                     : LibInt (2-el integral package), F12 methods
   Garnet Chan, S. Sharma, J. Yang, R. Olivares  : DMRG
   Ulf Ekstrom                                   : XCFun DFT Library
   Mihaly Kallay                                 : mrcc  (arbitrary order and MRCC methods)
   Andreas Klamt, Michael Diedenhofen            : otool_cosmo (COSMO solvation model)
   Jiri Pittner, Ondrej Demel                    : Mk-CCSD
   Frank Weinhold                                : gennbo (NPA and NBO analysis)
   Christopher J. Cramer and Donald G. Truhlar   : smd solvation model
   Lars Goerigk                                  : TD-DFT with DH, B97 family of functionals
   V. Asgeirsson, H. Jonsson                     : NEB implementation
   FAccTs GmbH                                   : IRC, NEB, NEB-TS, Multilevel


 Your calculation uses the libint2 library for the computation of 2-el integrals
 For citations please refer to: http://libint.valeyev.net

 This ORCA versions uses:
   CBLAS   interface :  Fast vector & matrix operations
   LAPACKE interface :  Fast linear algebra routines
   SCALAPACK package :  Parallel linear algebra routines


----- Orbital basis set information -----
Your calculation utilizes the basis: aug-cc-pVTZ 
    H, B-Ne : Obtained from the ccRepo (grant-hill.group.shef.ac.uk/ccrepo) Feb. 2017
              R. A. Kendall, T. H. Dunning, Jr., R. J. Harrison, J. Chem. Phys. 96, 6796 (1992)
         He : Obtained from the ccRepo (grant-hill.group.shef.ac.uk/ccrepo) Feb. 2017
              D. E. Woon, T. H. Dunning, Jr., J. Chem. Phys. 100, 2975 (1994)
  Li-Be, Na : Obtained from the ccRepo (grant-hill.group.shef.ac.uk/ccrepo) Feb. 2017
              B. P. Prascher, D. E. Woon, K. A. Peterson, T. H. Dunning, Jr., A. K. Wilson, Theor. Chem. Acc. 128, 69 (2011)
         Mg : Obtained from the Peterson Research Group Website (tyr0.chem.wsu.edu/~kipeters) Feb. 2017
              B. P. Prascher, D. E. Woon, K. A. Peterson, T. H. Dunning, Jr., A. K. Wilson, Theor. Chem. Acc. 128, 69 (2011)
      Al-Ar : Obtained from the ccRepo (grant-hill.group.shef.ac.uk/ccrepo) Feb. 2017
              D. E. Woon, T. H. Dunning, Jr., J. Chem. Phys. 98, 1358 (1993)
      Sc-Zn : Obtained from the ccRepo (grant-hill.group.shef.ac.uk/ccrepo) Feb. 2017
              N. B. Balabanov, K. A. Peterson, J. Chem. Phys. 123, 064107 (2005)
              N. B. Balabanov, K. A. Peterson, J. Chem. Phys. 125, 074110 (2006)
      Ga-Kr : Obtained from the ccRepo (grant-hill.group.shef.ac.uk/ccrepo) Feb. 2017
              A. K. Wilson, D. E. Woon, K. A. Peterson, T. H. Dunning, Jr., J. Chem. Phys. 110, 7667 (1999)
     Ag, Au : Obtained from the Peterson Research Group Website (tyr0.chem.wsu.edu/~kipeters) Feb. 2017
              K. A. Peterson, C. Puzzarini, Theor. Chem. Acc. 114, 283 (2005)

----- AuxJ basis set information -----
Your calculation utilizes the AutoAux generation procedure.
  G. L. Stoychev, A. A. Auer, F. Neese, J. Chem. Theory Comput. 13, 554 (2017)

----- AuxC basis set information -----
Your calculation utilizes the auxiliary basis: aug-cc-pVTZ/C 
  H-He, B-F, Al-Ar, Ga-Kr : Obtained from the EMSL Basis Set Exchange (bse.pnl.gov) Feb. 2017
                            F. Weigend, A. Kohn, C. Hattig, J. Chem. Phys. 116, 3175 (2002)
                   Be, Mg : Obtained from the TURBOMOLE 7.0 basis set library
                            C. Haettig, Phys. Chem. Chem. Phys. 7, 59 (2005)
                       Ne : Obtained from the EMSL Basis Set Exchange (bse.pnl.gov) Feb. 2017
                            C. Haettig, Phys. Chem. Chem. Phys. 7, 59 (2005)
                            F. Weigend, A. Kohn, C. Hattig, J. Chem. Phys. 116, 3175 (2002)
                    Sc-Zn : Obtained from the EMSL Basis Set Exchange (bse.pnl.gov) Feb. 2017
                            J. G. Hill, J. A. Platts, J. Chem. Phys. 128, 044104 (2008)

----- AuxJK basis set information -----
Your calculation utilizes the AutoAux generation procedure.
  G. L. Stoychev, A. A. Auer, F. Neese, J. Chem. Theory Comput. 13, 554 (2017)

================================================================================
                                        WARNINGS
                       Please study these warnings very carefully!
================================================================================


WARNING: your system is open-shell and RHF/RKS was chosen
  ===> : WILL SWITCH to UHF/UKS


WARNING: MDCI localization with Augmented Hessian Foster-Boys
  ===> : Switching off randomization!

WARNING: Post HF methods need fully converged wavefunctions
  ===> : Setting SCFConvForced true
         You can overwrite this default with %scf ConvForced false 


INFO   : the flag for use of LIBINT has been found!

================================================================================
                                       INPUT FILE
================================================================================
NAME = simple-grid-230-295-b3lyp_d3bj-631gd-gas-singlepoint-DLPNO_CCSD_T1-NormalPNO-augtz-gas.inp
|  1> ! aug-cc-pVTZ aug-cc-pVTZ/C DLPNO-CCSD(T1) TightSCF NormalPNO UNO MiniPrint AutoAux
|  2> %pal nproc 10 end
|  3> %maxcore 20000
|  4> %mdci
|  5>      density none
|  6> end
|  7> 
|  8> * xyz 0 6
|  9>  O     -0.28240200     -0.26282500     -0.56758400
| 10>  C     -1.08623000     -1.21880100     -0.33197500
| 11>  C     -2.76828300     -0.21728800      0.87536500
| 12>  C     -3.02175700      0.71856900     -0.08252700
| 13>  C     -4.03793200      0.49876600     -1.16234300
| 14> Fe      1.53838800      0.18624800     -0.08531300
| 15> Cl      1.86320600      2.09598600     -1.09016600
| 16>  C     -2.25912500      2.00322300     -0.13902200
| 17> Cl      2.62711500     -1.54210000     -0.88187500
| 18> Cl      1.69794600      0.32554400      2.10130600
| 19>  H     -3.39913300     -1.10529200      0.87783100
| 20>  H     -2.77767900      2.76010700     -0.73393800
| 21>  H     -2.04406800      2.41164400      0.85186400
| 22>  H     -1.28713800      1.81004500     -0.62116100
| 23>  H     -4.85298000      1.22446100     -1.03610400
| 24>  H     -3.61510400      0.68622700     -2.15781100
| 25>  H     -4.47218700     -0.50366200     -1.13888100
| 26>  C     -2.05208300      0.10827000      2.16571400
| 27>  H     -2.61409400      0.86692800      2.72462600
| 28>  H     -1.96883200     -0.77035500      2.80840000
| 29>  H     -1.04547000      0.50268200      2.00571100
| 30>  C     -0.74712100     -2.20473600      0.75780000
| 31>  H     -1.60447200     -2.80749500      1.06241700
| 32>  H      0.00618100     -2.87322500      0.31597100
| 33>  H     -0.28634900     -1.72302800      1.61913200
| 34>  C     -1.85323200     -1.75921100     -1.51089800
| 35>  H     -1.17985400     -2.47300700     -2.00551500
| 36>  H     -2.75692300     -2.29568400     -1.21622500
| 37>  H     -2.08672000     -0.97326800     -2.22769000
| 38> *
| 39> 
| 40> 
| 41>                          ****END OF INPUT****
================================================================================

                       ****************************
                       * Single Point Calculation *
                       ****************************

---------------------------------
CARTESIAN COORDINATES (ANGSTROEM)
---------------------------------
  O     -0.282402   -0.262825   -0.567584
  C     -1.086230   -1.218801   -0.331975
  C     -2.768283   -0.217288    0.875365
  C     -3.021757    0.718569   -0.082527
  C     -4.037932    0.498766   -1.162343
  Fe     1.538388    0.186248   -0.085313
  Cl     1.863206    2.095986   -1.090166
  C     -2.259125    2.003223   -0.139022
  Cl     2.627115   -1.542100   -0.881875
  Cl     1.697946    0.325544    2.101306
  H     -3.399133   -1.105292    0.877831
  H     -2.777679    2.760107   -0.733938
  H     -2.044068    2.411644    0.851864
  H     -1.287138    1.810045   -0.621161
  H     -4.852980    1.224461   -1.036104
  H     -3.615104    0.686227   -2.157811
  H     -4.472187   -0.503662   -1.138881
  C     -2.052083    0.108270    2.165714
  H     -2.614094    0.866928    2.724626
  H     -1.968832   -0.770355    2.808400
  H     -1.045470    0.502682    2.005711
  C     -0.747121   -2.204736    0.757800
  H     -1.604472   -2.807495    1.062417
  H      0.006181   -2.873225    0.315971
  H     -0.286349   -1.723028    1.619132
  C     -1.853232   -1.759211   -1.510898
  H     -1.179854   -2.473007   -2.005515
  H     -2.756923   -2.295684   -1.216225
  H     -2.086720   -0.973268   -2.227690

----------------------------
CARTESIAN COORDINATES (A.U.)
----------------------------
  NO LB      ZA    FRAG     MASS         X           Y           Z
   0 O     8.0000    0    15.999   -0.533662   -0.496667   -1.072578
   1 C     6.0000    0    12.011   -2.052677   -2.303200   -0.627342
   2 C     6.0000    0    12.011   -5.231297   -0.410615    1.654200
   3 C     6.0000    0    12.011   -5.710293    1.357899   -0.155953
   4 C     6.0000    0    12.011   -7.630586    0.942531   -2.196510
   5 Fe   26.0000    0    55.850    2.907132    0.351958   -0.161218
   6 Cl   17.0000    0    35.453    3.520949    3.960840   -2.060115
   7 C     6.0000    0    12.011   -4.269128    3.785543   -0.262714
   8 Cl   17.0000    0    35.453    4.964528   -2.914147   -1.666502
   9 Cl   17.0000    0    35.453    3.208653    0.615189    3.970893
  10 H     1.0000    0     1.008   -6.423430   -2.088699    1.658860
  11 H     1.0000    0     1.008   -5.249053    5.215846   -1.386942
  12 H     1.0000    0     1.008   -3.862729    4.557347    1.609790
  13 H     1.0000    0     1.008   -2.432338    3.420489   -1.173824
  14 H     1.0000    0     1.008   -9.170803    2.313896   -1.957953
  15 H     1.0000    0     1.008   -6.831557    1.296781   -4.077672
  16 H     1.0000    0     1.008   -8.451209   -0.951783   -2.152173
  17 C     6.0000    0    12.011   -3.877875    0.204601    4.092606
  18 H     1.0000    0     1.008   -4.939922    1.638256    5.148797
  19 H     1.0000    0     1.008   -3.720553   -1.455760    5.307107
  20 H     1.0000    0     1.008   -1.975652    0.949931    3.790244
  21 C     6.0000    0    12.011   -1.411854   -4.166347    1.432034
  22 H     1.0000    0     1.008   -3.032013   -5.305397    2.007677
  23 H     1.0000    0     1.008    0.011680   -5.429608    0.597099
  24 H     1.0000    0     1.008   -0.541121   -3.256051    3.059716
  25 C     6.0000    0    12.011   -3.502101   -3.324427   -2.855183
  26 H     1.0000    0     1.008   -2.229601   -4.673306   -3.789874
  27 H     1.0000    0     1.008   -5.209829   -4.338214   -2.298332
  28 H     1.0000    0     1.008   -3.943329   -1.839210   -4.209724



           ************************************************************
           *        Program running with 10 parallel MPI-processes    *
           *              working on a common directory               *
           ************************************************************


           ************************************************************
           *        Program running with 10 parallel MPI-processes    *
           *              working on a common directory               *
           ************************************************************

Diagonalization of the overlap matrix:
Smallest eigenvalue                        ... 8.064e-07
Time for diagonalization                   ...    0.331 sec
Threshold for overlap eigenvalues          ... 1.000e-08
Number of eigenvalues below threshold      ... 0
Time for construction of square roots      ...    0.273 sec
Total time needed                          ...    0.610 sec

-------------------
DFT GRID GENERATION
-------------------

General Integration Accuracy     IntAcc      ...  4.340
Radial Grid Type                 RadialGrid  ... Gauss-Chebyshev
Angular Grid (max. acc.)         AngularGrid ... Lebedev-110
Angular grid pruning method      GridPruning ... 3 (G Style)
Weight generation scheme         WeightScheme... Becke
Basis function cutoff            BFCut       ...    1.0000e-11
Integration weight cutoff        WCut        ...    1.0000e-14
Grids for H and He will be reduced by one unit

# of grid points (after initial pruning)     ...  36112 (   0.0 sec)
# of grid points (after weights+screening)   ...  32414 (   0.1 sec)
nearest neighbour list constructed           ...    0.0 sec
Grid point re-assignment to atoms done       ...    0.0 sec
Grid point division into batches done        ...    0.0 sec
Reduced shell lists constructed in    0.3 sec

Total number of grid points                  ...    32414
Total number of batches                      ...      525
Average number of points per batch           ...       61
Average number of grid points per atom       ...     1118
Average number of shells per batch           ...   289.20 (84.32%)
Average number of basis functions per batch  ...   858.39 (83.75%)
Average number of large shells per batch     ...   235.07 (81.28%)
Average number of large basis fcns per batch ...   698.26 (81.35%)
Maximum spatial batch extension              ...   3.59,  3.26,  5.51 au
Average spatial batch extension              ...   0.18,  0.17,  0.17 au

Time for grid setup =    0.381 sec

Loading Hartree-Fock densities                     ... done
Calculating cut-offs                               ... done
Setting up the integral package                    ... done
Initializing the effective Hamiltonian             ... done
Starting the Coulomb interaction                   ... done (   1.1 sec)
Reading the grid                                   ... done
Mapping shells                                     ... done
Starting the XC term evaluation                    ... done (   0.8 sec)
Transforming the Hamiltonian                       ... done (   0.2 sec)
Diagonalizing the Hamiltonian                      ... done (   0.4 sec)
Back transforming the eigenvectors                 ... done (   0.1 sec)
Now organizing SCF variables                       ... done
--------------
SCF ITERATIONS
--------------
ITER       Energy         Delta-E        Max-DP      RMS-DP      [F,P]     Damp
               ***  Starting incremental Fock matrix formation  ***
  0  -3027.5816487839   0.000000000000 0.26083804  0.00101256  0.2530324 0.7000
  1  -3027.8326717443  -0.251022960410 0.20343032  0.00079625  0.1545674 0.7000
                               ***Turning on DIIS***
  2  -3028.0011425422  -0.168470797954 0.14542274  0.00058671  0.1094919 0.7000
  3  -3029.5903296550  -1.589187112829 0.32654641  0.00146459  0.0818739 0.0000
  4  -3028.3008712410   1.289458414012 0.04600128  0.00021289  0.0211874 0.0000
  5  -3028.4162033988  -0.115332157779 0.03911043  0.00016944  0.0119318 0.0000
  6  -3028.4659952961  -0.049791897281 0.02052591  0.00007165  0.0056048 0.0000
  7  -3028.4806612492  -0.014665953129 0.00817767  0.00003275  0.0035924 0.0000
  8  -3028.4672676245   0.013393624690 0.00604737  0.00001893  0.0016094 0.0000
  9  -3028.4644764459   0.002791178624 0.00291403  0.00001126  0.0007608 0.0000
 10  -3028.4522331826   0.012243263284 0.00088764  0.00000314  0.0003643 0.0000
 11  -3028.4570720514  -0.004838868803 0.00042386  0.00000168  0.0000830 0.0000
 12  -3028.4551684445   0.001903606947 0.00041816  0.00000141  0.0000242 0.0000
 13  -3028.4552331289  -0.000064684450 0.00039173  0.00000181  0.0000094 0.0000
 14  -3028.4552517879  -0.000018658968 0.00091733  0.00000234  0.0000052 0.0000
 15  -3028.4551933176   0.000058470330 0.00023037  0.00000170  0.0000027 0.0000
 16  -3028.4552092430  -0.000015925447 0.00086417  0.00000194  0.0000023 0.0000
 17  -3028.4552220097  -0.000012766724 0.00050457  0.00000186  0.0000014 0.0000
 18  -3028.4552087438   0.000013265910 0.00123961  0.00000311  0.0000011 0.0000
                            ***DIIS convergence achieved***

               *****************************************************
               *                     SUCCESS                       *
               *           SCF CONVERGED AFTER  19 CYCLES          *
               *****************************************************

Total Energy       :        -3028.45521614 Eh          -82408.45600 eV
  Last Energy change         ...   -7.4008e-06  Tolerance :   1.0000e-08
  Last MAX-Density change    ...    6.6109e-04  Tolerance :   1.0000e-07
             **** THE GBW FILE WAS UPDATED (simple-grid-230-295-b3lyp_d3bj-631gd-gas-singlepoint-DLPNO_CCSD_T1-NormalPNO-augtz-gas.gbw) ****
             **** DENSITY FILE WAS UPDATED (simple-grid-230-295-b3lyp_d3bj-631gd-gas-singlepoint-DLPNO_CCSD_T1-NormalPNO-augtz-gas.scfp.tmp) ****
             **** ENERGY FILE WAS UPDATED (simple-grid-230-295-b3lyp_d3bj-631gd-gas-singlepoint-DLPNO_CCSD_T1-NormalPNO-augtz-gas.en.tmp) ****
----------------------
UHF SPIN CONTAMINATION
----------------------

Expectation value of <S**2>     :     8.765057
Ideal value S*(S+1) for S=2.5   :     8.750000
Deviation                       :     0.015057

----------------
ORBITAL ENERGIES
----------------
                 SPIN UP ORBITALS
  NO   OCC          E(Eh)            E(eV) 
   0   1.0000    -261.567238     -7117.6064 
   1   1.0000    -104.787123     -2851.4026 
   2   1.0000    -104.784477     -2851.3306 
   3   1.0000    -104.782605     -2851.2796 
   4   1.0000     -32.235005      -877.1591 
   5   1.0000     -27.711395      -754.0654 
   6   1.0000     -27.710402      -754.0384 
   7   1.0000     -27.710238      -754.0339 
   8   1.0000     -20.602179      -560.6138 
   9   1.0000     -11.415360      -310.6277 
  10   1.0000     -11.295738      -307.3727 
  11   1.0000     -11.271919      -306.7245 
  12   1.0000     -11.268005      -306.6180 
  13   1.0000     -11.260538      -306.4148 
  14   1.0000     -11.256456      -306.3037 
  15   1.0000     -11.242840      -305.9332 
  16   1.0000     -11.239866      -305.8523 
  17   1.0000     -10.513790      -286.0948 
  18   1.0000     -10.511127      -286.0223 
  19   1.0000     -10.509217      -285.9703 
  20   1.0000      -7.980627      -217.1639 
  21   1.0000      -7.979846      -217.1426 
  22   1.0000      -7.979838      -217.1424 
  23   1.0000      -7.977998      -217.0924 
  24   1.0000      -7.977228      -217.0714 
  25   1.0000      -7.977152      -217.0693 
  26   1.0000      -7.976025      -217.0387 
  27   1.0000      -7.975354      -217.0204 
  28   1.0000      -7.975271      -217.0182 
  29   1.0000      -4.590090      -124.9027 
  30   1.0000      -3.203250       -87.1649 
  31   1.0000      -3.201579       -87.1194 
  32   1.0000      -3.201397       -87.1144 
  33   1.0000      -1.445481       -39.3335 
  34   1.0000      -1.145542       -31.1718 
  35   1.0000      -1.093472       -29.7549 
  36   1.0000      -1.059584       -28.8327 
  37   1.0000      -1.054156       -28.6850 
  38   1.0000      -1.051283       -28.6069 
  39   1.0000      -1.029312       -28.0090 
  40   1.0000      -1.002431       -27.2775 
  41   1.0000      -0.975270       -26.5384 
  42   1.0000      -0.936206       -25.4755 
  43   1.0000      -0.919204       -25.0128 
  44   1.0000      -0.919171       -25.0119 
  45   1.0000      -0.908812       -24.7300 
  46   1.0000      -0.908245       -24.7146 
  47   1.0000      -0.906279       -24.6611 
  48   1.0000      -0.805763       -21.9259 
  49   1.0000      -0.745259       -20.2795 
  50   1.0000      -0.701150       -19.0793 
  51   1.0000      -0.691228       -18.8093 
  52   1.0000      -0.683408       -18.5965 
  53   1.0000      -0.667943       -18.1756 
  54   1.0000      -0.635285       -17.2870 
  55   1.0000      -0.622567       -16.9409 
  56   1.0000      -0.605284       -16.4706 
  57   1.0000      -0.596743       -16.2382 
  58   1.0000      -0.583714       -15.8837 
  59   1.0000      -0.574597       -15.6356 
  60   1.0000      -0.570057       -15.5121 
  61   1.0000      -0.560745       -15.2586 
  62   1.0000      -0.553259       -15.0549 
  63   1.0000      -0.543277       -14.7833 
  64   1.0000      -0.534327       -14.5398 
  65   1.0000      -0.527325       -14.3492 
  66   1.0000      -0.508920       -13.8484 
  67   1.0000      -0.494267       -13.4497 
  68   1.0000      -0.472327       -12.8527 
  69   1.0000      -0.467406       -12.7188 
  70   1.0000      -0.440449       -11.9852 
  71   1.0000      -0.434825       -11.8322 
  72   1.0000      -0.432448       -11.7675 
  73   1.0000      -0.424277       -11.5452 
  74   1.0000      -0.422875       -11.5070 
  75   1.0000      -0.421705       -11.4752 
  76   1.0000      -0.369169       -10.0456 
  77   0.0000       0.011310         0.3077 
  78   0.0000       0.021936         0.5969 
  79   0.0000       0.022921         0.6237 
  80   0.0000       0.029310         0.7976 
  81   0.0000       0.038375         1.0442 
  82   0.0000       0.040071         1.0904 
  83   0.0000       0.041569         1.1311 
  84   0.0000       0.043760         1.1908 
  85   0.0000       0.044480         1.2104 
  86   0.0000       0.051993         1.4148 
  87   0.0000       0.057250         1.5579 
  88   0.0000       0.058622         1.5952 
  89   0.0000       0.061036         1.6609 
  90   0.0000       0.063890         1.7385 
  91   0.0000       0.065279         1.7763 
  92   0.0000       0.072339         1.9684 
  93   0.0000       0.076373         2.0782 
  94   0.0000       0.084304         2.2940 
  95   0.0000       0.088582         2.4104 
  96   0.0000       0.091156         2.4805 
  97   0.0000       0.092077         2.5055 
  98   0.0000       0.098790         2.6882 
  99   0.0000       0.101771         2.7693 
 100   0.0000       0.105266         2.8644 
 101   0.0000       0.106393         2.8951 
 102   0.0000       0.117404         3.1947 
 103   0.0000       0.118011         3.2112 
 104   0.0000       0.122100         3.3225 
 105   0.0000       0.122985         3.3466 
 106   0.0000       0.123923         3.3721 
 107   0.0000       0.130162         3.5419 
 108   0.0000       0.130860         3.5609 
 109   0.0000       0.133304         3.6274 
 110   0.0000       0.138192         3.7604 
 111   0.0000       0.140030         3.8104 
 112   0.0000       0.145308         3.9540 
 113   0.0000       0.148652         4.0450 
 114   0.0000       0.151071         4.1108 
 115   0.0000       0.154770         4.2115 
 116   0.0000       0.156863         4.2685 
 117   0.0000       0.158349         4.3089 
 118   0.0000       0.161560         4.3963 
 119   0.0000       0.163856         4.4588 
 120   0.0000       0.166375         4.5273 
 121   0.0000       0.169110         4.6017 
 122   0.0000       0.172701         4.6994 
 123   0.0000       0.177292         4.8244 
 124   0.0000       0.178664         4.8617 
 125   0.0000       0.182311         4.9609 
 126   0.0000       0.183399         4.9905 
 127   0.0000       0.186896         5.0857 
 128   0.0000       0.188980         5.1424 
 129   0.0000       0.198283         5.3956 
 130   0.0000       0.200782         5.4636 
 131   0.0000       0.202481         5.5098 
 132   0.0000       0.204136         5.5548 
 133   0.0000       0.206872         5.6293 
 134   0.0000       0.213707         5.8153 
 135   0.0000       0.215023         5.8511 
 136   0.0000       0.217657         5.9228 
 137   0.0000       0.219464         5.9719 
 138   0.0000       0.223834         6.0908 
 139   0.0000       0.228287         6.2120 
 140   0.0000       0.230084         6.2609 
 141   0.0000       0.234805         6.3894 
 142   0.0000       0.237482         6.4622 
 143   0.0000       0.241688         6.5767 
 144   0.0000       0.244081         6.6418 
 145   0.0000       0.249478         6.7886 
 146   0.0000       0.253714         6.9039 
 147   0.0000       0.256329         6.9751 
 148   0.0000       0.258929         7.0458 
 149   0.0000       0.261769         7.1231 
 150   0.0000       0.271384         7.3847 
 151   0.0000       0.272578         7.4172 
 152   0.0000       0.278070         7.5667 
 153   0.0000       0.281133         7.6500 
 154   0.0000       0.283072         7.7028 
 155   0.0000       0.289336         7.8732 
 156   0.0000       0.293493         7.9864 
 157   0.0000       0.295718         8.0469 
 158   0.0000       0.299120         8.1395 
 159   0.0000       0.300347         8.1729 
 160   0.0000       0.304124         8.2756 
 161   0.0000       0.312485         8.5031 
 162   0.0000       0.314571         8.5599 
 163   0.0000       0.321044         8.7361 
 164   0.0000       0.325269         8.8510 
 165   0.0000       0.329777         8.9737 
 166   0.0000       0.330270         8.9871 
 167   0.0000       0.332217         9.0401 
 168   0.0000       0.336226         9.1492 
 169   0.0000       0.341521         9.2933 
 170   0.0000       0.343611         9.3501 
 171   0.0000       0.350141         9.5278 
 172   0.0000       0.353307         9.6140 
 173   0.0000       0.357035         9.7154 
 174   0.0000       0.359710         9.7882 
 175   0.0000       0.361390         9.8339 
 176   0.0000       0.364688         9.9237 
 177   0.0000       0.367503        10.0003 
 178   0.0000       0.373792        10.1714 
 179   0.0000       0.374541        10.1918 
 180   0.0000       0.378250        10.2927 
 181   0.0000       0.380278        10.3479 
 182   0.0000       0.383638        10.4393 
 183   0.0000       0.385996        10.5035 
 184   0.0000       0.388772        10.5790 
 185   0.0000       0.390778        10.6336 
 186   0.0000       0.396878        10.7996 
 187   0.0000       0.397808        10.8249 
 188   0.0000       0.402923        10.9641 
 189   0.0000       0.407669        11.0932 
 190   0.0000       0.411981        11.2106 
 191   0.0000       0.412681        11.2296 
 192   0.0000       0.416208        11.3256 
 193   0.0000       0.421710        11.4753 
 194   0.0000       0.425524        11.5791 
 195   0.0000       0.429213        11.6795 
 196   0.0000       0.433969        11.8089 
 197   0.0000       0.435070        11.8389 
 198   0.0000       0.441221        12.0062 
 199   0.0000       0.445813        12.1312 
 200   0.0000       0.447260        12.1706 
 201   0.0000       0.451523        12.2866 
 202   0.0000       0.456183        12.4134 
 203   0.0000       0.459642        12.5075 
 204   0.0000       0.463579        12.6146 
 205   0.0000       0.465651        12.6710 
 206   0.0000       0.466891        12.7047 
 207   0.0000       0.471554        12.8316 
 208   0.0000       0.474092        12.9007 
 209   0.0000       0.478339        13.0163 
 210   0.0000       0.481264        13.0959 
 211   0.0000       0.486084        13.2270 
 212   0.0000       0.487191        13.2571 
 213   0.0000       0.492673        13.4063 
 214   0.0000       0.495551        13.4846 
 215   0.0000       0.498343        13.5606 
 216   0.0000       0.502934        13.6855 
 217   0.0000       0.506285        13.7767 
 218   0.0000       0.508515        13.8374 
 219   0.0000       0.509939        13.8761 
 220   0.0000       0.514018        13.9871 
 221   0.0000       0.517437        14.0802 
 222   0.0000       0.520043        14.1511 
 223   0.0000       0.522927        14.2296 
 224   0.0000       0.525723        14.3056 
 225   0.0000       0.528856        14.3909 
 226   0.0000       0.530115        14.4252 
 227   0.0000       0.537040        14.6136 
 228   0.0000       0.539725        14.6867 
 229   0.0000       0.543125        14.7792 
 230   0.0000       0.547379        14.8949 
 231   0.0000       0.550130        14.9698 
 232   0.0000       0.550831        14.9889 
 233   0.0000       0.556987        15.1564 
 234   0.0000       0.559726        15.2309 
 235   0.0000       0.563767        15.3409 
 236   0.0000       0.565271        15.3818 
 237   0.0000       0.573999        15.6193 
 238   0.0000       0.575104        15.6494 
 239   0.0000       0.578743        15.7484 
 240   0.0000       0.579667        15.7735 
 241   0.0000       0.584745        15.9117 
 242   0.0000       0.587735        15.9931 
 243   0.0000       0.592955        16.1351 
 244   0.0000       0.596982        16.2447 
 245   0.0000       0.599261        16.3067 
 246   0.0000       0.601215        16.3599 
 247   0.0000       0.604188        16.4408 
 248   0.0000       0.611495        16.6396 
 249   0.0000       0.615832        16.7576 
 250   0.0000       0.618884        16.8407 
 251   0.0000       0.622509        16.9393 
 252   0.0000       0.623750        16.9731 
 253   0.0000       0.628380        17.0991 
 254   0.0000       0.634523        17.2663 
 255   0.0000       0.640483        17.4284 
 256   0.0000       0.643362        17.5068 
 257   0.0000       0.647571        17.6213 
 258   0.0000       0.654540        17.8109 
 259   0.0000       0.658910        17.9299 
 260   0.0000       0.659595        17.9485 
 261   0.0000       0.662248        18.0207 
 262   0.0000       0.664123        18.0717 
 263   0.0000       0.670638        18.2490 
 264   0.0000       0.675034        18.3686 
 265   0.0000       0.677067        18.4239 
 266   0.0000       0.681912        18.5558 
 267   0.0000       0.687476        18.7072 
 268   0.0000       0.693105        18.8604 
 269   0.0000       0.694966        18.9110 
 270   0.0000       0.703973        19.1561 
 271   0.0000       0.707322        19.2472 
 272   0.0000       0.712747        19.3948 
 273   0.0000       0.720394        19.6029 
 274   0.0000       0.721908        19.6441 
 275   0.0000       0.725227        19.7344 
 276   0.0000       0.731228        19.8977 
 277   0.0000       0.733722        19.9656 
 278   0.0000       0.735711        20.0197 
 279   0.0000       0.738136        20.0857 
 280   0.0000       0.738627        20.0991 
 281   0.0000       0.746091        20.3022 
 282   0.0000       0.756905        20.5964 
 283   0.0000       0.759420        20.6649 
 284   0.0000       0.768351        20.9079 
 285   0.0000       0.776740        21.1362 
 286   0.0000       0.781147        21.2561 
 287   0.0000       0.784296        21.3418 
 288   0.0000       0.793766        21.5995 
 289   0.0000       0.797725        21.7072 
 290   0.0000       0.804342        21.8873 
 291   0.0000       0.808366        21.9967 
 292   0.0000       0.819731        22.3060 
 293   0.0000       0.821390        22.3512 
 294   0.0000       0.832798        22.6616 
 295   0.0000       0.835494        22.7350 
 296   0.0000       0.843058        22.9408 
 297   0.0000       0.845928        23.0189 
 298   0.0000       0.847426        23.0596 
 299   0.0000       0.848528        23.0896 
 300   0.0000       0.857533        23.3347 
 301   0.0000       0.863861        23.5068 
 302   0.0000       0.871112        23.7042 
 303   0.0000       0.874926        23.8079 
 304   0.0000       0.880421        23.9575 
 305   0.0000       0.885936        24.1076 
 306   0.0000       0.890842        24.2411 
 307   0.0000       0.895150        24.3583 
 308   0.0000       0.898687        24.4545 
 309   0.0000       0.902955        24.5707 
 310   0.0000       0.904011        24.5994 
 311   0.0000       0.909089        24.7376 
 312   0.0000       0.912213        24.8226 
 313   0.0000       0.917407        24.9639 
 314   0.0000       0.920384        25.0449 
 315   0.0000       0.922797        25.1106 
 316   0.0000       0.928662        25.2702 
 317   0.0000       0.931426        25.3454 
 318   0.0000       0.937661        25.5150 
 319   0.0000       0.940262        25.5858 
 320   0.0000       0.942480        25.6462 
 321   0.0000       0.949987        25.8505 
 322   0.0000       0.951866        25.9016 
 323   0.0000       0.956109        26.0171 
 324   0.0000       0.959616        26.1125 
 325   0.0000       0.963852        26.2277 
 326   0.0000       0.967505        26.3272 
 327   0.0000       0.969054        26.3693 
 328   0.0000       0.971127        26.4257 
 329   0.0000       0.974857        26.5272 
 330   0.0000       0.981630        26.7115 
 331   0.0000       0.985970        26.8296 
 332   0.0000       0.988365        26.8948 
 333   0.0000       0.991853        26.9897 
 334   0.0000       0.992929        27.0190 
 335   0.0000       0.999235        27.1906 
 336   0.0000       1.001123        27.2419 
 337   0.0000       1.001665        27.2567 
 338   0.0000       1.007088        27.4042 
 339   0.0000       1.013592        27.5812 
 340   0.0000       1.014410        27.6035 
 341   0.0000       1.018335        27.7103 
 342   0.0000       1.024031        27.8653 
 343   0.0000       1.031263        28.0621 
 344   0.0000       1.035120        28.1670 
 345   0.0000       1.036670        28.2092 
 346   0.0000       1.037869        28.2419 
 347   0.0000       1.040603        28.3162 
 348   0.0000       1.045940        28.4615 
 349   0.0000       1.046056        28.4646 
 350   0.0000       1.052313        28.6349 
 351   0.0000       1.053405        28.6646 
 352   0.0000       1.059326        28.8257 
 353   0.0000       1.062288        28.9063 
 354   0.0000       1.064894        28.9772 
 355   0.0000       1.073952        29.2237 
 356   0.0000       1.079218        29.3670 
 357   0.0000       1.080611        29.4049 
 358   0.0000       1.084167        29.5017 
 359   0.0000       1.085237        29.5308 
 360   0.0000       1.088600        29.6223 
 361   0.0000       1.096771        29.8447 
 362   0.0000       1.099250        29.9121 
 363   0.0000       1.104731        30.0613 
 364   0.0000       1.109828        30.2000 
 365   0.0000       1.110914        30.2295 
 366   0.0000       1.117043        30.3963 
 367   0.0000       1.118131        30.4259 
 368   0.0000       1.126060        30.6416 
 369   0.0000       1.130877        30.7727 
 370   0.0000       1.133581        30.8463 
 371   0.0000       1.135106        30.8878 
 372   0.0000       1.140842        31.0439 
 373   0.0000       1.142451        31.0877 
 374   0.0000       1.148915        31.2636 
 375   0.0000       1.151397        31.3311 
 376   0.0000       1.159702        31.5571 
 377   0.0000       1.161618        31.6092 
 378   0.0000       1.168770        31.8038 
 379   0.0000       1.179905        32.1069 
 380   0.0000       1.183349        32.2006 
 381   0.0000       1.186473        32.2856 
 382   0.0000       1.190874        32.4053 
 383   0.0000       1.191388        32.4193 
 384   0.0000       1.195661        32.5356 
 385   0.0000       1.199450        32.6387 
 386   0.0000       1.202805        32.7300 
 387   0.0000       1.208899        32.8958 
 388   0.0000       1.211115        32.9561 
 389   0.0000       1.213899        33.0319 
 390   0.0000       1.220048        33.1992 
 391   0.0000       1.227490        33.4017 
 392   0.0000       1.230520        33.4842 
 393   0.0000       1.236259        33.6403 
 394   0.0000       1.244534        33.8655 
 395   0.0000       1.250053        34.0157 
 396   0.0000       1.254070        34.1250 
 397   0.0000       1.260276        34.2939 
 398   0.0000       1.264891        34.4194 
 399   0.0000       1.267402        34.4878 
 400   0.0000       1.271183        34.5906 
 401   0.0000       1.274252        34.6742 
 402   0.0000       1.282256        34.8919 
 403   0.0000       1.285208        34.9723 
 404   0.0000       1.288232        35.0546 
 405   0.0000       1.289219        35.0814 
 406   0.0000       1.290881        35.1267 
 407   0.0000       1.298802        35.3422 
 408   0.0000       1.303798        35.4781 
 409   0.0000       1.310708        35.6662 
 410   0.0000       1.312177        35.7062 
 411   0.0000       1.321763        35.9670 
 412   0.0000       1.323581        36.0165 
 413   0.0000       1.330360        36.2009 
 414   0.0000       1.337218        36.3875 
 415   0.0000       1.343052        36.5463 
 416   0.0000       1.349073        36.7101 
 417   0.0000       1.352208        36.7954 
 418   0.0000       1.358423        36.9646 
 419   0.0000       1.362405        37.0729 
 420   0.0000       1.365680        37.1620 
 421   0.0000       1.377352        37.4796 
 422   0.0000       1.384628        37.6776 
 423   0.0000       1.390685        37.8425 
 424   0.0000       1.392134        37.8819 
 425   0.0000       1.395293        37.9679 
 426   0.0000       1.401287        38.1310 
 427   0.0000       1.411323        38.4040 
 428   0.0000       1.419150        38.6170 
 429   0.0000       1.423442        38.7338 
 430   0.0000       1.426956        38.8295 
 431   0.0000       1.435048        39.0496 
 432   0.0000       1.436555        39.0907 
 433   0.0000       1.443710        39.2853 
 434   0.0000       1.446292        39.3556 
 435   0.0000       1.448809        39.4241 
 436   0.0000       1.452483        39.5241 
 437   0.0000       1.454229        39.5716 
 438   0.0000       1.458092        39.6767 
 439   0.0000       1.470144        40.0046 
 440   0.0000       1.477415        40.2025 
 441   0.0000       1.480793        40.2944 
 442   0.0000       1.482725        40.3470 
 443   0.0000       1.489386        40.5282 
 444   0.0000       1.491710        40.5915 
 445   0.0000       1.500807        40.8390 
 446   0.0000       1.508694        41.0537 
 447   0.0000       1.512422        41.1551 
 448   0.0000       1.520216        41.3672 
 449   0.0000       1.523656        41.4608 
 450   0.0000       1.526748        41.5449 
 451   0.0000       1.532705        41.7070 
 452   0.0000       1.536979        41.8233 
 453   0.0000       1.541745        41.9530 
 454   0.0000       1.550076        42.1797 
 455   0.0000       1.552736        42.2521 
 456   0.0000       1.560066        42.4516 
 457   0.0000       1.565668        42.6040 
 458   0.0000       1.569743        42.7149 
 459   0.0000       1.576550        42.9001 
 460   0.0000       1.578189        42.9447 
 461   0.0000       1.583460        43.0881 
 462   0.0000       1.586025        43.1579 
 463   0.0000       1.590143        43.2700 
 464   0.0000       1.599527        43.5253 
 465   0.0000       1.604712        43.6664 
 466   0.0000       1.611862        43.8610 
 467   0.0000       1.621752        44.1301 
 468   0.0000       1.624885        44.2154 
 469   0.0000       1.631904        44.4064 
 470   0.0000       1.633015        44.4366 
 471   0.0000       1.638461        44.5848 
 472   0.0000       1.641761        44.6746 
 473   0.0000       1.647474        44.8300 
 474   0.0000       1.651818        44.9483 
 475   0.0000       1.660880        45.1948 
 476   0.0000       1.667506        45.3752 
 477   0.0000       1.669432        45.4275 
 478   0.0000       1.674865        45.5754 
 479   0.0000       1.679076        45.6900 
 480   0.0000       1.683993        45.8238 
 481   0.0000       1.686097        45.8810 
 482   0.0000       1.689168        45.9646 
 483   0.0000       1.692646        46.0592 
 484   0.0000       1.701345        46.2959 
 485   0.0000       1.706523        46.4369 
 486   0.0000       1.715849        46.6906 
 487   0.0000       1.721953        46.8567 
 488   0.0000       1.722497        46.8715 
 489   0.0000       1.732231        47.1364 
 490   0.0000       1.735027        47.2125 
 491   0.0000       1.745164        47.4883 
 492   0.0000       1.746785        47.5324 
 493   0.0000       1.756006        47.7833 
 494   0.0000       1.765561        48.0433 
 495   0.0000       1.771000        48.1914 
 496   0.0000       1.777287        48.3624 
 497   0.0000       1.783077        48.5200 
 498   0.0000       1.786973        48.6260 
 499   0.0000       1.789965        48.7074 
 500   0.0000       1.798340        48.9353 
 501   0.0000       1.803427        49.0738 
 502   0.0000       1.805155        49.1208 
 503   0.0000       1.805898        49.1410 
 504   0.0000       1.811500        49.2934 
 505   0.0000       1.818945        49.4960 
 506   0.0000       1.823643        49.6238 
 507   0.0000       1.835739        49.9530 
 508   0.0000       1.836764        49.9809 
 509   0.0000       1.839044        50.0429 
 510   0.0000       1.849882        50.3379 
 511   0.0000       1.851713        50.3877 
 512   0.0000       1.854088        50.4523 
 513   0.0000       1.860557        50.6283 
 514   0.0000       1.863270        50.7021 
 515   0.0000       1.869289        50.8659 
 516   0.0000       1.874334        51.0032 
 517   0.0000       1.882634        51.2291 
 518   0.0000       1.887378        51.3582 
 519   0.0000       1.889510        51.4162 
 520   0.0000       1.894166        51.5429 
 521   0.0000       1.898302        51.6554 
 522   0.0000       1.902255        51.7630 
 523   0.0000       1.910452        51.9860 
 524   0.0000       1.911148        52.0050 
 525   0.0000       1.917702        52.1833 
 526   0.0000       1.919690        52.2374 
 527   0.0000       1.927542        52.4511 
 528   0.0000       1.929784        52.5121 
 529   0.0000       1.936838        52.7040 
 530   0.0000       1.939149        52.7669 
 531   0.0000       1.948394        53.0185 
 532   0.0000       1.956971        53.2519 
 533   0.0000       1.965816        53.4926 
 534   0.0000       1.969345        53.5886 
 535   0.0000       1.972720        53.6804 
 536   0.0000       1.979528        53.8657 
 537   0.0000       1.988217        54.1021 
 538   0.0000       1.989770        54.1444 
 539   0.0000       2.006967        54.6124 
 540   0.0000       2.012276        54.7568 
 541   0.0000       2.012754        54.7698 
 542   0.0000       2.020810        54.9890 
 543   0.0000       2.024416        55.0872 
 544   0.0000       2.027593        55.1736 
 545   0.0000       2.047852        55.7249 
 546   0.0000       2.050945        55.8090 
 547   0.0000       2.059893        56.0525 
 548   0.0000       2.064446        56.1764 
 549   0.0000       2.069788        56.3218 
 550   0.0000       2.071529        56.3692 
 551   0.0000       2.078580        56.5610 
 552   0.0000       2.081249        56.6337 
 553   0.0000       2.084067        56.7103 
 554   0.0000       2.096409        57.0462 
 555   0.0000       2.108079        57.3638 
 556   0.0000       2.113704        57.5168 
 557   0.0000       2.120318        57.6968 
 558   0.0000       2.128260        57.9129 
 559   0.0000       2.129968        57.9594 
 560   0.0000       2.141408        58.2707 
 561   0.0000       2.148074        58.4521 
 562   0.0000       2.153702        58.6052 
 563   0.0000       2.154978        58.6399 
 564   0.0000       2.164997        58.9126 
 565   0.0000       2.178647        59.2840 
 566   0.0000       2.181353        59.3576 
 567   0.0000       2.194857        59.7251 
 568   0.0000       2.201778        59.9134 
 569   0.0000       2.202199        59.9249 
 570   0.0000       2.209404        60.1209 
 571   0.0000       2.215483        60.2864 
 572   0.0000       2.224037        60.5191 
 573   0.0000       2.233537        60.7776 
 574   0.0000       2.236485        60.8578 
 575   0.0000       2.242310        61.0164 
 576   0.0000       2.251232        61.2591 
 577   0.0000       2.257140        61.4199 
 578   0.0000       2.269838        61.7654 
 579   0.0000       2.275276        61.9134 
 580   0.0000       2.280703        62.0611 
 581   0.0000       2.284396        62.1616 
 582   0.0000       2.296057        62.4789 
 583   0.0000       2.302482        62.6537 
 584   0.0000       2.311730        62.9054 
 585   0.0000       2.315464        63.0070 
 586   0.0000       2.322225        63.1910 
 587   0.0000       2.336088        63.5682 
 588   0.0000       2.339264        63.6546 
 589   0.0000       2.345401        63.8216 
 590   0.0000       2.353456        64.0408 
 591   0.0000       2.361104        64.2489 
 592   0.0000       2.373267        64.5799 
 593   0.0000       2.379746        64.7562 
 594   0.0000       2.387701        64.9726 
 595   0.0000       2.393497        65.1304 
 596   0.0000       2.406586        65.4865 
 597   0.0000       2.416504        65.7564 
 598   0.0000       2.420823        65.8739 
 599   0.0000       2.426389        66.0254 
 600   0.0000       2.436737        66.3070 
 601   0.0000       2.448607        66.6300 
 602   0.0000       2.459640        66.9302 
 603   0.0000       2.468447        67.1699 
 604   0.0000       2.477193        67.4079 
 605   0.0000       2.479156        67.4613 
 606   0.0000       2.496352        67.9292 
 607   0.0000       2.504934        68.1627 
 608   0.0000       2.518764        68.5391 
 609   0.0000       2.527078        68.7653 
 610   0.0000       2.538466        69.0752 
 611   0.0000       2.543733        69.2185 
 612   0.0000       2.570116        69.9364 
 613   0.0000       2.586136        70.3723 
 614   0.0000       2.599912        70.7472 
 615   0.0000       2.608733        70.9872 
 616   0.0000       2.611567        71.0644 
 617   0.0000       2.628196        71.5168 
 618   0.0000       2.632159        71.6247 
 619   0.0000       2.637774        71.7775 
 620   0.0000       2.663375        72.4741 
 621   0.0000       2.665521        72.5325 
 622   0.0000       2.666613        72.5622 
 623   0.0000       2.672659        72.7267 
 624   0.0000       2.676634        72.8349 
 625   0.0000       2.696752        73.3824 
 626   0.0000       2.700856        73.4940 
 627   0.0000       2.703868        73.5760 
 628   0.0000       2.716237        73.9126 
 629   0.0000       2.721094        74.0447 
 630   0.0000       2.727467        74.2181 
 631   0.0000       2.737370        74.4876 
 632   0.0000       2.741759        74.6071 
 633   0.0000       2.750414        74.8426 
 634   0.0000       2.766213        75.2725 
 635   0.0000       2.776093        75.5413 
 636   0.0000       2.785019        75.7842 
 637   0.0000       2.800596        76.2081 
 638   0.0000       2.804646        76.3183 
 639   0.0000       2.815564        76.6154 
 640   0.0000       2.832601        77.0790 
 641   0.0000       2.846041        77.4447 
 642   0.0000       2.867117        78.0182 
 643   0.0000       2.868510        78.0561 
 644   0.0000       2.882195        78.4285 
 645   0.0000       2.893559        78.7378 
 646   0.0000       2.905691        79.0679 
 647   0.0000       2.914253        79.3008 
 648   0.0000       2.922687        79.5304 
 649   0.0000       2.937899        79.9443 
 650   0.0000       2.948117        80.2224 
 651   0.0000       2.959158        80.5228 
 652   0.0000       2.987879        81.3043 
 653   0.0000       3.010469        81.9190 
 654   0.0000       3.016079        82.0717 
 655   0.0000       3.034223        82.5654 
 656   0.0000       3.045605        82.8751 
 657   0.0000       3.053990        83.1033 
 658   0.0000       3.074091        83.6503 
 659   0.0000       3.085568        83.9626 
 660   0.0000       3.098309        84.3093 
 661   0.0000       3.119135        84.8760 
 662   0.0000       3.130586        85.1876 
 663   0.0000       3.148740        85.6816 
 664   0.0000       3.152067        85.7721 
 665   0.0000       3.169175        86.2376 
 666   0.0000       3.181548        86.5743 
 667   0.0000       3.197165        86.9993 
 668   0.0000       3.202564        87.1462 
 669   0.0000       3.218768        87.5871 
 670   0.0000       3.225805        87.7786 
 671   0.0000       3.231261        87.9271 
 672   0.0000       3.235514        88.0428 
 673   0.0000       3.245653        88.3187 
 674   0.0000       3.254707        88.5651 
 675   0.0000       3.258107        88.6576 
 676   0.0000       3.270675        88.9996 
 677   0.0000       3.284759        89.3828 
 678   0.0000       3.290325        89.5343 
 679   0.0000       3.301109        89.8277 
 680   0.0000       3.310813        90.0918 
 681   0.0000       3.320848        90.3649 
 682   0.0000       3.329244        90.5933 
 683   0.0000       3.334820        90.7451 
 684   0.0000       3.341772        90.9342 
 685   0.0000       3.351301        91.1935 
 686   0.0000       3.356329        91.3303 
 687   0.0000       3.373029        91.7848 
 688   0.0000       3.389630        92.2365 
 689   0.0000       3.391187        92.2789 
 690   0.0000       3.402549        92.5881 
 691   0.0000       3.413116        92.8756 
 692   0.0000       3.419591        93.0518 
 693   0.0000       3.426789        93.2477 
 694   0.0000       3.442212        93.6674 
 695   0.0000       3.452370        93.9438 
 696   0.0000       3.468929        94.3944 
 697   0.0000       3.477216        94.6199 
 698   0.0000       3.479819        94.6907 
 699   0.0000       3.491467        95.0076 
 700   0.0000       3.502571        95.3098 
 701   0.0000       3.504671        95.3669 
 702   0.0000       3.509788        95.5062 
 703   0.0000       3.518644        95.7472 
 704   0.0000       3.522935        95.8639 
 705   0.0000       3.532199        96.1160 
 706   0.0000       3.540437        96.3402 
 707   0.0000       3.548172        96.5507 
 708   0.0000       3.557592        96.8070 
 709   0.0000       3.566512        97.0497 
 710   0.0000       3.578514        97.3763 
 711   0.0000       3.585213        97.5586 
 712   0.0000       3.591141        97.7199 
 713   0.0000       3.606347        98.1337 
 714   0.0000       3.615014        98.3695 
 715   0.0000       3.616147        98.4004 
 716   0.0000       3.619097        98.4806 
 717   0.0000       3.631567        98.8200 
 718   0.0000       3.645884        99.2095 
 719   0.0000       3.650937        99.3470 
 720   0.0000       3.654008        99.4306 
 721   0.0000       3.682636       100.2096 
 722   0.0000       3.686582       100.3170 
 723   0.0000       3.688744       100.3758 
 724   0.0000       3.701266       100.7166 
 725   0.0000       3.706517       100.8594 
 726   0.0000       3.715380       101.1006 
 727   0.0000       3.719762       101.2199 
 728   0.0000       3.727251       101.4237 
 729   0.0000       3.734987       101.6342 
 730   0.0000       3.740987       101.7974 
 731   0.0000       3.744948       101.9052 
 732   0.0000       3.757215       102.2390 
 733   0.0000       3.765766       102.4717 
 734   0.0000       3.770094       102.5895 
 735   0.0000       3.779388       102.8424 
 736   0.0000       3.783254       102.9476 
 737   0.0000       3.793825       103.2352 
 738   0.0000       3.799034       103.3770 
 739   0.0000       3.804354       103.5217 
 740   0.0000       3.811522       103.7168 
 741   0.0000       3.820772       103.9685 
 742   0.0000       3.829269       104.1997 
 743   0.0000       3.831668       104.2650 
 744   0.0000       3.846676       104.6734 
 745   0.0000       3.850999       104.7910 
 746   0.0000       3.855217       104.9058 
 747   0.0000       3.859318       105.0174 
 748   0.0000       3.866200       105.2047 
 749   0.0000       3.875616       105.4609 
 750   0.0000       3.880408       105.5913 
 751   0.0000       3.885934       105.7416 
 752   0.0000       3.897288       106.0506 
 753   0.0000       3.905937       106.2859 
 754   0.0000       3.913900       106.5026 
 755   0.0000       3.922586       106.7390 
 756   0.0000       3.926902       106.8564 
 757   0.0000       3.936985       107.1308 
 758   0.0000       3.950199       107.4904 
 759   0.0000       3.955921       107.6461 
 760   0.0000       3.960511       107.7710 
 761   0.0000       3.971147       108.0604 
 762   0.0000       3.978100       108.2496 
 763   0.0000       3.980219       108.3073 
 764   0.0000       3.990145       108.5774 
 765   0.0000       3.992232       108.6342 
 766   0.0000       4.006393       109.0195 
 767   0.0000       4.007789       109.0575 
 768   0.0000       4.011891       109.1691 
 769   0.0000       4.024296       109.5066 
 770   0.0000       4.033975       109.7700 
 771   0.0000       4.038695       109.8985 
 772   0.0000       4.040039       109.9351 
 773   0.0000       4.045721       110.0897 
 774   0.0000       4.053117       110.2909 
 775   0.0000       4.060764       110.4990 
 776   0.0000       4.068938       110.7214 
 777   0.0000       4.079830       111.0178 
 778   0.0000       4.085506       111.1723 
 779   0.0000       4.099321       111.5482 
 780   0.0000       4.105995       111.7298 
 781   0.0000       4.117144       112.0332 
 782   0.0000       4.121709       112.1574 
 783   0.0000       4.124239       112.2262 
 784   0.0000       4.132383       112.4479 
 785   0.0000       4.141639       112.6997 
 786   0.0000       4.146166       112.8229 
 787   0.0000       4.156458       113.1030 
 788   0.0000       4.173906       113.5778 
 789   0.0000       4.175972       113.6340 
 790   0.0000       4.184694       113.8713 
 791   0.0000       4.191952       114.0688 
 792   0.0000       4.201324       114.3238 
 793   0.0000       4.214320       114.6775 
 794   0.0000       4.218185       114.7826 
 795   0.0000       4.223062       114.9153 
 796   0.0000       4.245707       115.5315 
 797   0.0000       4.253626       115.7471 
 798   0.0000       4.261980       115.9744 
 799   0.0000       4.270384       116.2031 
 800   0.0000       4.277333       116.3922 
 801   0.0000       4.288681       116.7010 
 802   0.0000       4.296666       116.9182 
 803   0.0000       4.305885       117.1691 
 804   0.0000       4.311458       117.3207 
 805   0.0000       4.322685       117.6262 
 806   0.0000       4.324516       117.6761 
 807   0.0000       4.330258       117.8323 
 808   0.0000       4.339378       118.0805 
 809   0.0000       4.345047       118.2347 
 810   0.0000       4.360552       118.6566 
 811   0.0000       4.370087       118.9161 
 812   0.0000       4.381493       119.2265 
 813   0.0000       4.384831       119.3173 
 814   0.0000       4.400585       119.7460 
 815   0.0000       4.410826       120.0247 
 816   0.0000       4.416211       120.1712 
 817   0.0000       4.428099       120.4947 
 818   0.0000       4.438616       120.7809 
 819   0.0000       4.449292       121.0714 
 820   0.0000       4.455649       121.2444 
 821   0.0000       4.473944       121.7422 
 822   0.0000       4.480323       121.9158 
 823   0.0000       4.487305       122.1058 
 824   0.0000       4.502322       122.5144 
 825   0.0000       4.505524       122.6015 
 826   0.0000       4.517558       122.9290 
 827   0.0000       4.524835       123.1270 
 828   0.0000       4.540660       123.5576 
 829   0.0000       4.548568       123.7728 
 830   0.0000       4.552257       123.8732 
 831   0.0000       4.561458       124.1236 
 832   0.0000       4.572528       124.4248 
 833   0.0000       4.579995       124.6280 
 834   0.0000       4.588343       124.8552 
 835   0.0000       4.602348       125.2363 
 836   0.0000       4.611585       125.4876 
 837   0.0000       4.615985       125.6073 
 838   0.0000       4.630616       126.0055 
 839   0.0000       4.639225       126.2397 
 840   0.0000       4.647614       126.4680 
 841   0.0000       4.669509       127.0638 
 842   0.0000       4.683897       127.4553 
 843   0.0000       4.700638       127.9109 
 844   0.0000       4.705266       128.0368 
 845   0.0000       4.718874       128.4071 
 846   0.0000       4.722094       128.4947 
 847   0.0000       4.738151       128.9316 
 848   0.0000       4.748804       129.2215 
 849   0.0000       4.753213       129.3415 
 850   0.0000       4.762306       129.5889 
 851   0.0000       4.767031       129.7175 
 852   0.0000       4.775081       129.9366 
 853   0.0000       4.786028       130.2344 
 854   0.0000       4.805495       130.7642 
 855   0.0000       4.816027       131.0508 
 856   0.0000       4.824845       131.2907 
 857   0.0000       4.828335       131.3857 
 858   0.0000       4.860667       132.2655 
 859   0.0000       4.869006       132.4924 
 860   0.0000       4.882029       132.8468 
 861   0.0000       4.892969       133.1445 
 862   0.0000       4.896247       133.2336 
 863   0.0000       4.913069       133.6914 
 864   0.0000       4.925274       134.0235 
 865   0.0000       4.938786       134.3912 
 866   0.0000       4.952637       134.7681 
 867   0.0000       4.974642       135.3669 
 868   0.0000       4.979221       135.4915 
 869   0.0000       4.982905       135.5917 
 870   0.0000       4.989704       135.7767 
 871   0.0000       4.997056       135.9768 
 872   0.0000       5.025868       136.7608 
 873   0.0000       5.037137       137.0675 
 874   0.0000       5.041570       137.1881 
 875   0.0000       5.053895       137.5235 
 876   0.0000       5.060202       137.6951 
 877   0.0000       5.066588       137.8689 
 878   0.0000       5.082790       138.3097 
 879   0.0000       5.095390       138.6526 
 880   0.0000       5.107494       138.9820 
 881   0.0000       5.112864       139.1281 
 882   0.0000       5.119368       139.3051 
 883   0.0000       5.142548       139.9358 
 884   0.0000       5.155153       140.2788 
 885   0.0000       5.162369       140.4752 
 886   0.0000       5.170266       140.6901 
 887   0.0000       5.181816       141.0044 
 888   0.0000       5.203638       141.5982 
 889   0.0000       5.208182       141.7218 
 890   0.0000       5.222042       142.0990 
 891   0.0000       5.229941       142.3139 
 892   0.0000       5.236946       142.5045 
 893   0.0000       5.238899       142.5577 
 894   0.0000       5.256672       143.0413 
 895   0.0000       5.280725       143.6958 
 896   0.0000       5.299290       144.2010 
 897   0.0000       5.313973       144.6005 
 898   0.0000       5.332640       145.1085 
 899   0.0000       5.349866       145.5773 
 900   0.0000       5.361454       145.8926 
 901   0.0000       5.371305       146.1606 
 902   0.0000       5.377891       146.3399 
 903   0.0000       5.392594       146.7399 
 904   0.0000       5.401507       146.9825 
 905   0.0000       5.409661       147.2044 
 906   0.0000       5.417924       147.4292 
 907   0.0000       5.423742       147.5875 
 908   0.0000       5.441867       148.0807 
 909   0.0000       5.449276       148.2823 
 910   0.0000       5.475165       148.9868 
 911   0.0000       5.479110       149.0942 
 912   0.0000       5.497679       149.5995 
 913   0.0000       5.503877       149.7681 
 914   0.0000       5.519439       150.1916 
 915   0.0000       5.537168       150.6740 
 916   0.0000       5.541732       150.7982 
 917   0.0000       5.564638       151.4215 
 918   0.0000       5.575634       151.7207 
 919   0.0000       5.589152       152.0885 
 920   0.0000       5.594215       152.2263 
 921   0.0000       5.600093       152.3863 
 922   0.0000       5.609761       152.6494 
 923   0.0000       5.629251       153.1797 
 924   0.0000       5.635070       153.3380 
 925   0.0000       5.644550       153.5960 
 926   0.0000       5.658801       153.9838 
 927   0.0000       5.666005       154.1798 
 928   0.0000       5.681673       154.6062 
 929   0.0000       5.695355       154.9785 
 930   0.0000       5.698485       155.0637 
 931   0.0000       5.713065       155.4604 
 932   0.0000       5.724192       155.7632 
 933   0.0000       5.734734       156.0500 
 934   0.0000       5.753283       156.5548 
 935   0.0000       5.761116       156.7679 
 936   0.0000       5.779444       157.2667 
 937   0.0000       5.791665       157.5992 
 938   0.0000       5.809521       158.0851 
 939   0.0000       5.828416       158.5993 
 940   0.0000       5.845564       159.0659 
 941   0.0000       5.858459       159.4168 
 942   0.0000       5.880601       160.0193 
 943   0.0000       5.919062       161.0659 
 944   0.0000       5.935648       161.5172 
 945   0.0000       5.972919       162.5314 
 946   0.0000       6.040975       164.3833 
 947   0.0000       6.049326       164.6105 
 948   0.0000       6.084327       165.5629 
 949   0.0000       6.120994       166.5607 
 950   0.0000       6.134647       166.9322 
 951   0.0000       6.151319       167.3859 
 952   0.0000       6.170765       167.9151 
 953   0.0000       6.202207       168.7706 
 954   0.0000       6.206924       168.8990 
 955   0.0000       6.225842       169.4138 
 956   0.0000       6.227710       169.4646 
 957   0.0000       6.265469       170.4921 
 958   0.0000       6.275944       170.7771 
 959   0.0000       6.284639       171.0137 
 960   0.0000       6.304574       171.5562 
 961   0.0000       6.310659       171.7218 
 962   0.0000       6.329378       172.2311 
 963   0.0000       6.342725       172.5943 
 964   0.0000       6.356595       172.9718 
 965   0.0000       6.362621       173.1357 
 966   0.0000       6.372043       173.3921 
 967   0.0000       6.384839       173.7403 
 968   0.0000       6.458845       175.7541 
 969   0.0000       6.517349       177.3461 
 970   0.0000       6.554551       178.3584 
 971   0.0000       6.625988       180.3023 
 972   0.0000       6.818911       185.5520 
 973   0.0000       6.836596       186.0332 
 974   0.0000       6.866635       186.8506 
 975   0.0000       6.902255       187.8199 
 976   0.0000       6.914110       188.1425 
 977   0.0000       6.934827       188.7062 
 978   0.0000       6.955757       189.2758 
 979   0.0000       6.984197       190.0497 
 980   0.0000       7.011180       190.7839 
 981   0.0000       7.014936       190.8861 
 982   0.0000       7.029256       191.2758 
 983   0.0000       7.054686       191.9678 
 984   0.0000       7.083577       192.7539 
 985   0.0000       7.132728       194.0914 
 986   0.0000       7.257529       197.4874 
 987   0.0000       7.317561       199.1210 
 988   0.0000       7.354185       200.1175 
 989   0.0000       7.423119       201.9933 
 990   0.0000       7.526266       204.8001 
 991   0.0000       7.570304       205.9984 
 992   0.0000       7.631500       207.6637 
 993   0.0000       7.670643       208.7288 
 994   0.0000       7.756176       211.0563 
 995   0.0000       7.883999       214.5345 
 996   0.0000       7.937906       216.0014 
 997   0.0000       8.058914       219.2942 
 998   0.0000       8.264356       224.8846 
 999   0.0000       9.416003       256.2225 
 1000   0.0000       9.426702       256.5136 
 1001   0.0000       9.434049       256.7135 
 1002   0.0000       9.448349       257.1027 
 1003   0.0000       9.459828       257.4150 
 1004   0.0000       9.482898       258.0428 
 1005   0.0000       9.677263       263.3317 
 1006   0.0000      10.089521       274.5498 
 1007   0.0000      10.094236       274.6781 
 1008   0.0000      10.118304       275.3330 
 1009   0.0000      10.205459       277.7047 
 1010   0.0000      10.212414       277.8939 
 1011   0.0000      10.247883       278.8591 
 1012   0.0000      10.357490       281.8416 
 1013   0.0000      10.390050       282.7276 
 1014   0.0000      10.492117       285.5050 
 1015   0.0000      14.041746       382.0953 
 1016   0.0000      17.062159       464.2849 
 1017   0.0000      17.858400       485.9518 
 1018   0.0000      18.306007       498.1318 
 1019   0.0000      18.601279       506.1665 
 1020   0.0000      18.655798       507.6501 
 1021   0.0000      18.885403       513.8979 
 1022   0.0000      20.131612       547.8090 
 1023   0.0000      20.905866       568.8775 
 1024   0.0000      21.669752       589.6639 

                 SPIN DOWN ORBITALS
  NO   OCC          E(Eh)            E(eV) 
   0   1.0000    -261.563665     -7117.5092 
   1   1.0000    -104.785637     -2851.3621 
   2   1.0000    -104.782962     -2851.2894 
   3   1.0000    -104.781082     -2851.2382 
   4   1.0000     -32.072980      -872.7502 
   5   1.0000     -27.550921      -749.6987 
   6   1.0000     -27.550842      -749.6965 
   7   1.0000     -27.550654      -749.6914 
   8   1.0000     -20.598421      -560.5115 
   9   1.0000     -11.415194      -310.6232 
  10   1.0000     -11.295351      -307.3621 
  11   1.0000     -11.271815      -306.7217 
  12   1.0000     -11.268002      -306.6179 
  13   1.0000     -11.260588      -306.4162 
  14   1.0000     -11.256705      -306.3105 
  15   1.0000     -11.242891      -305.9346 
  16   1.0000     -11.239847      -305.8518 
  17   1.0000     -10.512201      -286.0515 
  18   1.0000     -10.509508      -285.9782 
  19   1.0000     -10.507596      -285.9262 
  20   1.0000      -7.978106      -217.0953 
  21   1.0000      -7.977400      -217.0761 
  22   1.0000      -7.977347      -217.0746 
  23   1.0000      -7.975402      -217.0217 
  24   1.0000      -7.974733      -217.0035 
  25   1.0000      -7.974635      -217.0009 
  26   1.0000      -7.973571      -216.9719 
  27   1.0000      -7.972750      -216.9496 
  28   1.0000      -7.972657      -216.9470 
  29   1.0000      -4.147881      -112.8696 
  30   1.0000      -2.669488       -72.6405 
  31   1.0000      -2.669405       -72.6382 
  32   1.0000      -2.669003       -72.6273 
  33   1.0000      -1.435980       -39.0750 
  34   1.0000      -1.144831       -31.1524 
  35   1.0000      -1.090848       -29.6835 
  36   1.0000      -1.044218       -28.4146 
  37   1.0000      -1.032447       -28.0943 
  38   1.0000      -1.029447       -28.0127 
  39   1.0000      -1.028335       -27.9824 
  40   1.0000      -1.001836       -27.2613 
  41   1.0000      -0.975199       -26.5365 
  42   1.0000      -0.906710       -24.6728 
  43   1.0000      -0.820527       -22.3277 
  44   1.0000      -0.745279       -20.2801 
  45   1.0000      -0.704155       -19.1610 
  46   1.0000      -0.689798       -18.7704 
  47   1.0000      -0.683001       -18.5854 
  48   1.0000      -0.667843       -18.1729 
  49   1.0000      -0.635272       -17.2866 
  50   1.0000      -0.621884       -16.9223 
  51   1.0000      -0.604920       -16.4607 
  52   1.0000      -0.596509       -16.2318 
  53   1.0000      -0.583517       -15.8783 
  54   1.0000      -0.573358       -15.6019 
  55   1.0000      -0.570060       -15.5121 
  56   1.0000      -0.560703       -15.2575 
  57   1.0000      -0.553206       -15.0535 
  58   1.0000      -0.541211       -14.7271 
  59   1.0000      -0.534093       -14.5334 
  60   1.0000      -0.516442       -14.0531 
  61   1.0000      -0.508940       -13.8490 
  62   1.0000      -0.494331       -13.4514 
  63   1.0000      -0.478082       -13.0093 
  64   1.0000      -0.476081       -12.9548 
  65   1.0000      -0.448203       -12.1962 
  66   1.0000      -0.444413       -12.0931 
  67   1.0000      -0.442216       -12.0333 
  68   1.0000      -0.426893       -11.6163 
  69   1.0000      -0.422603       -11.4996 
  70   1.0000      -0.407274       -11.0825 
  71   1.0000      -0.368114       -10.0169 
  72   0.0000       0.011301         0.3075 
  73   0.0000       0.021922         0.5965 
  74   0.0000       0.022892         0.6229 
  75   0.0000       0.029150         0.7932 
  76   0.0000       0.037811         1.0289 
  77   0.0000       0.039754         1.0818 
  78   0.0000       0.041521         1.1298 
  79   0.0000       0.043655         1.1879 
  80   0.0000       0.044478         1.2103 
  81   0.0000       0.048857         1.3295 
  82   0.0000       0.057123         1.5544 
  83   0.0000       0.058325         1.5871 
  84   0.0000       0.060957         1.6587 
  85   0.0000       0.063456         1.7267 
  86   0.0000       0.065305         1.7770 
  87   0.0000       0.071816         1.9542 
  88   0.0000       0.076078         2.0702 
  89   0.0000       0.084160         2.2901 
  90   0.0000       0.088324         2.4034 
  91   0.0000       0.091055         2.4777 
  92   0.0000       0.091497         2.4898 
  93   0.0000       0.098732         2.6866 
  94   0.0000       0.101577         2.7640 
  95   0.0000       0.104394         2.8407 
  96   0.0000       0.105268         2.8645 
  97   0.0000       0.110505         3.0070 
  98   0.0000       0.112138         3.0514 
  99   0.0000       0.113856         3.0982 
 100   0.0000       0.115603         3.1457 
 101   0.0000       0.117657         3.2016 
 102   0.0000       0.118569         3.2264 
 103   0.0000       0.122963         3.3460 
 104   0.0000       0.123782         3.3683 
 105   0.0000       0.124900         3.3987 
 106   0.0000       0.126349         3.4381 
 107   0.0000       0.131656         3.5825 
 108   0.0000       0.133067         3.6209 
 109   0.0000       0.136262         3.7079 
 110   0.0000       0.138999         3.7823 
 111   0.0000       0.141515         3.8508 
 112   0.0000       0.145875         3.9695 
 113   0.0000       0.150249         4.0885 
 114   0.0000       0.151532         4.1234 
 115   0.0000       0.156671         4.2632 
 116   0.0000       0.158119         4.3026 
 117   0.0000       0.159740         4.3467 
 118   0.0000       0.162609         4.4248 
 119   0.0000       0.165492         4.5033 
 120   0.0000       0.167716         4.5638 
 121   0.0000       0.169664         4.6168 
 122   0.0000       0.174239         4.7413 
 123   0.0000       0.178384         4.8541 
 124   0.0000       0.180499         4.9116 
 125   0.0000       0.182864         4.9760 
 126   0.0000       0.184811         5.0290 
 127   0.0000       0.188131         5.1193 
 128   0.0000       0.190435         5.1820 
 129   0.0000       0.199410         5.4262 
 130   0.0000       0.202907         5.5214 
 131   0.0000       0.204721         5.5707 
 132   0.0000       0.209487         5.7004 
 133   0.0000       0.210470         5.7272 
 134   0.0000       0.214934         5.8487 
 135   0.0000       0.219576         5.9750 
 136   0.0000       0.223805         6.0900 
 137   0.0000       0.225989         6.1495 
 138   0.0000       0.228653         6.2220 
 139   0.0000       0.231835         6.3086 
 140   0.0000       0.234343         6.3768 
 141   0.0000       0.236966         6.4482 
 142   0.0000       0.240959         6.5568 
 143   0.0000       0.244315         6.6482 
 144   0.0000       0.249487         6.7889 
 145   0.0000       0.254247         6.9184 
 146   0.0000       0.258291         7.0284 
 147   0.0000       0.261272         7.1096 
 148   0.0000       0.264186         7.1889 
 149   0.0000       0.268382         7.3031 
 150   0.0000       0.272804         7.4234 
 151   0.0000       0.279317         7.6006 
 152   0.0000       0.280455         7.6316 
 153   0.0000       0.288433         7.8486 
 154   0.0000       0.290177         7.8961 
 155   0.0000       0.294627         8.0172 
 156   0.0000       0.296373         8.0647 
 157   0.0000       0.299522         8.1504 
 158   0.0000       0.303238         8.2515 
 159   0.0000       0.306467         8.3394 
 160   0.0000       0.307961         8.3800 
 161   0.0000       0.313927         8.5424 
 162   0.0000       0.320407         8.7187 
 163   0.0000       0.325238         8.8502 
 164   0.0000       0.328157         8.9296 
 165   0.0000       0.333018         9.0619 
 166   0.0000       0.334070         9.0905 
 167   0.0000       0.338545         9.2123 
 168   0.0000       0.340297         9.2600 
 169   0.0000       0.343780         9.3547 
 170   0.0000       0.346067         9.4170 
 171   0.0000       0.352877         9.6023 
 172   0.0000       0.354423         9.6444 
 173   0.0000       0.360076         9.7982 
 174   0.0000       0.363643         9.8952 
 175   0.0000       0.364735         9.9250 
 176   0.0000       0.367981        10.0133 
 177   0.0000       0.370967        10.0945 
 178   0.0000       0.374524        10.1913 
 179   0.0000       0.377648        10.2763 
 180   0.0000       0.380578        10.3561 
 181   0.0000       0.387410        10.5420 
 182   0.0000       0.389689        10.6040 
 183   0.0000       0.392545        10.6817 
 184   0.0000       0.394439        10.7332 
 185   0.0000       0.398352        10.8397 
 186   0.0000       0.400100        10.8873 
 187   0.0000       0.402661        10.9570 
 188   0.0000       0.404559        11.0086 
 189   0.0000       0.411018        11.1844 
 190   0.0000       0.413037        11.2393 
 191   0.0000       0.418410        11.3855 
 192   0.0000       0.420032        11.4296 
 193   0.0000       0.424080        11.5398 
 194   0.0000       0.430580        11.7167 
 195   0.0000       0.432843        11.7783 
 196   0.0000       0.436957        11.8902 
 197   0.0000       0.440049        11.9743 
 198   0.0000       0.444409        12.0930 
 199   0.0000       0.447672        12.1818 
 200   0.0000       0.452323        12.3083 
 201   0.0000       0.455857        12.4045 
 202   0.0000       0.460130        12.5208 
 203   0.0000       0.462437        12.5836 
 204   0.0000       0.466284        12.6882 
 205   0.0000       0.469951        12.7880 
 206   0.0000       0.473454        12.8833 
 207   0.0000       0.477145        12.9838 
 208   0.0000       0.481738        13.1088 
 209   0.0000       0.482944        13.1416 
 210   0.0000       0.483840        13.1660 
 211   0.0000       0.488351        13.2887 
 212   0.0000       0.493519        13.4293 
 213   0.0000       0.494192        13.4476 
 214   0.0000       0.500432        13.6174 
 215   0.0000       0.501892        13.6572 
 216   0.0000       0.507846        13.8192 
 217   0.0000       0.510285        13.8856 
 218   0.0000       0.511168        13.9096 
 219   0.0000       0.513538        13.9741 
 220   0.0000       0.516257        14.0481 
 221   0.0000       0.519466        14.1354 
 222   0.0000       0.523425        14.2431 
 223   0.0000       0.526794        14.3348 
 224   0.0000       0.528889        14.3918 
 225   0.0000       0.531222        14.4553 
 226   0.0000       0.537094        14.6151 
 227   0.0000       0.540393        14.7048 
 228   0.0000       0.543314        14.7843 
 229   0.0000       0.547559        14.8998 
 230   0.0000       0.550021        14.9668 
 231   0.0000       0.552048        15.0220 
 232   0.0000       0.553505        15.0616 
 233   0.0000       0.557936        15.1822 
 234   0.0000       0.562242        15.2994 
 235   0.0000       0.566147        15.4056 
 236   0.0000       0.567494        15.4423 
 237   0.0000       0.575088        15.6490 
 238   0.0000       0.577319        15.7097 
 239   0.0000       0.580410        15.7938 
 240   0.0000       0.582018        15.8375 
 241   0.0000       0.587280        15.9807 
 242   0.0000       0.589471        16.0403 
 243   0.0000       0.594177        16.1684 
 244   0.0000       0.599877        16.3235 
 245   0.0000       0.601090        16.3565 
 246   0.0000       0.602910        16.4060 
 247   0.0000       0.605471        16.4757 
 248   0.0000       0.612269        16.6607 
 249   0.0000       0.618129        16.8201 
 250   0.0000       0.620590        16.8871 
 251   0.0000       0.625757        17.0277 
 252   0.0000       0.626453        17.0467 
 253   0.0000       0.629967        17.1423 
 254   0.0000       0.636996        17.3336 
 255   0.0000       0.642040        17.4708 
 256   0.0000       0.645288        17.5592 
 257   0.0000       0.650534        17.7019 
 258   0.0000       0.656708        17.8699 
 259   0.0000       0.661426        17.9983 
 260   0.0000       0.663467        18.0538 
 261   0.0000       0.665250        18.1024 
 262   0.0000       0.666787        18.1442 
 263   0.0000       0.673912        18.3381 
 264   0.0000       0.678448        18.4615 
 265   0.0000       0.681683        18.5495 
 266   0.0000       0.683919        18.6104 
 267   0.0000       0.690536        18.7904 
 268   0.0000       0.697015        18.9668 
 269   0.0000       0.697979        18.9930 
 270   0.0000       0.706492        19.2246 
 271   0.0000       0.711163        19.3517 
 272   0.0000       0.715943        19.4818 
 273   0.0000       0.722788        19.6681 
 274   0.0000       0.727029        19.7835 
 275   0.0000       0.729083        19.8393 
 276   0.0000       0.733899        19.9704 
 277   0.0000       0.736907        20.0523 
 278   0.0000       0.740097        20.1391 
 279   0.0000       0.741616        20.1804 
 280   0.0000       0.745644        20.2900 
 281   0.0000       0.747995        20.3540 
 282   0.0000       0.759767        20.6743 
 283   0.0000       0.762044        20.7363 
[...]
  | sigma^2 in % of trace(Dij) retained ...   8.96e+00
  | sigma^2 in % of trace(Dip) retained ...   2.13e+01
  | sigma^2 in % of trace(Dpq) retained ...   1.38e-01
  | Av. % of trace(Di) retained         ...  99.998540075900
  | Av. % of trace(Dp) retained         ...  99.999999292842
  | sigma^2 in % of trace(Di) retained  ...   6.93e-07
  | sigma^2 in % of trace(Dp) retained  ...   2.63e-13
 Distributions of % trace(Dij) recovered:
  |       >= 99.9  ...   105 ( 21.6 % of all IJ-pairs)
  |   [80.0, 90.0) ...    26 (  5.4 % of all IJ-pairs)
  |   [90.0, 99.0) ...   260 ( 53.6 % of all IJ-pairs)
  |   [99.0, 99.9) ...    94 ( 19.4 % of all IJ-pairs)
 Distributions of % trace(Dip) recovered:
  |   [80.0, 90.0) ...    17 ( 14.5 % of all IP-pairs)
  |   [90.0, 99.0) ...    57 ( 48.7 % of all IP-pairs)
  |   [99.0, 99.9) ...    43 ( 36.8 % of all IP-pairs)
 Distributions of % trace(Dpq) recovered:
  |       >= 99.9  ...     5 ( 33.3 % of all PQ-pairs)
  |   [99.0, 99.9) ...    10 ( 66.7 % of all PQ-pairs)
 Distributions of % trace(Di) recovered :
  |       >= 99.9  ...    43 (100.0 % of all I-pairs )
 Distributions of % trace(Dp) recovered :
  |       >= 99.9  ...     5 (100.0 % of all P-pairs )

                       ===========================
                       1069 OF 1655 PAIRS ARE KEPT
                       ===========================

 Initial PAO correlation energy (all pairs)    ...  -2.6901554059 Eh
 Energy constituents in PAO basis (Eh):
  | Vijab(+0) ...  -2.2626110475
  | Viab (-1) ...  -0.1743152308
  | Vab  (-2) ...  -0.0573442965
  | Va   (-1) ...  -0.0000450266
  | Vija (+1) ...  -0.0716668782
  | Vij  (+2) ...  -0.0155306748
  | Via  (+0) ...  -0.1084796816
  | Vi   (+1) ...  -0.0001625699
 Initial PNO correlation energy                ...  -2.6561922900 Eh
 Energy constituents in PNO basis (Eh):
  | Vijab(+0) ...  -2.2442113724 (err=  0.0183996751)
  | Viab (-1) ...  -0.1603308851 (err=  0.0139843457)
  | Vab  (-2) ...  -0.0568888004 (err=  0.0004554961)
  | Va   (-1) ...  -0.0000260015 (err=  0.0000190251)
  | Vija (+1) ...  -0.0707119412 (err=  0.0009549370)
  | Vij  (+2) ...  -0.0154773874 (err=  0.0000532874)
  | Via  (+0) ...  -0.1083836929 (err=  0.0000959887)
  | Vi   (+1) ...  -0.0001622090 (err=  0.0000003609)
 Sum of total truncation errors ...   0.0339631159 Eh
  | Pair screening ...   0.0112514208 Eh
  | PNO truncation ...   0.0227116951 Eh

 UMP2 correlation energy (PAO) ...  -2.6851427688
  | alpha-alpha ...  -0.3856799687 (NP_aa=  887)
  | alpha-beta  ...  -1.9933451075 (NP_ab= 1630)
  | beta -beta  ...  -0.3061176926 (NP_bb=  710)
 UMP2 correlation energy (PNO) ...  -2.6508028917
  | alpha-alpha ...  -0.3737594070 (err=  0.0119205616, NP_aa=  569)
  | alpha-beta  ...  -1.9749297319 (err=  0.0184153756, NP_ab= 1044)
  | beta -beta  ...  -0.3021137528 (err=  0.0040039398, NP_bb=  442)
 Sum of total UMP2 truncation errors ...   0.0343398771 Eh
  | Pair screening ...   0.0112668910 Eh
  | PNO truncation ...   0.0230729861 Eh
 Timing for NEV-PNO construction (sec.)
  | Intermediate construction  ..           43.935
  | Amplitude construction     ..           60.263
  | Total time                 ..          104.199
 Making pair pair interaction lists ...      ok
 Total size for 2-ext PNO integrals ...     10.8 MB
Checking the number of SOMO/SOMO doubles PNOs ... 
 #Truncate: (72, 72)[168] -> [86] .. 
 #Truncate: (73, 73)[173] -> [86] .. 
 #Truncate: (74, 74)[170] -> [86] .. 
 #Truncate: (75, 75)[170] -> [86] .. 
 #Truncate: (76, 76)[169] -> [86] .. 

--------------------------------
LOCAL RI TRANSFORMATION (VABPAO)
--------------------------------

Number of PAOs:    1030
Basis functions:   1025 (343 shells)
Aux. functions:    2424 (644 shells)

Processing maps (0.0 sec)
Average map sizes:
   Aux shells -> PAOs           1030.0
   PAOs       -> AO shells       343.0

Calculating integrals (196.2 sec, 37370.165 MB)
Finished
-----------------------------
LOCAL RI TRANSFORMATION (IJV)
-----------------------------

Orbital window:      29 to 76
Basis functions:   1025 (343 shells)
Aux. functions:    2424 (644 shells)

Processing maps (0.0 sec)
Average map sizes:
   Aux shells -> MOs(i)           45.5
   Aux shells -> MOs(j)           48.0
   MOs        -> AO shells       338.5

Calculating integrals (23.0 sec, 40.620 MB)
Sorting integrals (0.4 sec, 40.592 MB)
Total time for the integral transformation: 23.4 sec


-------------------------------------
Pair Pair Term precalculation with     
RI-(ij|mn) and (im|jn) transformation  
ON THE FLY                             
-------------------------------------

   IBatch   1 (of   2)              ... done ( 1294.494 sec)
   IBatch   2 (of   2)              ... done (  896.494 sec)
Total EXT                           ...        2190.989 sec

---------------------
RI-PNO TRANSFORMATION
---------------------

Total Number of PNOs                   ... 33693
Total Number of IJ-PNOs                ... 29551
Total Number of IP-PNOs                ...  3184
Total Number of PQ-PNOs                ...   958
Total Number of IJ-pairs               ...   927
Total Number of PI-pairs               ...   117
Total Number of PQ-pairs               ...    25
Average number of PNOs per pair        ...    31
Maximal number of PNOs per pair        ...    86
>> Statistics for ij-pairs..
   #pairs with  1 -  5 PNOs   :    0
   #pairs with  6 - 10 PNOs   :    0
   #pairs with 11 - 15 PNOs   :   66
   #pairs with 16 - 20 PNOs   :  202
   #pairs with 21 - 25 PNOs   :  156
   #pairs with 26 - 30 PNOs   :  150
   #pairs with 31 - 35 PNOs   :   54
   #pairs with 36 - 40 PNOs   :   60
   #pairs with 41 - 45 PNOs   :   42
   #pairs with 46 - 50 PNOs   :   28
   #pairs with 51 - 55 PNOs   :   36
   #pairs with 56 - 60 PNOs   :   53
   #pairs with 61 - 65 PNOs   :   75
   #pairs with 66 - 70 PNOs   :    2
   #pairs with 71 - 75 PNOs   :    1
   #pairs with 81 - 85 PNOs   :    2
>> Statistics for ip-pairs..
   #pairs with  1 -  5 PNOs   :    0
   #pairs with  6 - 10 PNOs   :    3
   #pairs with 11 - 15 PNOs   :   14
   #pairs with 16 - 20 PNOs   :    4
   #pairs with 21 - 25 PNOs   :   28
   #pairs with 26 - 30 PNOs   :    9
   #pairs with 31 - 35 PNOs   :   45
   #pairs with 36 - 40 PNOs   :   14
   #pairs with 41 - 45 PNOs   :    0
   #pairs with 46 - 50 PNOs   :    0
>> Statistics for pq-pairs..
   #pairs with  1 -  5 PNOs   :    0
   #pairs with  6 - 10 PNOs   :    0
   #pairs with 11 - 15 PNOs   :    0
   #pairs with 16 - 20 PNOs   :    0
   #pairs with 21 - 25 PNOs   :   10
   #pairs with 26 - 30 PNOs   :   10
   #pairs with 31 - 35 PNOs   :    0
   #pairs with 36 - 40 PNOs   :    0
   #pairs with 41 - 45 PNOs   :    0
   #pairs with 46 - 50 PNOs   :    0
   #pairs with 86 - 90 PNOs   :    5

Generation of (ij|ab)[P] integrals            ... on
Generation of (ia|bc)[P],(ja|bc)[P] integrals ... on
Storage of 3 and 4 external integrals         ... on
Generation of ALL (ka|bc)[P] integrals        ... on
Keep RI integrals in memory                   ... off

Ibatch:  1 (of  1)
Starting 2-4 index PNO integral generation ... done

Timings:
Total PNO integral transformation time     ...       1904.611 sec
Size of the 3-external file                ...       285 MB
Size of the 4-external file                ...      1948 MB
Size of the IKJL file                      ...        17 MB
Size of the all 3-external file            ...      6861 MB
Size of the 1-external file                ...        21 MB

Size of the PAO/PNO coefficient matrices   ...     214.5 MB

Making pair/pair overlap matrices          ... done (  299.520 sec)
Size of the pair overlap file              ...    2362.0 MB
Total # unrestricted pairs ...       2055
  # of alpha-alpha pairs   ...        569
  # of alpha-beta pairs    ...       1044
  # of beta-beta pairs     ...        442
Constructing the guess amplitudes          ... done (    0.572 sec)

-------------------------
FINAL STARTUP INFORMATION
-------------------------

E(0)                                       ...  -3028.447155120
E(SL-UMP2 in NEV-PNO space)                ...     -2.686098684
Initial E(tot)                             ...  -3031.133253804
<T|T>                                      ...      0.535230729
Number of unrestricted pairs included      ... 2055
Total number of pairs                      ... 4095
----------------------------------------------------------
                     OPEN-SHELL COUPLED CLUSTER ITERATIONS
----------------------------------------------------------

Number of PNO amplitudes to be optimized        ...          2087651
Number of canonical amplitudes for strong pairs ...       1856072973
Untruncated number of canonical amplitudes      ...       3698645738

Iter       E(tot)           E(Corr)          Delta-E          Residual     Time
  0  -3031.140436452     -2.657985540      0.028113144      0.021233339 1791.28
                           *** Turning on DIIS ***
  1  -3031.253556200     -2.771105287     -0.113119747      0.009692405 1822.75
  2  -3031.318344821     -2.835893909     -0.064788622      0.008478907 1821.50
  3  -3031.339995387     -2.857544474     -0.021650566      0.003237594 1802.68
  4  -3031.347452795     -2.865001882     -0.007457408      0.002658259 1822.55
  5  -3031.351513886     -2.869062973     -0.004061091      0.001553380 1811.35
  6  -3031.353004586     -2.870553674     -0.001490700      0.000793135 1811.32
  7  -3031.353645427     -2.871194515     -0.000640841      0.000503920 1816.83
  8  -3031.353785299     -2.871334387     -0.000139872      0.000232426 1827.85
  9  -3031.353844736     -2.871393824     -0.000059437      0.000138854 1830.82
 10  -3031.353843384     -2.871392471      0.000001353      0.000102889 1834.55
 11  -3031.353856132     -2.871405220     -0.000012749      0.000057766 1826.38
 12  -3031.353861263     -2.871410350     -0.000005131      0.000029985 1822.59
 13  -3031.353863623     -2.871412711     -0.000002361      0.000016225 1825.38
 14  -3031.353865281     -2.871414368     -0.000001657      0.000006308 1826.92
               --- The CCSD iterations have converged ---

E(0)                                       ...  -3028.447155120
E(CORR)(strong-pairs)                      ...     -2.871414368
E(CORR)(weak-pairs)                        ...     -0.035295792
E(CORR)(corrected)                         ...     -2.906710161
E(TOT)                                     ...  -3031.353865281
Singles norm <S|S>**1/2                    ...      0.194460594 ( 0.065117757, 0.129342836)  
T1 diagnostic                              ...      0.020385009                              
<S**2>(linearized)                         ...      8.7508287 (ideal value:      8.7500000)

----------------------
LARGEST PNO AMPLITUDES
----------------------
  51b-> 76b  -1b-> -1b       0.054905
  48b-> 72b  -1b-> -1b       0.054058
  50b-> 76b  -1b-> -1b       0.053311
  71a-> 77a  71b-> 77b       0.051712
  71a-> 78a  71b-> 78b       0.051359
  48b-> 75b  -1b-> -1b       0.046809
  62a-> 77a  62b-> 77b       0.046224
  66a-> 77a  66b-> 77b       0.045937
  48b-> 74b  -1b-> -1b       0.045898
  43a-> 77a  43b-> 77b       0.044218
  55a-> 78a  55b-> 78b       0.043842
  70a-> 77a  70b-> 77b       0.043766
  38b-> 73b  -1b-> -1b       0.043478
  54a-> 77a  54b-> 77b       0.043442
  36b-> 72b  -1b-> -1b       0.043273
  60a-> 77a  60b-> 77b       0.042977

Total # unrestricted pairs ...       1172
  # of alpha-alpha pairs   ...        318
  # of alpha-beta pairs    ...        586
  # of beta-beta pairs     ...        268

-------------------------------------------
DLPNO BASED TRIPLES CORRECTION
-------------------------------------------

Singles multiplier          ...  1.000000
Fragment selection                          .... not used
TCutTNO                     ... 1.000e-09
TCutMP2Pairs                ... 1.000e-05
TCutDOStrong                ... 2.000e-02
TCutMKNStrong               ... 1.000e-02
TCutDOWeak                  ... 4.000e-02
TCutMKNWeak                 ... 1.000e-01
NTCutTNO                    ... 1

Number of Triples that are to be computed         ...     31918

 . . . . . . . . .
10% done  
20% done  
30% done  
40% done  
50% done  
60% done  
70% done  
80% done  
90% done  
          Batch   1   done (  13128.871 sec)

Triples-Correction TCutTNO=   1.000e-09 (NWeakPairs = 0  1  2  3)  -0.117487173628   -0.001800215932    0.000000000000    0.000000000000
Triples-Correction  -0.119287389560

Triples timings:
Total time                      ... 13716.893 sec

Triples List generation         ...     0.000 sec
TNO generation                  ...   587.711 sec
Pair density generation         ...     0.095 sec
Look up tables                  ...     0.105 sec
Generating 3-index integrals    ...  7933.109 sec
Make 4-ind.int. from 3-ind.int  ...     3.114 sec
Projecting amplitudes (D + S)   ...  4957.866 sec
Sorting integrals for spin cases...    48.459 sec
Calculate W0/W1                 ...   150.029 sec
Energy contr. (sum over a,b,c)  ...    36.174 sec

Everything after 3-index        ...  5310.454 sec

Energy contribution AAA         ...    22.857 sec
Energy contribution AAB         ...   104.263 sec
Energy contribution ABB         ...    94.952 sec
Energy contribution BBB         ...    12.626 sec
prep                ...     2.909 sec
makeTTNO            ...  4906.455 sec
copyij              ...     0.120 sec
copyil              ...     3.729 sec
transposeij         ...     0.073 sec
newMatInDoubleProj  ...    49.093 sec
BlasInDoubleProj    ...  2643.742 sec
ProjSingles         ...    42.287 sec
ProjDoubles         ...  4915.579 sec
overall Doubles for projection      ... 2825907
used Doubles for projection         ... 2825907


Number of Triples   (0, 1, 2, 3 weak pairs; overall):  15428   10983       0       0  ( 26411)
Number of Atoms     (0, 1, 2, 3 weak pairs; overall):   18.7    14.4     0.0     0.0  (    29)
Number of PAOs      (0, 1, 2, 3 weak pairs; overall):  734.4   581.8     0.0     0.0  (  1025)
Number of AuxFcns   (0, 1, 2, 3 weak pairs; overall):  857.8   576.6     0.0     0.0  (  2424)
Number of TNOs (0, 1, 2, 3 weak pairs         ):   79.4    57.0     0.0     0.0
Aver. Number of NTNO, Atoms, PAOs, AuxFcns / Triples:  26411    70.1    16.9   671.0   740.9

Triples Correction (T)                     ...     -0.119287390
    alpha-alpha-alpha ... -0.003850474 (  3.2%)
    alpha-alpha-beta  ... -0.056007814 ( 47.0%)
    alpha-beta -beta  ... -0.055328642 ( 46.4%)
    beta -beta -beta  ... -0.004100460 (  3.4%)
Final correlation energy                   ...     -3.025997550
E(CCSD)                                    ...  -3031.353865281
E(CCSD(T))                                 ...  -3031.473152670

----------------------------
STATISTICS FOR PAIR-ENERGIES
----------------------------
Minimum, maximum and average ratios of UMP and CCSD pair-energies ... 0.21, 1.44, 1.02


------------------------------------------------------------------------------- 
                                     TIMINGS                                   
------------------------------------------------------------------------------- 


Total execution time                   ...    48763.891 sec

Localization of occupied MO's          ...        9.997 sec (  0.0%)
Fock Matrix Formation                  ...     1315.083 sec (  2.7%)
Differential overlap integrals         ...        1.536 sec (  0.0%)
Organizing maps                        ...        1.649 sec (  0.0%)
RI 3-index integral generations        ...      284.009 sec (  0.6%)
RI-PNO integral transformation         ...     4414.182 sec (  9.1%)
Initial Guess                          ...     1761.330 sec (  3.6%)
DIIS Solver                            ...       19.321 sec (  0.0%)
State Vector Update                    ...        0.708 sec (  0.0%)
Sigma-vector construction              ...    27294.764 sec ( 56.0%)
  <0|H|D>                              ...        0.029 sec (  0.0% of sigma)
  <D|H|D>(0-ext)                       ...     4980.322 sec ( 18.2% of sigma)
  <D|H|D>(2-ext Fock)                  ...        1.667 sec (  0.0% of sigma)
  <D|H|D>(2-ext)                       ...     4065.944 sec ( 14.9% of sigma)
  <D|H|D>(4-ext)                       ...      144.843 sec (  0.5% of sigma)
  <D|H|D>(4-ext-corr)                  ...      904.826 sec (  3.3% of sigma)
  CCSD doubles correction              ...      484.066 sec (  1.8% of sigma)
  <S|H|S>                              ...      681.523 sec (  2.5% of sigma)
  <S|H|D>(1-ext)                       ...      263.926 sec (  1.0% of sigma)
  <D|H|S>(1-ext)                       ...        0.626 sec (  0.0% of sigma)
  <S|H|D>(3-ext)                       ...       20.418 sec (  0.1% of sigma)
  CCSD singles correction              ...        0.005 sec (  0.0% of sigma)
  Fock-dressing                        ...     7799.805 sec ( 28.6% of sigma)
  Singles amplitudes                   ...      111.272 sec (  0.4% of sigma)
  (ik|jl)-dressing                     ...     6204.561 sec ( 22.7% of sigma)
  (ij|ab),(ia|jb)-dressing             ...     1413.311 sec (  5.2% of sigma)
  Pair energies                        ...        0.135 sec (  0.0% of sigma)
Total Time for computing (T)           ...    14001.421 sec ( 28.7% of ALL)


-------------------------   --------------------
FINAL SINGLE POINT ENERGY     -3031.473152670083
-------------------------   --------------------


                            ***************************************
                            *     ORCA property calculations      *
                            ***************************************

                                    ---------------------
                                    Active property flags
                                    ---------------------
   (+) Dipole Moment


------------------------------------------------------------------------------
                       ORCA ELECTRIC PROPERTIES CALCULATION
------------------------------------------------------------------------------

Dipole Moment Calculation                       ... on
Quadrupole Moment Calculation                   ... off
Polarizability Calculation                      ... off
GBWName                                         ... simple-grid-230-295-b3lyp_d3bj-631gd-gas-singlepoint-DLPNO_CCSD_T1-NormalPNO-augtz-gas.gbw
Electron density file                           ... simple-grid-230-295-b3lyp_d3bj-631gd-gas-singlepoint-DLPNO_CCSD_T1-NormalPNO-augtz-gas.scfp.tmp
The origin for moment calculation is the CENTER OF MASS  = ( 0.328043,  0.046804 -0.008155)

-------------
DIPOLE MOMENT
-------------
                                X             Y             Z
Electronic contribution:     44.82699       5.76064      -1.40014
Nuclear contribution   :    -48.87836      -6.97385       1.21516
                        -----------------------------------------
Total Dipole Moment    :     -4.05137      -1.21321      -0.18499
                        -----------------------------------------
Magnitude (a.u.)       :      4.23316
Magnitude (Debye)      :     10.75985



--------------------
Rotational spectrum 
--------------------
 
Rotational constants in cm-1:     0.019497     0.010097     0.009641 
Rotational constants in MHz :   584.512439   302.692068   289.023222 

 Dipole components along the rotational axes: 
x,y,z [a.u.] :    -4.052944     1.197645    -0.242845 
x,y,z [Debye]:   -10.301765     3.044173    -0.617263 

 

Timings for individual modules:

Sum of individual times         ...    64746.198 sec (=1079.103 min)
GTO integral calculation        ...       12.036 sec (=   0.201 min)   0.0 %
SCF iterations                  ...    15953.503 sec (= 265.892 min)  24.6 %
MDCI module                     ...    48780.658 sec (= 813.011 min)  75.3 %
                             ****ORCA TERMINATED NORMALLY****
TOTAL RUN TIME: 0 days 17 hours 59 minutes 9 seconds 660 msec
