
                                 *****************
                                 * O   R   C   A *
                                 *****************

           --- An Ab Initio, DFT and Semiempirical electronic structure package ---

                  #######################################################
                  #                        -***-                        #
                  #          Department of theory and spectroscopy      #
                  #               Directorship: Frank Neese             #
                  #        Max Planck Institute fuer Kohlenforschung    #
                  #                Kaiser Wilhelm Platz 1               #
                  #                 D-45470 Muelheim/Ruhr               #
                  #                      Germany                        #
                  #                                                     #
                  #                  All rights reserved                #
                  #                        -***-                        #
                  #######################################################


                         Program Version 4.1.2  - RELEASE  -


 With contributions from (in alphabetic order):
   Daniel Aravena         : Magnetic Properties
   Michael Atanasov       : Ab Initio Ligand Field Theory
   Alexander A. Auer      : GIAO ZORA
   Ute Becker             : Parallelization
   Giovanni Bistoni       : ED, Open-shell LED
   Martin Brehm           : Molecular dynamics
   Dmytro Bykov           : SCF Hessian
   Vijay G. Chilkuri      : MRCI spin determinant printing
   Dipayan Datta          : RHF DLPNO-CCSD density
   Achintya Kumar Dutta   : EOM-CC, STEOM-CC
   Dmitry Ganyushin       : Spin-Orbit,Spin-Spin,Magnetic field MRCI
   Miquel Garcia          : C-PCM Hessian
   Yang Guo               : DLPNO-NEVPT2, CIM, IAO-localization
   Andreas Hansen         : Spin unrestricted coupled pair/coupled cluster methods
   Benjamin Helmich-Paris : CASSCF linear response (MC-RPA)
   Lee Huntington         : MR-EOM, pCC
   Robert Izsak           : Overlap fitted RIJCOSX, COSX-SCS-MP3, EOM
   Christian Kollmar      : KDIIS, OOCD, Brueckner-CCSD(T), CCSD density
   Simone Kossmann        : Meta GGA functionals, TD-DFT gradient, OOMP2, MP2 Hessian
   Martin Krupicka        : AUTO-CI
   Lucas Lang             : DCDCAS
   Dagmar Lenk            : GEPOL surface, SMD
   Dimitrios Liakos       : Extrapolation schemes; parallel MDCI
   Dimitrios Manganas     : ROCIS; embedding schemes
   Dimitrios Pantazis     : SARC Basis sets
   Taras Petrenko         : DFT Hessian,TD-DFT gradient, ASA, ECA, R-Raman, ABS, FL, XAS/XES, NRVS
   Peter Pinski           : DLPNO-MP2, DLPNO-MP2 Gradient
   Christoph Reimann      : Effective Core Potentials
   Marius Retegan         : Local ZFS, SOC
   Christoph Riplinger    : Optimizer, TS searches, QM/MM, DLPNO-CCSD(T), (RO)-DLPNO pert. Triples
   Tobias Risthaus        : Range-separated hybrids, TD-DFT gradient, RPA, STAB
   Michael Roemelt        : Restricted open shell CIS
   Masaaki Saitow         : Open-shell DLPNO
   Barbara Sandhoefer     : DKH picture change effects
   Avijit Sen             : IP-ROCIS
   Kantharuban Sivalingam : CASSCF convergence, NEVPT2, FIC-MRCI
   Bernardo de Souza      : ESD, SOC TD-DFT
   Georgi Stoychev        : AutoAux, RI-MP2 NMR
   Willem Van den Heuvel  : Paramagnetic NMR
   Boris Wezisla          : Elementary symmetry handling
   Frank Wennmohs         : Technical directorship


 We gratefully acknowledge several colleagues who have allowed us to
 interface, adapt or use parts of their codes:
   Stefan Grimme, W. Hujo, H. Kruse,             : VdW corrections, initial TS optimization,
                  C. Bannwarth                     DFT functionals, gCP, sTDA/sTD-DF
   Ed Valeev                                     : LibInt (2-el integral package), F12 methods
   Garnet Chan, S. Sharma, J. Yang, R. Olivares  : DMRG
   Ulf Ekstrom                                   : XCFun DFT Library
   Mihaly Kallay                                 : mrcc  (arbitrary order and MRCC methods)
   Andreas Klamt, Michael Diedenhofen            : otool_cosmo (COSMO solvation model)
   Jiri Pittner, Ondrej Demel                    : Mk-CCSD
   Frank Weinhold                                : gennbo (NPA and NBO analysis)
   Christopher J. Cramer and Donald G. Truhlar   : smd solvation model
   Lars Goerigk                                  : TD-DFT with DH, B97 family of functionals
   V. Asgeirsson, H. Jonsson                     : NEB implementation
   FAccTs GmbH                                   : IRC, NEB, NEB-TS, Multilevel


 Your calculation uses the libint2 library for the computation of 2-el integrals
 For citations please refer to: http://libint.valeyev.net

 This ORCA versions uses:
   CBLAS   interface :  Fast vector & matrix operations
   LAPACKE interface :  Fast linear algebra routines
   SCALAPACK package :  Parallel linear algebra routines


----- Orbital basis set information -----
Your calculation utilizes the basis: aug-cc-pVTZ 
    H, B-Ne : Obtained from the ccRepo (grant-hill.group.shef.ac.uk/ccrepo) Feb. 2017
              R. A. Kendall, T. H. Dunning, Jr., R. J. Harrison, J. Chem. Phys. 96, 6796 (1992)
         He : Obtained from the ccRepo (grant-hill.group.shef.ac.uk/ccrepo) Feb. 2017
              D. E. Woon, T. H. Dunning, Jr., J. Chem. Phys. 100, 2975 (1994)
  Li-Be, Na : Obtained from the ccRepo (grant-hill.group.shef.ac.uk/ccrepo) Feb. 2017
              B. P. Prascher, D. E. Woon, K. A. Peterson, T. H. Dunning, Jr., A. K. Wilson, Theor. Chem. Acc. 128, 69 (2011)
         Mg : Obtained from the Peterson Research Group Website (tyr0.chem.wsu.edu/~kipeters) Feb. 2017
              B. P. Prascher, D. E. Woon, K. A. Peterson, T. H. Dunning, Jr., A. K. Wilson, Theor. Chem. Acc. 128, 69 (2011)
      Al-Ar : Obtained from the ccRepo (grant-hill.group.shef.ac.uk/ccrepo) Feb. 2017
              D. E. Woon, T. H. Dunning, Jr., J. Chem. Phys. 98, 1358 (1993)
      Sc-Zn : Obtained from the ccRepo (grant-hill.group.shef.ac.uk/ccrepo) Feb. 2017
              N. B. Balabanov, K. A. Peterson, J. Chem. Phys. 123, 064107 (2005)
              N. B. Balabanov, K. A. Peterson, J. Chem. Phys. 125, 074110 (2006)
      Ga-Kr : Obtained from the ccRepo (grant-hill.group.shef.ac.uk/ccrepo) Feb. 2017
              A. K. Wilson, D. E. Woon, K. A. Peterson, T. H. Dunning, Jr., J. Chem. Phys. 110, 7667 (1999)
     Ag, Au : Obtained from the Peterson Research Group Website (tyr0.chem.wsu.edu/~kipeters) Feb. 2017
              K. A. Peterson, C. Puzzarini, Theor. Chem. Acc. 114, 283 (2005)

----- AuxJ basis set information -----
Your calculation utilizes the AutoAux generation procedure.
  G. L. Stoychev, A. A. Auer, F. Neese, J. Chem. Theory Comput. 13, 554 (2017)

----- AuxC basis set information -----
Your calculation utilizes the auxiliary basis: aug-cc-pVTZ/C 
  H-He, B-F, Al-Ar, Ga-Kr : Obtained from the EMSL Basis Set Exchange (bse.pnl.gov) Feb. 2017
                            F. Weigend, A. Kohn, C. Hattig, J. Chem. Phys. 116, 3175 (2002)
                   Be, Mg : Obtained from the TURBOMOLE 7.0 basis set library
                            C. Haettig, Phys. Chem. Chem. Phys. 7, 59 (2005)
                       Ne : Obtained from the EMSL Basis Set Exchange (bse.pnl.gov) Feb. 2017
                            C. Haettig, Phys. Chem. Chem. Phys. 7, 59 (2005)
                            F. Weigend, A. Kohn, C. Hattig, J. Chem. Phys. 116, 3175 (2002)
                    Sc-Zn : Obtained from the EMSL Basis Set Exchange (bse.pnl.gov) Feb. 2017
                            J. G. Hill, J. A. Platts, J. Chem. Phys. 128, 044104 (2008)

----- AuxJK basis set information -----
Your calculation utilizes the AutoAux generation procedure.
  G. L. Stoychev, A. A. Auer, F. Neese, J. Chem. Theory Comput. 13, 554 (2017)

================================================================================
                                        WARNINGS
                       Please study these warnings very carefully!
================================================================================


WARNING: your system is open-shell and RHF/RKS was chosen
  ===> : WILL SWITCH to UHF/UKS


WARNING: MDCI localization with Augmented Hessian Foster-Boys
  ===> : Switching off randomization!

WARNING: Post HF methods need fully converged wavefunctions
  ===> : Setting SCFConvForced true
         You can overwrite this default with %scf ConvForced false 


INFO   : the flag for use of LIBINT has been found!

================================================================================
                                       INPUT FILE
================================================================================
NAME = simple-grid-270-285-b3lyp_d3bj-631gd-gas-singlepoint-DLPNO_CCSD_T1-NormalPNO-augtz-gas.inp
|  1> ! aug-cc-pVTZ aug-cc-pVTZ/C DLPNO-CCSD(T1) TightSCF NormalPNO UNO MiniPrint AutoAux
|  2> %pal nproc 10 end
|  3> %maxcore 20000
|  4> %mdci
|  5>      density none
|  6> end
|  7> 
|  8> * xyz 0 6
|  9>  O      0.20516700      0.37100500     -0.86671000
| 10>  C      0.98888300      1.33047900     -0.67101500
| 11>  C      3.07289500      0.10791700      0.53407600
| 12>  C      2.63712900     -0.94822000     -0.18282500
| 13>  C      3.09701200     -1.18356900     -1.59574600
| 14> Fe     -1.47794500     -0.15996600      0.01468800
| 15> Cl     -2.06756900     -1.99128500     -0.99827200
| 16>  C      1.70780200     -2.00100400      0.34544100
| 17> Cl     -2.71280800      1.59990100     -0.39457900
| 18> Cl     -1.08492900     -0.40499600      2.16050100
| 19>  H      3.79743200      0.76872500      0.05716800
| 20>  H      2.22838800     -2.96730000      0.38702600
| 21>  H      1.31608800     -1.78394500      1.33868300
| 22>  H      0.85975400     -2.14154200     -0.33661300
| 23>  H      3.60048200     -2.15641900     -1.66824900
| 24>  H      2.24094400     -1.22911100     -2.28217900
| 25>  H      3.79575800     -0.41734200     -1.94344000
| 26>  C      2.86165800      0.33997100      2.00685300
| 27>  H      3.66852000     -0.13425000      2.58218800
| 28>  H      2.88868900      1.40606300      2.25321800
| 29>  H      1.91570600     -0.06667000      2.37298000
| 30>  C      0.82436000      2.22995000      0.51338900
| 31>  H      1.71170900      2.83732100      0.69468200
| 32>  H     -0.01454000      2.89940600      0.27032300
| 33>  H      0.54538500      1.67469900      1.40914400
| 34>  C      1.80971800      1.81585100     -1.82712300
| 35>  H      1.22015600      2.61407400     -2.30211600
| 36>  H      2.75823600      2.24940900     -1.50743200
| 37>  H      1.96597900      1.02816600     -2.56194300
| 38> *
| 39> 
| 40> 
| 41>                          ****END OF INPUT****
================================================================================

                       ****************************
                       * Single Point Calculation *
                       ****************************

---------------------------------
CARTESIAN COORDINATES (ANGSTROEM)
---------------------------------
  O      0.205167    0.371005   -0.866710
  C      0.988883    1.330479   -0.671015
  C      3.072895    0.107917    0.534076
  C      2.637129   -0.948220   -0.182825
  C      3.097012   -1.183569   -1.595746
  Fe    -1.477945   -0.159966    0.014688
  Cl    -2.067569   -1.991285   -0.998272
  C      1.707802   -2.001004    0.345441
  Cl    -2.712808    1.599901   -0.394579
  Cl    -1.084929   -0.404996    2.160501
  H      3.797432    0.768725    0.057168
  H      2.228388   -2.967300    0.387026
  H      1.316088   -1.783945    1.338683
  H      0.859754   -2.141542   -0.336613
  H      3.600482   -2.156419   -1.668249
  H      2.240944   -1.229111   -2.282179
  H      3.795758   -0.417342   -1.943440
  C      2.861658    0.339971    2.006853
  H      3.668520   -0.134250    2.582188
  H      2.888689    1.406063    2.253218
  H      1.915706   -0.066670    2.372980
  C      0.824360    2.229950    0.513389
  H      1.711709    2.837321    0.694682
  H     -0.014540    2.899406    0.270323
  H      0.545385    1.674699    1.409144
  C      1.809718    1.815851   -1.827123
  H      1.220156    2.614074   -2.302116
  H      2.758236    2.249409   -1.507432
  H      1.965979    1.028166   -2.561943

----------------------------
CARTESIAN COORDINATES (A.U.)
----------------------------
  NO LB      ZA    FRAG     MASS         X           Y           Z
   0 O     8.0000    0    15.999    0.387709    0.701098   -1.637845
   1 C     6.0000    0    12.011    1.868718    2.514241   -1.268035
   2 C     6.0000    0    12.011    5.806930    0.203934    1.009257
   3 C     6.0000    0    12.011    4.983452   -1.791876   -0.345489
   4 C     6.0000    0    12.011    5.852505   -2.236621   -3.015523
   5 Fe   26.0000    0    55.850   -2.792911   -0.302292    0.027756
   6 Cl   17.0000    0    35.453   -3.907139   -3.762983   -1.886461
   7 C     6.0000    0    12.011    3.227278   -3.781350    0.652789
   8 Cl   17.0000    0    35.453   -5.126464    3.023375   -0.745646
   9 Cl   17.0000    0    35.453   -2.050219   -0.765332    4.082755
  10 H     1.0000    0     1.008    7.176106    1.452680    0.108032
  11 H     1.0000    0     1.008    4.211043   -5.607384    0.731373
  12 H     1.0000    0     1.008    2.487046   -3.371167    2.529744
  13 H     1.0000    0     1.008    1.624700   -4.046928   -0.636106
  14 H     1.0000    0     1.008    6.803925   -4.075041   -3.152534
  15 H     1.0000    0     1.008    4.234770   -2.322683   -4.312693
  16 H     1.0000    0     1.008    7.172943   -0.788662   -3.672569
  17 C     6.0000    0    12.011    5.407750    0.642452    3.792403
  18 H     1.0000    0     1.008    6.932498   -0.253696    4.879628
  19 H     1.0000    0     1.008    5.458831    2.657074    4.257965
  20 H     1.0000    0     1.008    3.620160   -0.125988    4.484282
  21 C     6.0000    0    12.011    1.557815    4.213995    0.970165
  22 H     1.0000    0     1.008    3.234661    5.361760    1.312759
  23 H     1.0000    0     1.008   -0.027477    5.479083    0.510836
  24 H     1.0000    0     1.008    1.030628    3.164722    2.662896
  25 C     6.0000    0    12.011    3.419871    3.431461   -3.452762
  26 H     1.0000    0     1.008    2.305761    4.939884   -4.350369
  27 H     1.0000    0     1.008    5.212311    4.250767   -2.848634
  28 H     1.0000    0     1.008    3.715162    1.942952   -4.841371



           ************************************************************
           *        Program running with 10 parallel MPI-processes    *
           *              working on a common directory               *
           ************************************************************


           ************************************************************
           *        Program running with 10 parallel MPI-processes    *
           *              working on a common directory               *
           ************************************************************

Diagonalization of the overlap matrix:
Smallest eigenvalue                        ... 8.842e-07
Time for diagonalization                   ...    0.338 sec
Threshold for overlap eigenvalues          ... 1.000e-08
Number of eigenvalues below threshold      ... 0
Time for construction of square roots      ...    0.275 sec
Total time needed                          ...    0.618 sec

-------------------
DFT GRID GENERATION
-------------------

General Integration Accuracy     IntAcc      ...  4.340
Radial Grid Type                 RadialGrid  ... Gauss-Chebyshev
Angular Grid (max. acc.)         AngularGrid ... Lebedev-110
Angular grid pruning method      GridPruning ... 3 (G Style)
Weight generation scheme         WeightScheme... Becke
Basis function cutoff            BFCut       ...    1.0000e-11
Integration weight cutoff        WCut        ...    1.0000e-14
Grids for H and He will be reduced by one unit

# of grid points (after initial pruning)     ...  36112 (   0.0 sec)
# of grid points (after weights+screening)   ...  32441 (   0.1 sec)
nearest neighbour list constructed           ...    0.0 sec
Grid point re-assignment to atoms done       ...    0.0 sec
Grid point division into batches done        ...    0.0 sec
Reduced shell lists constructed in    0.3 sec

Total number of grid points                  ...    32441
Total number of batches                      ...      522
Average number of points per batch           ...       62
Average number of grid points per atom       ...     1119
Average number of shells per batch           ...   286.59 (83.55%)
Average number of basis functions per batch  ...   849.67 (82.89%)
Average number of large shells per batch     ...   232.33 (81.07%)
Average number of large basis fcns per batch ...   690.70 (81.29%)
Maximum spatial batch extension              ...   4.37,  4.40,  4.51 au
Average spatial batch extension              ...   0.19,  0.19,  0.19 au

Time for grid setup =    0.365 sec

Loading Hartree-Fock densities                     ... done
Calculating cut-offs                               ... done
Setting up the integral package                    ... done
Initializing the effective Hamiltonian             ... done
Starting the Coulomb interaction                   ... done (   1.1 sec)
Reading the grid                                   ... done
Mapping shells                                     ... done
Starting the XC term evaluation                    ... done (   0.8 sec)
Transforming the Hamiltonian                       ... done (   0.2 sec)
Diagonalizing the Hamiltonian                      ... done (   0.4 sec)
Back transforming the eigenvectors                 ... done (   0.1 sec)
Now organizing SCF variables                       ... done
--------------
SCF ITERATIONS
--------------
ITER       Energy         Delta-E        Max-DP      RMS-DP      [F,P]     Damp
               ***  Starting incremental Fock matrix formation  ***
  0  -3027.5975429129   0.000000000000 0.15731083  0.00087504  0.2429616 0.7000
  1  -3027.8512658523  -0.253722939423 0.11921328  0.00069064  0.1538918 0.7000
                               ***Turning on DIIS***
  2  -3028.0210182675  -0.169752415180 0.08553862  0.00051218  0.1094540 0.7000
  3  -3029.6069504029  -1.585932135457 0.24087443  0.00130821  0.0817035 0.0000
  4  -3028.3148507651   1.292099637780 0.04149452  0.00021516  0.0195474 0.0000
  5  -3028.4377887335  -0.122937968348 0.03937879  0.00016962  0.0109178 0.0000
  6  -3028.4853212418  -0.047532508355 0.01955683  0.00006929  0.0052752 0.0000
  7  -3028.4988095291  -0.013488287246 0.00861269  0.00003203  0.0031553 0.0000
  8  -3028.4877829212   0.011026607868 0.00640789  0.00001837  0.0015735 0.0000
  9  -3028.4838057777   0.003977143565 0.00227714  0.00001060  0.0006904 0.0000
 10  -3028.4714213851   0.012384392558 0.00093525  0.00000327  0.0004141 0.0000
 11  -3028.4770711366  -0.005649751474 0.00027568  0.00000169  0.0000855 0.0000
 12  -3028.4750429706   0.002028165988 0.00021155  0.00000126  0.0000227 0.0000
 13  -3028.4749949674   0.000048003180 0.00038970  0.00000162  0.0000090 0.0000
 14  -3028.4750072969  -0.000012329489 0.00044954  0.00000176  0.0000059 0.0000
 15  -3028.4749651696   0.000042127332 0.00031939  0.00000143  0.0000037 0.0000
 16  -3028.4749675501  -0.000002380583 0.00044422  0.00000190  0.0000031 0.0000
 17  -3028.4749831655  -0.000015615396 0.00047124  0.00000151  0.0000021 0.0000
 18  -3028.4749663353   0.000016830246 0.00055679  0.00000287  0.0000015 0.0000
                            ***DIIS convergence achieved***

               *****************************************************
               *                     SUCCESS                       *
               *           SCF CONVERGED AFTER  19 CYCLES          *
               *****************************************************

Total Energy       :        -3028.47497188 Eh          -82408.99358 eV
  Last Energy change         ...   -5.5410e-06  Tolerance :   1.0000e-08
  Last MAX-Density change    ...    4.5484e-04  Tolerance :   1.0000e-07
             **** THE GBW FILE WAS UPDATED (simple-grid-270-285-b3lyp_d3bj-631gd-gas-singlepoint-DLPNO_CCSD_T1-NormalPNO-augtz-gas.gbw) ****
             **** DENSITY FILE WAS UPDATED (simple-grid-270-285-b3lyp_d3bj-631gd-gas-singlepoint-DLPNO_CCSD_T1-NormalPNO-augtz-gas.scfp.tmp) ****
             **** ENERGY FILE WAS UPDATED (simple-grid-270-285-b3lyp_d3bj-631gd-gas-singlepoint-DLPNO_CCSD_T1-NormalPNO-augtz-gas.en.tmp) ****
----------------------
UHF SPIN CONTAMINATION
----------------------

Expectation value of <S**2>     :     8.765005
Ideal value S*(S+1) for S=2.5   :     8.750000
Deviation                       :     0.015005

----------------
ORBITAL ENERGIES
----------------
                 SPIN UP ORBITALS
  NO   OCC          E(Eh)            E(eV) 
   0   1.0000    -261.576611     -7117.8615 
   1   1.0000    -104.794440     -2851.6017 
   2   1.0000    -104.791239     -2851.5146 
   3   1.0000    -104.789269     -2851.4610 
   4   1.0000     -32.244304      -877.4121 
   5   1.0000     -27.720799      -754.3213 
   6   1.0000     -27.719638      -754.2897 
   7   1.0000     -27.719443      -754.2844 
   8   1.0000     -20.621812      -561.1480 
   9   1.0000     -11.421923      -310.8063 
  10   1.0000     -11.278176      -306.8948 
  11   1.0000     -11.272543      -306.7415 
  12   1.0000     -11.265319      -306.5449 
  13   1.0000     -11.242912      -305.9352 
  14   1.0000     -11.242082      -305.9126 
  15   1.0000     -11.236262      -305.7542 
  16   1.0000     -11.228449      -305.5416 
  17   1.0000     -10.521161      -286.2954 
  18   1.0000     -10.517933      -286.2075 
  19   1.0000     -10.515913      -286.1526 
  20   1.0000      -7.987990      -217.3643 
  21   1.0000      -7.987242      -217.3439 
  22   1.0000      -7.987189      -217.3425 
  23   1.0000      -7.984815      -217.2779 
  24   1.0000      -7.984028      -217.2565 
  25   1.0000      -7.983974      -217.2550 
  26   1.0000      -7.982699      -217.2203 
  27   1.0000      -7.982043      -217.2024 
  28   1.0000      -7.981997      -217.2012 
  29   1.0000      -4.599136      -125.1489 
  30   1.0000      -3.212282       -87.4106 
  31   1.0000      -3.210521       -87.3627 
  32   1.0000      -3.210379       -87.3589 
  33   1.0000      -1.465873       -39.8884 
  34   1.0000      -1.124864       -30.6091 
  35   1.0000      -1.101600       -29.9761 
  36   1.0000      -1.067627       -29.0516 
  37   1.0000      -1.061821       -28.8936 
  38   1.0000      -1.058943       -28.8153 
  39   1.0000      -1.021577       -27.7985 
  40   1.0000      -1.009366       -27.4662 
  41   1.0000      -0.957423       -26.0528 
  42   1.0000      -0.943334       -25.6694 
  43   1.0000      -0.928024       -25.2528 
  44   1.0000      -0.927901       -25.2495 
  45   1.0000      -0.917164       -24.9573 
  46   1.0000      -0.916519       -24.9397 
  47   1.0000      -0.895212       -24.3600 
  48   1.0000      -0.814819       -22.1724 
  49   1.0000      -0.728172       -19.8146 
  50   1.0000      -0.713338       -19.4109 
  51   1.0000      -0.703339       -19.1388 
  52   1.0000      -0.684880       -18.6365 
  53   1.0000      -0.653955       -17.7950 
  54   1.0000      -0.621524       -16.9125 
  55   1.0000      -0.620131       -16.8746 
  56   1.0000      -0.604422       -16.4472 
  57   1.0000      -0.599663       -16.3177 
  58   1.0000      -0.586112       -15.9489 
  59   1.0000      -0.579195       -15.7607 
  60   1.0000      -0.560903       -15.2630 
  61   1.0000      -0.550549       -14.9812 
  62   1.0000      -0.547223       -14.8907 
  63   1.0000      -0.539425       -14.6785 
  64   1.0000      -0.536899       -14.6098 
  65   1.0000      -0.525194       -14.2913 
  66   1.0000      -0.504317       -13.7232 
  67   1.0000      -0.491861       -13.3842 
  68   1.0000      -0.477373       -12.9900 
  69   1.0000      -0.477033       -12.9807 
  70   1.0000      -0.447409       -12.1746 
  71   1.0000      -0.441184       -12.0052 
  72   1.0000      -0.439343       -11.9551 
  73   1.0000      -0.430729       -11.7207 
  74   1.0000      -0.429763       -11.6944 
  75   1.0000      -0.428481       -11.6595 
  76   1.0000      -0.358590        -9.7577 
  77   0.0000       0.012681         0.3451 
  78   0.0000       0.023705         0.6450 
  79   0.0000       0.024398         0.6639 
  80   0.0000       0.030697         0.8353 
  81   0.0000       0.039369         1.0713 
  82   0.0000       0.041351         1.1252 
  83   0.0000       0.042816         1.1651 
  84   0.0000       0.043098         1.1728 
  85   0.0000       0.044367         1.2073 
  86   0.0000       0.056547         1.5387 
  87   0.0000       0.057428         1.5627 
  88   0.0000       0.061507         1.6737 
  89   0.0000       0.063880         1.7383 
  90   0.0000       0.064706         1.7607 
  91   0.0000       0.068778         1.8715 
  92   0.0000       0.073990         2.0134 
  93   0.0000       0.077503         2.1090 
  94   0.0000       0.082425         2.2429 
  95   0.0000       0.090427         2.4607 
  96   0.0000       0.092155         2.5077 
  97   0.0000       0.094309         2.5663 
  98   0.0000       0.096962         2.6385 
  99   0.0000       0.102379         2.7859 
 100   0.0000       0.104806         2.8519 
 101   0.0000       0.107919         2.9366 
 102   0.0000       0.117468         3.1965 
 103   0.0000       0.120548         3.2803 
 104   0.0000       0.123376         3.3572 
 105   0.0000       0.124003         3.3743 
 106   0.0000       0.125373         3.4116 
 107   0.0000       0.127131         3.4594 
 108   0.0000       0.130712         3.5568 
 109   0.0000       0.133022         3.6197 
 110   0.0000       0.135315         3.6821 
 111   0.0000       0.138157         3.7594 
 112   0.0000       0.141949         3.8626 
 113   0.0000       0.145508         3.9595 
 114   0.0000       0.148610         4.0439 
 115   0.0000       0.151129         4.1124 
 116   0.0000       0.156050         4.2463 
 117   0.0000       0.161807         4.4030 
 118   0.0000       0.162680         4.4267 
 119   0.0000       0.164534         4.4772 
 120   0.0000       0.168723         4.5912 
 121   0.0000       0.169774         4.6198 
 122   0.0000       0.174369         4.7448 
 123   0.0000       0.180498         4.9116 
 124   0.0000       0.183033         4.9806 
 125   0.0000       0.184878         5.0308 
 126   0.0000       0.186883         5.0854 
 127   0.0000       0.190935         5.1956 
 128   0.0000       0.193802         5.2736 
 129   0.0000       0.196372         5.3436 
 130   0.0000       0.197836         5.3834 
 131   0.0000       0.200652         5.4600 
 132   0.0000       0.203051         5.5253 
 133   0.0000       0.206791         5.6271 
 134   0.0000       0.211087         5.7440 
 135   0.0000       0.215328         5.8594 
 136   0.0000       0.217235         5.9113 
 137   0.0000       0.224453         6.1077 
 138   0.0000       0.225945         6.1483 
 139   0.0000       0.231744         6.3061 
 140   0.0000       0.233713         6.3596 
 141   0.0000       0.234912         6.3923 
 142   0.0000       0.238281         6.4840 
 143   0.0000       0.241663         6.5760 
 144   0.0000       0.243002         6.6124 
 145   0.0000       0.245642         6.6843 
 146   0.0000       0.252424         6.8688 
 147   0.0000       0.254017         6.9122 
 148   0.0000       0.257088         6.9957 
 149   0.0000       0.259589         7.0638 
 150   0.0000       0.260946         7.1007 
 151   0.0000       0.266945         7.2639 
 152   0.0000       0.274241         7.4625 
 153   0.0000       0.277690         7.5563 
 154   0.0000       0.280367         7.6292 
 155   0.0000       0.286381         7.7928 
 156   0.0000       0.290655         7.9091 
 157   0.0000       0.291911         7.9433 
 158   0.0000       0.296186         8.0596 
 159   0.0000       0.305795         8.3211 
 160   0.0000       0.308424         8.3927 
 161   0.0000       0.309706         8.4275 
 162   0.0000       0.316882         8.6228 
 163   0.0000       0.318697         8.6722 
 164   0.0000       0.323875         8.8131 
 165   0.0000       0.329927         8.9778 
 166   0.0000       0.331883         9.0310 
 167   0.0000       0.335526         9.1301 
 168   0.0000       0.338366         9.2074 
 169   0.0000       0.341921         9.3042 
 170   0.0000       0.345305         9.3962 
 171   0.0000       0.353225         9.6118 
 172   0.0000       0.354553         9.6479 
 173   0.0000       0.358524         9.7559 
 174   0.0000       0.358927         9.7669 
 175   0.0000       0.365238         9.9386 
 176   0.0000       0.367030         9.9874 
 177   0.0000       0.372976        10.1492 
 178   0.0000       0.375750        10.2247 
 179   0.0000       0.376398        10.2423 
 180   0.0000       0.378592        10.3020 
 181   0.0000       0.380320        10.3490 
 182   0.0000       0.382310        10.4032 
 183   0.0000       0.383539        10.4366 
 184   0.0000       0.390950        10.6383 
 185   0.0000       0.394259        10.7283 
 186   0.0000       0.396418        10.7871 
 187   0.0000       0.399541        10.8721 
 188   0.0000       0.402989        10.9659 
 189   0.0000       0.404257        11.0004 
 190   0.0000       0.407284        11.0828 
 191   0.0000       0.411841        11.2068 
 192   0.0000       0.414757        11.2861 
 193   0.0000       0.420459        11.4413 
 194   0.0000       0.423400        11.5213 
 195   0.0000       0.433192        11.7877 
 196   0.0000       0.435645        11.8545 
 197   0.0000       0.438281        11.9262 
 198   0.0000       0.440641        11.9904 
 199   0.0000       0.443935        12.0801 
 200   0.0000       0.449503        12.2316 
 201   0.0000       0.451461        12.2849 
 202   0.0000       0.455550        12.3962 
 203   0.0000       0.456799        12.4301 
 204   0.0000       0.460573        12.5328 
 205   0.0000       0.463829        12.6214 
 206   0.0000       0.465356        12.6630 
 207   0.0000       0.472433        12.8556 
 208   0.0000       0.477645        12.9974 
 209   0.0000       0.479151        13.0384 
 210   0.0000       0.484958        13.1964 
 211   0.0000       0.487032        13.2528 
 212   0.0000       0.493362        13.4251 
 213   0.0000       0.494467        13.4551 
 214   0.0000       0.498440        13.5632 
 215   0.0000       0.500167        13.6102 
 216   0.0000       0.504208        13.7202 
 217   0.0000       0.508392        13.8340 
 218   0.0000       0.509388        13.8612 
 219   0.0000       0.513649        13.9771 
 220   0.0000       0.514630        14.0038 
 221   0.0000       0.519955        14.1487 
 222   0.0000       0.522581        14.2202 
 223   0.0000       0.523830        14.2542 
 224   0.0000       0.526273        14.3206 
 225   0.0000       0.529980        14.4215 
 226   0.0000       0.533976        14.5302 
 227   0.0000       0.534559        14.5461 
 228   0.0000       0.540376        14.7044 
 229   0.0000       0.543352        14.7854 
 230   0.0000       0.543806        14.7977 
 231   0.0000       0.548744        14.9321 
 232   0.0000       0.554815        15.0973 
 233   0.0000       0.558511        15.1979 
 234   0.0000       0.560672        15.2567 
 235   0.0000       0.565264        15.3816 
 236   0.0000       0.571225        15.5438 
 237   0.0000       0.573198        15.5975 
 238   0.0000       0.574651        15.6370 
 239   0.0000       0.580406        15.7936 
 240   0.0000       0.583194        15.8695 
 241   0.0000       0.586025        15.9466 
 242   0.0000       0.589202        16.0330 
 243   0.0000       0.591528        16.0963 
 244   0.0000       0.597660        16.2631 
 245   0.0000       0.602400        16.3921 
 246   0.0000       0.605299        16.4710 
 247   0.0000       0.611869        16.6498 
 248   0.0000       0.612766        16.6742 
 249   0.0000       0.614382        16.7182 
 250   0.0000       0.617381        16.7998 
 251   0.0000       0.624908        17.0046 
 252   0.0000       0.630595        17.1594 
 253   0.0000       0.631848        17.1935 
 254   0.0000       0.636155        17.3106 
 255   0.0000       0.639366        17.3980 
 256   0.0000       0.642467        17.4824 
 257   0.0000       0.648617        17.6498 
 258   0.0000       0.650965        17.7136 
 259   0.0000       0.652870        17.7655 
 260   0.0000       0.658929        17.9304 
 261   0.0000       0.662050        18.0153 
 262   0.0000       0.665877        18.1194 
 263   0.0000       0.671728        18.2787 
 264   0.0000       0.674760        18.3611 
 265   0.0000       0.675647        18.3853 
 266   0.0000       0.682456        18.5706 
 267   0.0000       0.687591        18.7103 
 268   0.0000       0.691698        18.8221 
 269   0.0000       0.695637        18.9292 
 270   0.0000       0.701239        19.0817 
 271   0.0000       0.703531        19.1441 
 272   0.0000       0.709000        19.2929 
 273   0.0000       0.711893        19.3716 
 274   0.0000       0.714490        19.4423 
 275   0.0000       0.721344        19.6288 
 276   0.0000       0.726447        19.7676 
 277   0.0000       0.732008        19.9190 
 278   0.0000       0.733245        19.9526 
 279   0.0000       0.737665        20.0729 
 280   0.0000       0.745003        20.2726 
 281   0.0000       0.747652        20.3446 
 282   0.0000       0.756227        20.5780 
 283   0.0000       0.760602        20.6970 
 284   0.0000       0.763827        20.7848 
 285   0.0000       0.776694        21.1349 
 286   0.0000       0.777351        21.1528 
 287   0.0000       0.783827        21.3290 
 288   0.0000       0.793710        21.5979 
 289   0.0000       0.800501        21.7827 
 290   0.0000       0.810031        22.0421 
 291   0.0000       0.813480        22.1359 
 292   0.0000       0.819278        22.2937 
 293   0.0000       0.822429        22.3794 
 294   0.0000       0.830701        22.6045 
 295   0.0000       0.834466        22.7070 
 296   0.0000       0.840801        22.8794 
 297   0.0000       0.844209        22.9721 
 298   0.0000       0.851376        23.1671 
 299   0.0000       0.856046        23.2942 
 300   0.0000       0.857972        23.3466 
 301   0.0000       0.861385        23.4395 
 302   0.0000       0.864330        23.5196 
 303   0.0000       0.875307        23.8183 
 304   0.0000       0.879420        23.9302 
 305   0.0000       0.882023        24.0011 
 306   0.0000       0.885515        24.0961 
 307   0.0000       0.891126        24.2488 
 308   0.0000       0.894670        24.3452 
 309   0.0000       0.904953        24.6250 
 310   0.0000       0.909569        24.7506 
 311   0.0000       0.911803        24.8114 
 312   0.0000       0.913123        24.8473 
 313   0.0000       0.915168        24.9030 
 314   0.0000       0.920290        25.0424 
 315   0.0000       0.926746        25.2181 
 316   0.0000       0.928352        25.2618 
 317   0.0000       0.931184        25.3388 
 318   0.0000       0.941049        25.6072 
 319   0.0000       0.941307        25.6143 
 320   0.0000       0.944147        25.6916 
 321   0.0000       0.947441        25.7812 
 322   0.0000       0.948304        25.8047 
 323   0.0000       0.953195        25.9377 
 324   0.0000       0.955639        26.0043 
 325   0.0000       0.957280        26.0489 
 326   0.0000       0.964612        26.2484 
 327   0.0000       0.969925        26.3930 
 328   0.0000       0.972131        26.4530 
 329   0.0000       0.973235        26.4831 
 330   0.0000       0.974752        26.5243 
 331   0.0000       0.980511        26.6811 
 332   0.0000       0.982801        26.7434 
 333   0.0000       0.987298        26.8657 
 334   0.0000       0.989940        26.9376 
 335   0.0000       0.996491        27.1159 
 336   0.0000       1.003712        27.3124 
 337   0.0000       1.006774        27.3957 
 338   0.0000       1.009407        27.4674 
 339   0.0000       1.010373        27.4937 
 340   0.0000       1.015025        27.6202 
 341   0.0000       1.019408        27.7395 
 342   0.0000       1.020903        27.7802 
 343   0.0000       1.026778        27.9400 
 344   0.0000       1.030597        28.0440 
 345   0.0000       1.031857        28.0783 
 346   0.0000       1.036410        28.2021 
 347   0.0000       1.038148        28.2494 
 348   0.0000       1.045526        28.4502 
 349   0.0000       1.047994        28.5174 
 350   0.0000       1.050237        28.5784 
 351   0.0000       1.053185        28.6586 
 352   0.0000       1.055076        28.7101 
 353   0.0000       1.061956        28.8973 
 354   0.0000       1.065006        28.9803 
 355   0.0000       1.069371        29.0991 
 356   0.0000       1.073110        29.2008 
 357   0.0000       1.079585        29.3770 
 358   0.0000       1.083021        29.4705 
 359   0.0000       1.085241        29.5309 
 360   0.0000       1.088028        29.6067 
 361   0.0000       1.089970        29.6596 
 362   0.0000       1.097455        29.8633 
 363   0.0000       1.103006        30.0143 
 364   0.0000       1.104065        30.0431 
 365   0.0000       1.106328        30.1047 
 366   0.0000       1.114811        30.3355 
 367   0.0000       1.118180        30.4272 
 368   0.0000       1.123641        30.5758 
 369   0.0000       1.125284        30.6205 
 370   0.0000       1.132108        30.8062 
 371   0.0000       1.136076        30.9142 
 372   0.0000       1.140641        31.0384 
 373   0.0000       1.142896        31.0998 
 374   0.0000       1.144893        31.1541 
 375   0.0000       1.149529        31.2803 
 376   0.0000       1.153142        31.3786 
 377   0.0000       1.162887        31.6438 
 378   0.0000       1.166176        31.7333 
 379   0.0000       1.172525        31.9060 
 380   0.0000       1.175711        31.9927 
 381   0.0000       1.180357        32.1192 
 382   0.0000       1.181806        32.1586 
 383   0.0000       1.191215        32.4146 
 384   0.0000       1.191852        32.4319 
 385   0.0000       1.198785        32.6206 
 386   0.0000       1.202532        32.7226 
 387   0.0000       1.206925        32.8421 
 388   0.0000       1.210871        32.9495 
 389   0.0000       1.213519        33.0215 
 390   0.0000       1.220172        33.2026 
 391   0.0000       1.227511        33.4023 
 392   0.0000       1.231745        33.5175 
 393   0.0000       1.236923        33.6584 
 394   0.0000       1.240156        33.7464 
 395   0.0000       1.244603        33.8674 
 396   0.0000       1.251044        34.0426 
 397   0.0000       1.254746        34.1434 
 398   0.0000       1.261365        34.3235 
 399   0.0000       1.264225        34.4013 
 400   0.0000       1.267650        34.4945 
 401   0.0000       1.272227        34.6190 
 402   0.0000       1.277137        34.7527 
 403   0.0000       1.279539        34.8180 
 404   0.0000       1.284633        34.9566 
 405   0.0000       1.293051        35.1857 
 406   0.0000       1.300546        35.3897 
 407   0.0000       1.304306        35.4920 
 408   0.0000       1.306790        35.5596 
 409   0.0000       1.308547        35.6074 
 410   0.0000       1.310869        35.6706 
 411   0.0000       1.315969        35.8093 
 412   0.0000       1.318504        35.8783 
 413   0.0000       1.324656        36.0457 
 414   0.0000       1.335664        36.3453 
 415   0.0000       1.336802        36.3762 
 416   0.0000       1.342535        36.5322 
 417   0.0000       1.352450        36.8020 
 418   0.0000       1.356650        36.9163 
 419   0.0000       1.363467        37.1018 
 420   0.0000       1.369039        37.2535 
 421   0.0000       1.376747        37.4632 
 422   0.0000       1.378169        37.5019 
 423   0.0000       1.381671        37.5972 
 424   0.0000       1.385265        37.6950 
 425   0.0000       1.387593        37.7583 
 426   0.0000       1.395651        37.9776 
 427   0.0000       1.397763        38.0351 
 428   0.0000       1.409577        38.3566 
 429   0.0000       1.412266        38.4297 
 430   0.0000       1.417535        38.5731 
 431   0.0000       1.427723        38.8503 
 432   0.0000       1.432722        38.9863 
 433   0.0000       1.437520        39.1169 
 434   0.0000       1.443996        39.2931 
 435   0.0000       1.451243        39.4903 
 436   0.0000       1.453268        39.5454 
 437   0.0000       1.461313        39.7644 
 438   0.0000       1.464943        39.8631 
 439   0.0000       1.469554        39.9886 
 440   0.0000       1.471686        40.0466 
 441   0.0000       1.473131        40.0859 
 442   0.0000       1.476701        40.1831 
 443   0.0000       1.487358        40.4731 
 444   0.0000       1.489523        40.5320 
 445   0.0000       1.494016        40.6542 
 446   0.0000       1.495489        40.6943 
 447   0.0000       1.503466        40.9114 
 448   0.0000       1.506127        40.9838 
 449   0.0000       1.510667        41.1073 
 450   0.0000       1.521520        41.4027 
 451   0.0000       1.528083        41.5813 
 452   0.0000       1.529293        41.6142 
 453   0.0000       1.537874        41.8477 
 454   0.0000       1.544162        42.0188 
 455   0.0000       1.546443        42.0809 
 456   0.0000       1.553640        42.2767 
 457   0.0000       1.559351        42.4321 
 458   0.0000       1.564376        42.5688 
 459   0.0000       1.568519        42.6816 
 460   0.0000       1.571226        42.7552 
 461   0.0000       1.578120        42.9428 
 462   0.0000       1.588509        43.2255 
 463   0.0000       1.590160        43.2704 
 464   0.0000       1.596683        43.4480 
 465   0.0000       1.598488        43.4971 
 466   0.0000       1.606187        43.7066 
 467   0.0000       1.611222        43.8436 
 468   0.0000       1.616983        44.0003 
 469   0.0000       1.624049        44.1926 
 470   0.0000       1.626921        44.2708 
 471   0.0000       1.636337        44.5270 
 472   0.0000       1.638538        44.5869 
 473   0.0000       1.647341        44.8264 
 474   0.0000       1.650062        44.9005 
 475   0.0000       1.656311        45.0705 
 476   0.0000       1.664815        45.3019 
 477   0.0000       1.668003        45.3887 
 478   0.0000       1.674355        45.5615 
 479   0.0000       1.680131        45.7187 
 480   0.0000       1.684336        45.8331 
 481   0.0000       1.695618        46.1401 
 482   0.0000       1.697992        46.2047 
 483   0.0000       1.706138        46.4264 
 484   0.0000       1.708755        46.4976 
 485   0.0000       1.709466        46.5169 
 486   0.0000       1.716634        46.7120 
 487   0.0000       1.725729        46.9595 
 488   0.0000       1.728430        47.0330 
 489   0.0000       1.731332        47.1119 
 490   0.0000       1.734488        47.1978 
 491   0.0000       1.738921        47.3184 
 492   0.0000       1.750391        47.6306 
 493   0.0000       1.754685        47.7474 
 494   0.0000       1.760650        47.9097 
 495   0.0000       1.765008        48.0283 
 496   0.0000       1.766085        48.0576 
 497   0.0000       1.768982        48.1364 
 498   0.0000       1.774355        48.2827 
 499   0.0000       1.782933        48.5161 
 500   0.0000       1.788782        48.6752 
 501   0.0000       1.796485        48.8848 
 502   0.0000       1.799775        48.9744 
 503   0.0000       1.804288        49.0972 
 504   0.0000       1.806539        49.1584 
 505   0.0000       1.817985        49.4699 
 506   0.0000       1.821116        49.5551 
 507   0.0000       1.826510        49.7019 
 508   0.0000       1.829748        49.7900 
 509   0.0000       1.837077        49.9894 
 510   0.0000       1.839514        50.0557 
 511   0.0000       1.840875        50.0928 
 512   0.0000       1.847549        50.2744 
 513   0.0000       1.852236        50.4019 
 514   0.0000       1.861138        50.6441 
 515   0.0000       1.862960        50.6937 
 516   0.0000       1.869720        50.8777 
 517   0.0000       1.876607        51.0651 
 518   0.0000       1.878272        51.1104 
 519   0.0000       1.886619        51.3375 
 520   0.0000       1.891417        51.4681 
 521   0.0000       1.897125        51.6234 
 522   0.0000       1.908204        51.9249 
 523   0.0000       1.911712        52.0203 
 524   0.0000       1.914646        52.1002 
 525   0.0000       1.917751        52.1847 
 526   0.0000       1.926961        52.4353 
 527   0.0000       1.929123        52.4941 
 528   0.0000       1.935144        52.6580 
 529   0.0000       1.938836        52.7584 
 530   0.0000       1.944410        52.9101 
 531   0.0000       1.948486        53.0210 
 532   0.0000       1.956043        53.2266 
 533   0.0000       1.957956        53.2787 
 534   0.0000       1.964604        53.4596 
 535   0.0000       1.970941        53.6320 
 536   0.0000       1.979594        53.8675 
 537   0.0000       1.986101        54.0446 
 538   0.0000       1.994051        54.2609 
 539   0.0000       2.002808        54.4992 
 540   0.0000       2.005031        54.5597 
 541   0.0000       2.008965        54.6667 
 542   0.0000       2.012703        54.7684 
 543   0.0000       2.025862        55.1265 
 544   0.0000       2.030448        55.2513 
 545   0.0000       2.032441        55.3055 
 546   0.0000       2.042190        55.5708 
 547   0.0000       2.049585        55.7720 
 548   0.0000       2.052884        55.8618 
 549   0.0000       2.059413        56.0395 
 550   0.0000       2.065871        56.2152 
 551   0.0000       2.073750        56.4296 
 552   0.0000       2.088083        56.8196 
 553   0.0000       2.091414        56.9103 
 554   0.0000       2.096452        57.0474 
 555   0.0000       2.104097        57.2554 
 556   0.0000       2.109430        57.4005 
 557   0.0000       2.117545        57.6213 
 558   0.0000       2.120402        57.6991 
 559   0.0000       2.129156        57.9373 
 560   0.0000       2.134187        58.0742 
 561   0.0000       2.146925        58.4208 
 562   0.0000       2.149020        58.4778 
 563   0.0000       2.153311        58.5946 
 564   0.0000       2.158451        58.7344 
 565   0.0000       2.165633        58.9299 
 566   0.0000       2.178568        59.2818 
 567   0.0000       2.182028        59.3760 
 568   0.0000       2.191668        59.6383 
 569   0.0000       2.199265        59.8450 
 570   0.0000       2.202206        59.9251 
 571   0.0000       2.207420        60.0670 
 572   0.0000       2.220948        60.4351 
 573   0.0000       2.226947        60.5983 
 574   0.0000       2.233402        60.7740 
 575   0.0000       2.236735        60.8646 
 576   0.0000       2.247862        61.1674 
 577   0.0000       2.251703        61.2720 
 578   0.0000       2.254457        61.3469 
 579   0.0000       2.269785        61.7640 
 580   0.0000       2.273509        61.8653 
 581   0.0000       2.274887        61.9028 
 582   0.0000       2.284084        62.1531 
 583   0.0000       2.295257        62.4571 
 584   0.0000       2.311355        62.8952 
 585   0.0000       2.314877        62.9910 
 586   0.0000       2.320000        63.1304 
 587   0.0000       2.329288        63.3831 
 588   0.0000       2.335676        63.5570 
 589   0.0000       2.346527        63.8522 
 590   0.0000       2.352687        64.0199 
 591   0.0000       2.360620        64.2357 
 592   0.0000       2.373299        64.5807 
 593   0.0000       2.379089        64.7383 
 594   0.0000       2.388368        64.9908 
 595   0.0000       2.394482        65.1572 
 596   0.0000       2.395758        65.1919 
 597   0.0000       2.401841        65.3574 
 598   0.0000       2.407137        65.5015 
 599   0.0000       2.412739        65.6540 
 600   0.0000       2.425547        66.0025 
 601   0.0000       2.439561        66.3838 
 602   0.0000       2.441747        66.4433 
 603   0.0000       2.448637        66.6308 
 604   0.0000       2.457157        66.8626 
 605   0.0000       2.472013        67.2669 
 606   0.0000       2.484694        67.6120 
 607   0.0000       2.500142        68.0323 
 608   0.0000       2.502675        68.1012 
 609   0.0000       2.509455        68.2858 
 610   0.0000       2.521445        68.6120 
 611   0.0000       2.536983        69.0348 
 612   0.0000       2.543370        69.2086 
 613   0.0000       2.553748        69.4910 
 614   0.0000       2.566476        69.8374 
 615   0.0000       2.580574        70.2210 
 616   0.0000       2.591833        70.5274 
 617   0.0000       2.594562        70.6016 
 618   0.0000       2.629769        71.5597 
 619   0.0000       2.639176        71.8156 
 620   0.0000       2.648029        72.0565 
 621   0.0000       2.653852        72.2150 
 622   0.0000       2.663088        72.4663 
 623   0.0000       2.672163        72.7132 
 624   0.0000       2.677323        72.8537 
 625   0.0000       2.688141        73.1480 
 626   0.0000       2.691442        73.2379 
 627   0.0000       2.701072        73.4999 
 628   0.0000       2.712218        73.8032 
 629   0.0000       2.718723        73.9802 
 630   0.0000       2.723606        74.1131 
 631   0.0000       2.741289        74.5943 
 632   0.0000       2.748702        74.7960 
 633   0.0000       2.759551        75.0912 
 634   0.0000       2.765898        75.2639 
 635   0.0000       2.777186        75.5711 
 636   0.0000       2.781679        75.6933 
 637   0.0000       2.785599        75.8000 
 638   0.0000       2.795675        76.0742 
 639   0.0000       2.816689        76.6460 
 640   0.0000       2.820800        76.7579 
 641   0.0000       2.843858        77.3853 
 642   0.0000       2.850860        77.5758 
 643   0.0000       2.861975        77.8783 
 644   0.0000       2.882322        78.4320 
 645   0.0000       2.891911        78.6929 
 646   0.0000       2.896994        78.8312 
 647   0.0000       2.906548        79.0912 
 648   0.0000       2.915869        79.3448 
 649   0.0000       2.927506        79.6615 
 650   0.0000       2.940478        80.0145 
 651   0.0000       2.954555        80.3975 
 652   0.0000       2.976937        81.0066 
 653   0.0000       2.988510        81.3215 
 654   0.0000       3.009783        81.9004 
 655   0.0000       3.016198        82.0749 
 656   0.0000       3.029505        82.4370 
 657   0.0000       3.053214        83.0822 
 658   0.0000       3.069315        83.5203 
 659   0.0000       3.079306        83.7922 
 660   0.0000       3.084622        83.9368 
 661   0.0000       3.102138        84.4135 
 662   0.0000       3.117972        84.8443 
 663   0.0000       3.128986        85.1440 
 664   0.0000       3.146766        85.6278 
 665   0.0000       3.157650        85.9240 
 666   0.0000       3.172133        86.3181 
 667   0.0000       3.181816        86.5816 
 668   0.0000       3.199140        87.0530 
 669   0.0000       3.202563        87.1462 
 670   0.0000       3.215272        87.4920 
 671   0.0000       3.220398        87.6315 
 672   0.0000       3.229675        87.8839 
 673   0.0000       3.246648        88.3458 
 674   0.0000       3.253911        88.5434 
 675   0.0000       3.257157        88.6318 
 676   0.0000       3.266662        88.8904 
 677   0.0000       3.274708        89.1093 
 678   0.0000       3.282618        89.3246 
 679   0.0000       3.292950        89.6057 
 680   0.0000       3.296425        89.7003 
 681   0.0000       3.314182        90.1835 
 682   0.0000       3.330474        90.6268 
 683   0.0000       3.334831        90.7454 
 684   0.0000       3.336303        90.7854 
 685   0.0000       3.353372        91.2499 
 686   0.0000       3.364563        91.5544 
 687   0.0000       3.387042        92.1661 
 688   0.0000       3.391431        92.2855 
 689   0.0000       3.398224        92.4704 
 690   0.0000       3.415159        92.9312 
 691   0.0000       3.424616        93.1885 
 692   0.0000       3.429976        93.3344 
 693   0.0000       3.436759        93.5190 
 694   0.0000       3.441293        93.6423 
 695   0.0000       3.454999        94.0153 
 696   0.0000       3.464214        94.2660 
 697   0.0000       3.474676        94.5507 
 698   0.0000       3.481815        94.7450 
 699   0.0000       3.486314        94.8674 
 700   0.0000       3.489374        94.9507 
 701   0.0000       3.501181        95.2720 
 702   0.0000       3.508906        95.4822 
 703   0.0000       3.516532        95.6897 
 704   0.0000       3.526261        95.9544 
 705   0.0000       3.527503        95.9882 
 706   0.0000       3.543333        96.4190 
 707   0.0000       3.550015        96.6008 
 708   0.0000       3.555291        96.7444 
 709   0.0000       3.564957        97.0074 
 710   0.0000       3.574108        97.2564 
 711   0.0000       3.586615        97.5968 
 712   0.0000       3.590297        97.6969 
 713   0.0000       3.597362        97.8892 
 714   0.0000       3.608438        98.1906 
 715   0.0000       3.613894        98.3391 
 716   0.0000       3.631504        98.8182 
 717   0.0000       3.641015        99.0771 
 718   0.0000       3.647394        99.2506 
 719   0.0000       3.652481        99.3891 
 720   0.0000       3.662806        99.6700 
 721   0.0000       3.673419        99.9588 
 722   0.0000       3.678617       100.1003 
 723   0.0000       3.684791       100.2682 
 724   0.0000       3.686855       100.3244 
 725   0.0000       3.697961       100.6266 
 726   0.0000       3.703383       100.7742 
 727   0.0000       3.709306       100.9354 
 728   0.0000       3.719028       101.1999 
 729   0.0000       3.726254       101.3965 
 730   0.0000       3.739920       101.7684 
 731   0.0000       3.741634       101.8150 
 732   0.0000       3.744931       101.9047 
 733   0.0000       3.749253       102.0224 
 734   0.0000       3.759624       102.3046 
 735   0.0000       3.768493       102.5459 
 736   0.0000       3.773355       102.6782 
 737   0.0000       3.785188       103.0002 
 738   0.0000       3.791221       103.1644 
 739   0.0000       3.792768       103.2065 
 740   0.0000       3.806953       103.5925 
 741   0.0000       3.812624       103.7468 
 742   0.0000       3.813769       103.7779 
 743   0.0000       3.826108       104.1137 
 744   0.0000       3.828638       104.1825 
 745   0.0000       3.841927       104.5441 
 746   0.0000       3.846800       104.6767 
 747   0.0000       3.859668       105.0269 
 748   0.0000       3.864309       105.1532 
 749   0.0000       3.875952       105.4700 
 750   0.0000       3.878676       105.5441 
 751   0.0000       3.883794       105.6834 
 752   0.0000       3.889355       105.8347 
 753   0.0000       3.901098       106.1543 
 754   0.0000       3.906509       106.3015 
 755   0.0000       3.913510       106.4920 
 756   0.0000       3.922456       106.7354 
 757   0.0000       3.924232       106.7838 
 758   0.0000       3.933957       107.0484 
 759   0.0000       3.939113       107.1887 
 760   0.0000       3.950393       107.4957 
 761   0.0000       3.952348       107.5489 
 762   0.0000       3.956178       107.6531 
 763   0.0000       3.968184       107.9798 
 764   0.0000       3.973128       108.1143 
 765   0.0000       3.980367       108.3113 
 766   0.0000       3.990601       108.5898 
 767   0.0000       3.993424       108.6666 
 768   0.0000       3.998916       108.8160 
 769   0.0000       4.011166       109.1494 
 770   0.0000       4.013236       109.2057 
 771   0.0000       4.020262       109.3969 
 772   0.0000       4.032512       109.7302 
 773   0.0000       4.037441       109.8644 
 774   0.0000       4.043219       110.0216 
 775   0.0000       4.049435       110.1907 
 776   0.0000       4.058892       110.4481 
 777   0.0000       4.066156       110.6457 
 778   0.0000       4.080158       111.0267 
 779   0.0000       4.083740       111.1242 
 780   0.0000       4.092494       111.3624 
 781   0.0000       4.101112       111.5969 
 782   0.0000       4.110704       111.8579 
 783   0.0000       4.120984       112.1377 
 784   0.0000       4.124542       112.2345 
 785   0.0000       4.128603       112.3450 
 786   0.0000       4.136895       112.5706 
 787   0.0000       4.146474       112.8313 
 788   0.0000       4.153378       113.0192 
 789   0.0000       4.162478       113.2668 
 790   0.0000       4.169527       113.4586 
 791   0.0000       4.172557       113.5411 
 792   0.0000       4.184184       113.8574 
 793   0.0000       4.192663       114.0882 
 794   0.0000       4.205002       114.4239 
 795   0.0000       4.213724       114.6612 
 796   0.0000       4.217754       114.7709 
 797   0.0000       4.223987       114.9405 
 798   0.0000       4.227092       115.0250 
 799   0.0000       4.243803       115.4798 
 800   0.0000       4.256271       115.8190 
 801   0.0000       4.265200       116.0620 
 802   0.0000       4.271436       116.2317 
 803   0.0000       4.281083       116.4942 
 804   0.0000       4.288424       116.6939 
 805   0.0000       4.299682       117.0003 
 806   0.0000       4.306326       117.1811 
 807   0.0000       4.318188       117.5039 
 808   0.0000       4.319732       117.5459 
 809   0.0000       4.338587       118.0589 
 810   0.0000       4.344108       118.2092 
 811   0.0000       4.352545       118.4388 
 812   0.0000       4.369684       118.9051 
 813   0.0000       4.371796       118.9626 
 814   0.0000       4.387838       119.3991 
 815   0.0000       4.393338       119.5488 
 816   0.0000       4.403386       119.8222 
 817   0.0000       4.418489       120.2332 
 818   0.0000       4.424479       120.3962 
 819   0.0000       4.439504       120.8050 
 820   0.0000       4.443697       120.9191 
 821   0.0000       4.454412       121.2107 
 822   0.0000       4.460611       121.3794 
 823   0.0000       4.467568       121.5687 
 824   0.0000       4.479891       121.9040 
 825   0.0000       4.496080       122.3445 
 826   0.0000       4.501641       122.4959 
 827   0.0000       4.504876       122.5839 
 828   0.0000       4.515615       122.8761 
 829   0.0000       4.525221       123.1375 
 830   0.0000       4.529054       123.2418 
 831   0.0000       4.537463       123.4707 
 832   0.0000       4.542884       123.6182 
 833   0.0000       4.546393       123.7137 
 834   0.0000       4.558955       124.0555 
 835   0.0000       4.579901       124.6254 
 836   0.0000       4.590213       124.9060 
 837   0.0000       4.601163       125.2040 
 838   0.0000       4.619615       125.7061 
 839   0.0000       4.627522       125.9213 
 840   0.0000       4.634608       126.1141 
 841   0.0000       4.651282       126.5678 
 842   0.0000       4.654015       126.6422 
 843   0.0000       4.666928       126.9936 
 844   0.0000       4.679481       127.3351 
 845   0.0000       4.690880       127.6453 
 846   0.0000       4.700882       127.9175 
 847   0.0000       4.707209       128.0897 
 848   0.0000       4.712359       128.2298 
 849   0.0000       4.724694       128.5655 
 850   0.0000       4.743737       129.0837 
 851   0.0000       4.747382       129.1828 
 852   0.0000       4.765402       129.6732 
 853   0.0000       4.778255       130.0229 
 854   0.0000       4.803852       130.7195 
 855   0.0000       4.814325       131.0045 
 856   0.0000       4.822047       131.2146 
 857   0.0000       4.828066       131.3783 
 858   0.0000       4.829803       131.4256 
 859   0.0000       4.854709       132.1034 
 860   0.0000       4.862579       132.3175 
 861   0.0000       4.886852       132.9780 
 862   0.0000       4.893489       133.1586 
 863   0.0000       4.897666       133.2723 
 864   0.0000       4.909457       133.5931 
 865   0.0000       4.913117       133.6927 
 866   0.0000       4.921165       133.9117 
 867   0.0000       4.933530       134.2482 
 868   0.0000       4.958229       134.9203 
 869   0.0000       4.964906       135.1020 
 870   0.0000       4.973839       135.3450 
 871   0.0000       4.982049       135.5684 
 872   0.0000       4.993779       135.8876 
 873   0.0000       4.994902       135.9182 
 874   0.0000       5.007505       136.2612 
 875   0.0000       5.028851       136.8420 
 876   0.0000       5.035830       137.0319 
 877   0.0000       5.042143       137.2037 
 878   0.0000       5.048221       137.3691 
 879   0.0000       5.067666       137.8982 
 880   0.0000       5.079232       138.2129 
 881   0.0000       5.098541       138.7383 
 882   0.0000       5.106256       138.9483 
 883   0.0000       5.113536       139.1464 
 884   0.0000       5.127067       139.5146 
 885   0.0000       5.152736       140.2131 
 886   0.0000       5.164230       140.5258 
 887   0.0000       5.180889       140.9791 
 888   0.0000       5.184529       141.0782 
 889   0.0000       5.192937       141.3070 
 890   0.0000       5.209373       141.7542 
 891   0.0000       5.218107       141.9919 
 892   0.0000       5.226569       142.2222 
 893   0.0000       5.246635       142.7682 
 894   0.0000       5.255600       143.0121 
 895   0.0000       5.268214       143.3554 
 896   0.0000       5.274707       143.5321 
 897   0.0000       5.289605       143.9375 
 898   0.0000       5.302193       144.2800 
 899   0.0000       5.313629       144.5912 
 900   0.0000       5.325165       144.9051 
 901   0.0000       5.339844       145.3045 
 902   0.0000       5.358515       145.8126 
 903   0.0000       5.366837       146.0391 
 904   0.0000       5.376655       146.3062 
 905   0.0000       5.391909       146.7213 
 906   0.0000       5.404138       147.0541 
 907   0.0000       5.430089       147.7602 
 908   0.0000       5.434603       147.8831 
 909   0.0000       5.435595       147.9101 
 910   0.0000       5.448017       148.2481 
 911   0.0000       5.463066       148.6576 
 912   0.0000       5.464012       148.6833 
 913   0.0000       5.484902       149.2518 
 914   0.0000       5.507207       149.8587 
 915   0.0000       5.508546       149.8952 
 916   0.0000       5.527725       150.4170 
 917   0.0000       5.543887       150.8568 
 918   0.0000       5.553522       151.1190 
 919   0.0000       5.563119       151.3802 
 920   0.0000       5.574296       151.6843 
 921   0.0000       5.582928       151.9192 
 922   0.0000       5.599209       152.3622 
 923   0.0000       5.615477       152.8049 
 924   0.0000       5.624453       153.0491 
 925   0.0000       5.628899       153.1701 
 926   0.0000       5.642174       153.5314 
 927   0.0000       5.651862       153.7950 
 928   0.0000       5.656576       153.9233 
 929   0.0000       5.673491       154.3835 
 930   0.0000       5.697644       155.0408 
 931   0.0000       5.707661       155.3134 
 932   0.0000       5.714713       155.5052 
 933   0.0000       5.729406       155.9051 
 934   0.0000       5.745809       156.3514 
 935   0.0000       5.748736       156.4311 
 936   0.0000       5.760356       156.7473 
 937   0.0000       5.768224       156.9614 
 938   0.0000       5.786232       157.4514 
 939   0.0000       5.799373       157.8090 
 940   0.0000       5.821351       158.4070 
 941   0.0000       5.864086       159.5699 
 942   0.0000       5.871227       159.7642 
 943   0.0000       5.901964       160.6006 
 944   0.0000       5.947225       161.8322 
 945   0.0000       5.971657       162.4970 
 946   0.0000       6.053116       164.7137 
 947   0.0000       6.075300       165.3173 
 948   0.0000       6.096449       165.8928 
 949   0.0000       6.099728       165.9820 
 950   0.0000       6.145378       167.2242 
 951   0.0000       6.152782       167.4257 
 952   0.0000       6.180469       168.1791 
 953   0.0000       6.189318       168.4199 
 954   0.0000       6.204734       168.8394 
 955   0.0000       6.222507       169.3230 
 956   0.0000       6.241216       169.8321 
 957   0.0000       6.253783       170.1741 
 958   0.0000       6.256365       170.2443 
 959   0.0000       6.272418       170.6812 
 960   0.0000       6.286955       171.0767 
 961   0.0000       6.303028       171.5141 
 962   0.0000       6.323830       172.0802 
 963   0.0000       6.338519       172.4799 
 964   0.0000       6.345549       172.6712 
 965   0.0000       6.354813       172.9232 
 966   0.0000       6.388945       173.8520 
 967   0.0000       6.406318       174.3248 
 968   0.0000       6.461105       175.8156 
 969   0.0000       6.521533       177.4599 
 970   0.0000       6.592920       179.4025 
 971   0.0000       6.632612       180.4825 
 972   0.0000       6.805578       185.1892 
 973   0.0000       6.829869       185.8502 
 974   0.0000       6.840531       186.1403 
 975   0.0000       6.873590       187.0399 
 976   0.0000       6.905028       187.8954 
 977   0.0000       6.929209       188.5534 
 978   0.0000       6.948097       189.0673 
 979   0.0000       6.981116       189.9658 
 980   0.0000       6.991234       190.2411 
 981   0.0000       7.011012       190.7793 
 982   0.0000       7.030157       191.3003 
 983   0.0000       7.046420       191.7428 
 984   0.0000       7.064561       192.2365 
 985   0.0000       7.106767       193.3850 
 986   0.0000       7.229655       196.7289 
 987   0.0000       7.277825       198.0397 
 988   0.0000       7.322048       199.2431 
 989   0.0000       7.364661       200.4026 
 990   0.0000       7.501390       204.1232 
 991   0.0000       7.565723       205.8738 
 992   0.0000       7.600336       206.8157 
 993   0.0000       7.683000       209.0651 
 994   0.0000       7.743270       210.7051 
 995   0.0000       7.830388       213.0757 
 996   0.0000       7.897389       214.8989 
 997   0.0000       7.983189       217.2336 
 998   0.0000       8.238982       224.1941 
 999   0.0000       9.398420       255.7440 
 1000   0.0000       9.405163       255.9275 
 1001   0.0000       9.428773       256.5700 
 1002   0.0000       9.444079       256.9865 
 1003   0.0000       9.451053       257.1762 
 1004   0.0000       9.478478       257.9225 
 1005   0.0000       9.638659       262.2812 
 1006   0.0000      10.081968       274.3443 
 1007   0.0000      10.083709       274.3917 
 1008   0.0000      10.097124       274.7567 
 1009   0.0000      10.196559       277.4625 
 1010   0.0000      10.206564       277.7347 
 1011   0.0000      10.235721       278.5281 
 1012   0.0000      10.322216       280.8818 
 1013   0.0000      10.370592       282.1982 
 1014   0.0000      10.415540       283.4213 
 1015   0.0000      10.753713       292.6234 
 1016   0.0000      16.588101       451.3852 
 1017   0.0000      17.493725       476.0284 
 1018   0.0000      18.069302       491.6907 
 1019   0.0000      18.368500       499.8323 
 1020   0.0000      18.532718       504.3009 
 1021   0.0000      18.624259       506.7919 
 1022   0.0000      20.405699       555.2673 
 1023   0.0000      21.287402       579.2597 
 1024   0.0000      21.624575       588.4346 

                 SPIN DOWN ORBITALS
  NO   OCC          E(Eh)            E(eV) 
   0   1.0000    -261.573029     -7117.7640 
   1   1.0000    -104.792951     -2851.5612 
   2   1.0000    -104.789681     -2851.4722 
   3   1.0000    -104.787701     -2851.4183 
   4   1.0000     -32.082319      -873.0043 
   5   1.0000     -27.560250      -749.9525 
   6   1.0000     -27.560154      -749.9499 
   7   1.0000     -27.560059      -749.9473 
   8   1.0000     -20.618354      -561.0539 
   9   1.0000     -11.421849      -310.8043 
  10   1.0000     -11.278069      -306.8919 
  11   1.0000     -11.272536      -306.7413 
  12   1.0000     -11.265352      -306.5458 
  13   1.0000     -11.242853      -305.9336 
  14   1.0000     -11.242078      -305.9125 
  15   1.0000     -11.236267      -305.7544 
  16   1.0000     -11.228459      -305.5419 
  17   1.0000     -10.519571      -286.2521 
  18   1.0000     -10.516270      -286.1622 
  19   1.0000     -10.514249      -286.1073 
  20   1.0000      -7.985494      -217.2963 
  21   1.0000      -7.984747      -217.2760 
  22   1.0000      -7.984709      -217.2750 
  23   1.0000      -7.982146      -217.2052 
  24   1.0000      -7.981464      -217.1867 
  25   1.0000      -7.981372      -217.1842 
  26   1.0000      -7.980242      -217.1534 
  27   1.0000      -7.979338      -217.1288 
  28   1.0000      -7.979256      -217.1266 
  29   1.0000      -4.157068      -113.1196 
  30   1.0000      -2.678609       -72.8887 
  31   1.0000      -2.678585       -72.8880 
  32   1.0000      -2.678132       -72.8757 
  33   1.0000      -1.457417       -39.6583 
  34   1.0000      -1.124560       -30.6008 
  35   1.0000      -1.099315       -29.9139 
  36   1.0000      -1.051955       -28.6251 
  37   1.0000      -1.039380       -28.2830 
  38   1.0000      -1.036157       -28.1953 
  39   1.0000      -1.020773       -27.7767 
  40   1.0000      -1.008962       -27.4553 
  41   1.0000      -0.957303       -26.0495 
  42   1.0000      -0.895327       -24.3631 
  43   1.0000      -0.827503       -22.5175 
  44   1.0000      -0.728242       -19.8165 
  45   1.0000      -0.715213       -19.4619 
  46   1.0000      -0.702519       -19.1165 
  47   1.0000      -0.684270       -18.6199 
  48   1.0000      -0.653896       -17.7934 
  49   1.0000      -0.621020       -16.8988 
  50   1.0000      -0.620016       -16.8715 
  51   1.0000      -0.604205       -16.4412 
  52   1.0000      -0.599574       -16.3152 
  53   1.0000      -0.585844       -15.9416 
  54   1.0000      -0.577829       -15.7235 
  55   1.0000      -0.560051       -15.2398 
  56   1.0000      -0.550298       -14.9744 
  57   1.0000      -0.545415       -14.8415 
  58   1.0000      -0.539341       -14.6762 
  59   1.0000      -0.527028       -14.3412 
  60   1.0000      -0.523554       -14.2466 
  61   1.0000      -0.506118       -13.7722 
  62   1.0000      -0.491662       -13.3788 
  63   1.0000      -0.485879       -13.2214 
  64   1.0000      -0.483379       -13.1534 
  65   1.0000      -0.454573       -12.3696 
  66   1.0000      -0.451443       -12.2844 
  67   1.0000      -0.448456       -12.2031 
  68   1.0000      -0.432069       -11.7572 
  69   1.0000      -0.429835       -11.6964 
  70   1.0000      -0.413891       -11.2625 
  71   1.0000      -0.358073        -9.7437 
  72   0.0000       0.012665         0.3446 
  73   0.0000       0.023682         0.6444 
  74   0.0000       0.024360         0.6629 
  75   0.0000       0.030633         0.8336 
  76   0.0000       0.039272         1.0686 
  77   0.0000       0.041162         1.1201 
  78   0.0000       0.042786         1.1643 
  79   0.0000       0.043085         1.1724 
  80   0.0000       0.044216         1.2032 
  81   0.0000       0.054286         1.4772 
  82   0.0000       0.056644         1.5414 
  83   0.0000       0.061362         1.6698 
  84   0.0000       0.063126         1.7177 
  85   0.0000       0.064344         1.7509 
  86   0.0000       0.064795         1.7632 
  87   0.0000       0.071673         1.9503 
  88   0.0000       0.077243         2.1019 
  89   0.0000       0.082170         2.2360 
  90   0.0000       0.089676         2.4402 
  91   0.0000       0.091762         2.4970 
  92   0.0000       0.093928         2.5559 
  93   0.0000       0.095229         2.5913 
  94   0.0000       0.100461         2.7337 
  95   0.0000       0.103178         2.8076 
  96   0.0000       0.104000         2.8300 
  97   0.0000       0.106046         2.8857 
  98   0.0000       0.106673         2.9027 
  99   0.0000       0.108601         2.9552 
 100   0.0000       0.111304         3.0287 
 101   0.0000       0.114937         3.1276 
 102   0.0000       0.119590         3.2542 
 103   0.0000       0.122226         3.3259 
 104   0.0000       0.123926         3.3722 
 105   0.0000       0.125737         3.4215 
 106   0.0000       0.126963         3.4548 
 107   0.0000       0.129170         3.5149 
 108   0.0000       0.132062         3.5936 
 109   0.0000       0.133848         3.6422 
 110   0.0000       0.137249         3.7347 
 111   0.0000       0.138837         3.7780 
 112   0.0000       0.144193         3.9237 
 113   0.0000       0.146495         3.9863 
 114   0.0000       0.150937         4.1072 
 115   0.0000       0.151983         4.1357 
 116   0.0000       0.156691         4.2638 
 117   0.0000       0.162482         4.4214 
 118   0.0000       0.162893         4.4326 
 119   0.0000       0.167271         4.5517 
 120   0.0000       0.170558         4.6411 
 121   0.0000       0.172158         4.6846 
 122   0.0000       0.175745         4.7823 
 123   0.0000       0.181061         4.9269 
 124   0.0000       0.183554         4.9948 
 125   0.0000       0.186985         5.0881 
 126   0.0000       0.187564         5.1039 
 127   0.0000       0.192420         5.2360 
 128   0.0000       0.197317         5.3693 
 129   0.0000       0.198529         5.4022 
 130   0.0000       0.199186         5.4201 
 131   0.0000       0.202339         5.5059 
 132   0.0000       0.205158         5.5826 
 133   0.0000       0.209001         5.6872 
 134   0.0000       0.215809         5.8725 
 135   0.0000       0.218119         5.9353 
 136   0.0000       0.223742         6.0883 
 137   0.0000       0.227539         6.1916 
 138   0.0000       0.229095         6.2340 
 139   0.0000       0.233436         6.3521 
 140   0.0000       0.236249         6.4287 
 141   0.0000       0.240590         6.5468 
 142   0.0000       0.241516         6.5720 
 143   0.0000       0.246742         6.7142 
 144   0.0000       0.250432         6.8146 
 145   0.0000       0.251737         6.8501 
 146   0.0000       0.254280         6.9193 
 147   0.0000       0.259612         7.0644 
 148   0.0000       0.259899         7.0722 
 149   0.0000       0.266375         7.2484 
 150   0.0000       0.271436         7.3861 
 151   0.0000       0.273488         7.4420 
 152   0.0000       0.277855         7.5608 
 153   0.0000       0.282212         7.6794 
 154   0.0000       0.285834         7.7779 
 155   0.0000       0.292098         7.9484 
 156   0.0000       0.293650         7.9906 
 157   0.0000       0.297127         8.0852 
 158   0.0000       0.299511         8.1501 
 159   0.0000       0.307940         8.3795 
 160   0.0000       0.309936         8.4338 
 161   0.0000       0.317299         8.6341 
 162   0.0000       0.321442         8.7469 
 163   0.0000       0.321897         8.7593 
 164   0.0000       0.330021         8.9803 
 165   0.0000       0.332784         9.0555 
 166   0.0000       0.335328         9.1247 
 167   0.0000       0.340654         9.2697 
 168   0.0000       0.342295         9.3143 
 169   0.0000       0.345216         9.3938 
 170   0.0000       0.350136         9.5277 
 171   0.0000       0.354026         9.6335 
 172   0.0000       0.359048         9.7702 
 173   0.0000       0.360326         9.8050 
 174   0.0000       0.363447         9.8899 
 175   0.0000       0.366034         9.9603 
 176   0.0000       0.368582        10.0296 
 177   0.0000       0.376748        10.2518 
 178   0.0000       0.377949        10.2845 
 179   0.0000       0.381847        10.3906 
 180   0.0000       0.385088        10.4788 
 181   0.0000       0.385631        10.4936 
 182   0.0000       0.389459        10.5977 
 183   0.0000       0.393261        10.7012 
 184   0.0000       0.394995        10.7484 
 185   0.0000       0.395900        10.7730 
 186   0.0000       0.399011        10.8576 
 187   0.0000       0.402505        10.9527 
 188   0.0000       0.405063        11.0223 
 189   0.0000       0.407847        11.0981 
 190   0.0000       0.410172        11.1613 
 191   0.0000       0.416178        11.3248 
 192   0.0000       0.419679        11.4200 
 193   0.0000       0.423876        11.5343 
 194   0.0000       0.427770        11.6402 
 195   0.0000       0.434323        11.8185 
 196   0.0000       0.437498        11.9049 
 197   0.0000       0.443148        12.0587 
 198   0.0000       0.445325        12.1179 
 199   0.0000       0.450343        12.2545 
 200   0.0000       0.452757        12.3201 
 201   0.0000       0.457203        12.4411 
 202   0.0000       0.459209        12.4957 
 203   0.0000       0.460705        12.5364 
 204   0.0000       0.463227        12.6050 
 205   0.0000       0.466563        12.6958 
 206   0.0000       0.475970        12.9518 
 207   0.0000       0.477771        13.0008 
 208   0.0000       0.479325        13.0431 
 209   0.0000       0.483126        13.1465 
 210   0.0000       0.488028        13.2799 
 211   0.0000       0.494106        13.4453 
 212   0.0000       0.496375        13.5070 
 213   0.0000       0.498627        13.5683 
 214   0.0000       0.499785        13.5998 
 215   0.0000       0.504218        13.7205 
 216   0.0000       0.507261        13.8033 
 217   0.0000       0.509943        13.8763 
 218   0.0000       0.514090        13.9891 
 219   0.0000       0.518146        14.0995 
 220   0.0000       0.519784        14.1440 
 221   0.0000       0.522421        14.2158 
 222   0.0000       0.525395        14.2967 
 223   0.0000       0.527601        14.3567 
 224   0.0000       0.528746        14.3879 
 225   0.0000       0.532221        14.4825 
 226   0.0000       0.536490        14.5986 
 227   0.0000       0.539095        14.6695 
 228   0.0000       0.541807        14.7433 
 229   0.0000       0.544828        14.8255 
 230   0.0000       0.546236        14.8638 
 231   0.0000       0.551490        15.0068 
 232   0.0000       0.556402        15.1405 
 233   0.0000       0.560020        15.2389 
 234   0.0000       0.562174        15.2975 
 235   0.0000       0.567104        15.4317 
 236   0.0000       0.572007        15.5651 
 237   0.0000       0.575079        15.6487 
 238   0.0000       0.576304        15.6820 
 239   0.0000       0.582312        15.8455 
 240   0.0000       0.585372        15.9288 
 241   0.0000       0.587172        15.9778 
 242   0.0000       0.591531        16.0964 
 243   0.0000       0.593395        16.1471 
 244   0.0000       0.598952        16.2983 
 245   0.0000       0.604902        16.4602 
 246   0.0000       0.606307        16.4984 
 247   0.0000       0.613937        16.7061 
 248   0.0000       0.616063        16.7639 
 249   0.0000       0.617699        16.8085 
 250   0.0000       0.620973        16.8975 
 251   0.0000       0.626526        17.0486 
 252   0.0000       0.633415        17.2361 
 253   0.0000       0.634801        17.2738 
 254   0.0000       0.638512        17.3748 
 255   0.0000       0.641687        17.4612 
 256   0.0000       0.647724        17.6255 
 257   0.0000       0.650562        17.7027 
 258   0.0000       0.653136        17.7727 
 259   0.0000       0.655357        17.8332 
 260   0.0000       0.661311        17.9952 
 261   0.0000       0.666313        18.1313 
 262   0.0000       0.670212        18.2374 
 263   0.0000       0.673827        18.3358 
 264   0.0000       0.676935        18.4203 
 265   0.0000       0.678943        18.4750 
 266   0.0000       0.685318        18.6484 
 267   0.0000       0.689900        18.7731 
 268   0.0000       0.694019        18.8852 
 269   0.0000       0.698216        18.9994 
 270   0.0000       0.704490        19.1702 
 271   0.0000       0.706139        19.2150 
 272   0.0000       0.712705        19.3937 
 273   0.0000       0.717075        19.5126 
 274   0.0000       0.720859        19.6156 
 275   0.0000       0.725014        19.7286 
 276   0.0000       0.730172        19.8690 
 277   0.0000       0.736393        20.0383 
 278   0.0000       0.738412        20.0932 
 279   0.0000       0.742256        20.1978 
 280   0.0000       0.749737        20.4014 
 281   0.0000       0.749846        20.4044 
 282   0.0000       0.758381        20.6366 
 283   0.0000       0.763125        20.7657 
[...]
  | sigma^2 in % of trace(Dip) retained ...   1.65e+01
  | sigma^2 in % of trace(Dpq) retained ...   1.38e-01
  | Av. % of trace(Di) retained         ...  99.998577502888
  | Av. % of trace(Dp) retained         ...  99.999998929288
  | sigma^2 in % of trace(Di) retained  ...   6.65e-07
  | sigma^2 in % of trace(Dp) retained  ...   6.17e-13
 Distributions of % trace(Dij) recovered:
  |       >= 99.9  ...   105 ( 22.1 % of all IJ-pairs)
  |   [80.0, 90.0) ...    22 (  4.6 % of all IJ-pairs)
  |   [90.0, 99.0) ...   265 ( 55.7 % of all IJ-pairs)
  |   [99.0, 99.9) ...    84 ( 17.6 % of all IJ-pairs)
 Distributions of % trace(Dip) recovered:
  |   [80.0, 90.0) ...    13 ( 11.5 % of all IP-pairs)
  |   [90.0, 99.0) ...    52 ( 46.0 % of all IP-pairs)
  |   [99.0, 99.9) ...    48 ( 42.5 % of all IP-pairs)
 Distributions of % trace(Dpq) recovered:
  |       >= 99.9  ...     5 ( 33.3 % of all PQ-pairs)
  |   [99.0, 99.9) ...    10 ( 66.7 % of all PQ-pairs)
 Distributions of % trace(Di) recovered :
  |       >= 99.9  ...    43 (100.0 % of all I-pairs )
 Distributions of % trace(Dp) recovered :
  |       >= 99.9  ...     5 (100.0 % of all P-pairs )

                       ===========================
                       1047 OF 1668 PAIRS ARE KEPT
                       ===========================

 Initial PAO correlation energy (all pairs)    ...  -2.6818290160 Eh
 Energy constituents in PAO basis (Eh):
  | Vijab(+0) ...  -2.2545693713
  | Viab (-1) ...  -0.1740791001
  | Vab  (-2) ...  -0.0573288891
  | Va   (-1) ...  -0.0000455451
  | Vija (+1) ...  -0.0714574223
  | Vij  (+2) ...  -0.0155495794
  | Via  (+0) ...  -0.1086341565
  | Vi   (+1) ...  -0.0001649524
 Initial PNO correlation energy                ...  -2.6476364370 Eh
 Energy constituents in PNO basis (Eh):
  | Vijab(+0) ...  -2.2358842914 (err=  0.0186850799)
  | Viab (-1) ...  -0.1601189419 (err=  0.0139601582)
  | Vab  (-2) ...  -0.0568728883 (err=  0.0004560008)
  | Va   (-1) ...  -0.0000263894 (err=  0.0000191557)
  | Vija (+1) ...  -0.0705489211 (err=  0.0009085012)
  | Vij  (+2) ...  -0.0154996439 (err=  0.0000499354)
  | Via  (+0) ...  -0.1085209026 (err=  0.0001132539)
  | Vi   (+1) ...  -0.0001644585 (err=  0.0000004939)
 Sum of total truncation errors ...   0.0341925790 Eh
  | Pair screening ...   0.0120207106 Eh
  | PNO truncation ...   0.0221718684 Eh

 UMP2 correlation energy (PAO) ...  -2.6767311489
  | alpha-alpha ...  -0.3836980742 (NP_aa=  896)
  | alpha-beta  ...  -1.9888590519 (NP_ab= 1643)
  | beta -beta  ...  -0.3041740228 (NP_bb=  714)
 UMP2 correlation energy (PNO) ...  -2.6421736662
  | alpha-alpha ...  -0.3716607536 (err=  0.0120373206, NP_aa=  556)
  | alpha-beta  ...  -1.9704442828 (err=  0.0184147691, NP_ab= 1022)
  | beta -beta  ...  -0.3000686298 (err=  0.0041053930, NP_bb=  433)
 Sum of total UMP2 truncation errors ...   0.0345574827 Eh
  | Pair screening ...   0.0120244475 Eh
  | PNO truncation ...   0.0225330352 Eh
 Timing for NEV-PNO construction (sec.)
  | Intermediate construction  ..           37.886
  | Amplitude construction     ..           60.103
  | Total time                 ..           97.990
 Making pair pair interaction lists ...      ok
 Total size for 2-ext PNO integrals ...     10.5 MB
Checking the number of SOMO/SOMO doubles PNOs ... 
 #Truncate: (72, 72)[170] -> [86] .. 
 #Truncate: (73, 73)[172] -> [86] .. 
 #Truncate: (74, 74)[173] -> [86] .. 
 #Truncate: (75, 75)[171] -> [86] .. 
 #Truncate: (76, 76)[172] -> [86] .. 

--------------------------------
LOCAL RI TRANSFORMATION (VABPAO)
--------------------------------

Number of PAOs:    1030
Basis functions:   1025 (343 shells)
Aux. functions:    2424 (644 shells)

Processing maps (0.0 sec)
Average map sizes:
   Aux shells -> PAOs           1030.0
   PAOs       -> AO shells       343.0

Calculating integrals (197.1 sec, 37370.165 MB)
Finished
-----------------------------
LOCAL RI TRANSFORMATION (IJV)
-----------------------------

Orbital window:      29 to 76
Basis functions:   1025 (343 shells)
Aux. functions:    2424 (644 shells)

Processing maps (0.0 sec)
Average map sizes:
   Aux shells -> MOs(i)           46.5
   Aux shells -> MOs(j)           48.0
   MOs        -> AO shells       340.1

Calculating integrals (23.0 sec, 41.364 MB)
Sorting integrals (0.3 sec, 41.337 MB)
Total time for the integral transformation: 23.4 sec


-------------------------------------
Pair Pair Term precalculation with     
RI-(ij|mn) and (im|jn) transformation  
ON THE FLY                             
-------------------------------------

   IBatch   1 (of   2)              ... done ( 1333.564 sec)
   IBatch   2 (of   2)              ... done (  820.634 sec)
Total EXT                           ...        2154.198 sec

---------------------
RI-PNO TRANSFORMATION
---------------------

Total Number of PNOs                   ... 32738
Total Number of IJ-PNOs                ... 28649
Total Number of IP-PNOs                ...  3131
Total Number of PQ-PNOs                ...   958
Total Number of IJ-pairs               ...   909
Total Number of PI-pairs               ...   113
Total Number of PQ-pairs               ...    25
Average number of PNOs per pair        ...    31
Maximal number of PNOs per pair        ...    86
>> Statistics for ij-pairs..
   #pairs with  1 -  5 PNOs   :    0
   #pairs with  6 - 10 PNOs   :    0
   #pairs with 11 - 15 PNOs   :   92
   #pairs with 16 - 20 PNOs   :  180
   #pairs with 21 - 25 PNOs   :  156
   #pairs with 26 - 30 PNOs   :  138
   #pairs with 31 - 35 PNOs   :   58
   #pairs with 36 - 40 PNOs   :   54
   #pairs with 41 - 45 PNOs   :   46
   #pairs with 46 - 50 PNOs   :   18
   #pairs with 51 - 55 PNOs   :   32
   #pairs with 56 - 60 PNOs   :   53
   #pairs with 61 - 65 PNOs   :   77
   #pairs with 66 - 70 PNOs   :    3
   #pairs with 81 - 85 PNOs   :    2
>> Statistics for ip-pairs..
   #pairs with  1 -  5 PNOs   :    0
   #pairs with  6 - 10 PNOs   :    1
   #pairs with 11 - 15 PNOs   :   12
   #pairs with 16 - 20 PNOs   :   12
   #pairs with 21 - 25 PNOs   :   20
   #pairs with 26 - 30 PNOs   :   10
   #pairs with 31 - 35 PNOs   :   44
   #pairs with 36 - 40 PNOs   :   12
   #pairs with 41 - 45 PNOs   :    2
   #pairs with 46 - 50 PNOs   :    0
>> Statistics for pq-pairs..
   #pairs with  1 -  5 PNOs   :    0
   #pairs with  6 - 10 PNOs   :    0
   #pairs with 11 - 15 PNOs   :    0
   #pairs with 16 - 20 PNOs   :    0
   #pairs with 21 - 25 PNOs   :   10
   #pairs with 26 - 30 PNOs   :   10
   #pairs with 31 - 35 PNOs   :    0
   #pairs with 36 - 40 PNOs   :    0
   #pairs with 41 - 45 PNOs   :    0
   #pairs with 46 - 50 PNOs   :    0
   #pairs with 86 - 90 PNOs   :    5

Generation of (ij|ab)[P] integrals            ... on
Generation of (ia|bc)[P],(ja|bc)[P] integrals ... on
Storage of 3 and 4 external integrals         ... on
Generation of ALL (ka|bc)[P] integrals        ... on
Keep RI integrals in memory                   ... off

Ibatch:  1 (of  1)
Starting 2-4 index PNO integral generation ... done

Timings:
Total PNO integral transformation time     ...       1883.641 sec
Size of the 3-external file                ...       279 MB
Size of the 4-external file                ...      1907 MB
Size of the IKJL file                      ...        16 MB
Size of the all 3-external file            ...      6704 MB
Size of the 1-external file                ...        21 MB

Size of the PAO/PNO coefficient matrices   ...     206.6 MB

Making pair/pair overlap matrices          ... done (  325.400 sec)
Size of the pair overlap file              ...    2261.0 MB
Total # unrestricted pairs ...       2011
  # of alpha-alpha pairs   ...        556
  # of alpha-beta pairs    ...       1022
  # of beta-beta pairs     ...        433
Constructing the guess amplitudes          ... done (    0.692 sec)

-------------------------
FINAL STARTUP INFORMATION
-------------------------

E(0)                                       ...  -3028.466863632
E(SL-UMP2 in NEV-PNO space)                ...     -2.677702132
Initial E(tot)                             ...  -3031.144565763
<T|T>                                      ...      0.532499761
Number of unrestricted pairs included      ... 2011
Total number of pairs                      ... 4095
----------------------------------------------------------
                     OPEN-SHELL COUPLED CLUSTER ITERATIONS
----------------------------------------------------------

Number of PNO amplitudes to be optimized        ...          2022031
Number of canonical amplitudes for strong pairs ...       1816340172
Untruncated number of canonical amplitudes      ...       3698645738

Iter       E(tot)           E(Corr)          Delta-E          Residual     Time
  0  -3031.151800982     -2.649408885      0.028293247      0.020956146 1672.75
                           *** Turning on DIIS ***
  1  -3031.268078272     -2.765686175     -0.116277289      0.010688462 1673.51
  2  -3031.333025951     -2.830633854     -0.064947679      0.008386946 1682.38
  3  -3031.355079128     -2.852687031     -0.022053177      0.003246218 1688.43
  4  -3031.362782013     -2.860389916     -0.007702886      0.002653253 1699.32
  5  -3031.367016730     -2.864624633     -0.004234717      0.001514881 1706.07
  6  -3031.368579033     -2.866186936     -0.001562303      0.000746103 1699.31
  7  -3031.369236946     -2.866844849     -0.000657914      0.000484014 1690.01
  8  -3031.369382621     -2.866990524     -0.000145675      0.000223422 1697.80
  9  -3031.369442230     -2.867050133     -0.000059609      0.000142369 1692.62
 10  -3031.369444686     -2.867052588     -0.000002456      0.000075689 1688.64
 11  -3031.369457510     -2.867065412     -0.000012824      0.000064944 1691.35
 12  -3031.369462430     -2.867070333     -0.000004921      0.000037071 1691.53
 13  -3031.369464642     -2.867072545     -0.000002212      0.000017695 1684.21
 14  -3031.369466257     -2.867074160     -0.000001615      0.000011287 1681.78
 15  -3031.369465384     -2.867073287      0.000000873      0.000004794 1681.01
               --- The CCSD iterations have converged ---

E(0)                                       ...  -3028.466863632
E(CORR)(strong-pairs)                      ...     -2.867073287
E(CORR)(weak-pairs)                        ...     -0.035528466
E(CORR)(corrected)                         ...     -2.902601753
E(TOT)                                     ...  -3031.369465384
Singles norm <S|S>**1/2                    ...      0.195908413 ( 0.064679730, 0.131228683)  
T1 diagnostic                              ...      0.020536782                              
<S**2>(linearized)                         ...      8.7508542 (ideal value:      8.7500000)

----------------------
LARGEST PNO AMPLITUDES
----------------------
  47a-> 78a  47b-> 78b       0.056024
  49b-> 72b  -1b-> -1b       0.054870
  52b-> 73b  -1b-> -1b       0.054132
  51b-> 73b  -1b-> -1b       0.053719
  49b-> 76b  -1b-> -1b       0.047280
  49b-> 75b  -1b-> -1b       0.046429
  44a-> 77a  44b-> 77b       0.046322
  42b-> 74b  -1b-> -1b       0.044222
  38b-> 74b  -1b-> -1b       0.044143
  36b-> 72b  -1b-> -1b       0.044104
  55a-> 77a  55b-> 77b       0.044065
  62a-> 77a  62b-> 77b       0.043924
  70a-> 77a  70b-> 77b       0.043716
  64a-> 77a  64b-> 77b       0.043278
  69a-> 77a  69b-> 77b       0.043204
  58a-> 77a  58b-> 77b       0.042728

Total # unrestricted pairs ...       1242
  # of alpha-alpha pairs   ...        340
  # of alpha-beta pairs    ...        621
  # of beta-beta pairs     ...        281

-------------------------------------------
DLPNO BASED TRIPLES CORRECTION
-------------------------------------------

Singles multiplier          ...  1.000000
Fragment selection                          .... not used
TCutTNO                     ... 1.000e-09
TCutMP2Pairs                ... 1.000e-05
TCutDOStrong                ... 2.000e-02
TCutMKNStrong               ... 1.000e-02
TCutDOWeak                  ... 4.000e-02
TCutMKNWeak                 ... 1.000e-01
NTCutTNO                    ... 1

Number of Triples that are to be computed         ...     31004

 . . . . . . . . .
10% done  
20% done  
30% done  
40% done  
50% done  
60% done  
70% done  
80% done  
90% done  
          Batch   1   done (  11854.017 sec)

Triples-Correction TCutTNO=   1.000e-09 (NWeakPairs = 0  1  2  3)  -0.116141236764   -0.001769323539    0.000000000000    0.000000000000
Triples-Correction  -0.117910560304

Triples timings:
Total time                      ... 12353.945 sec

Triples List generation         ...     0.000 sec
TNO generation                  ...   499.656 sec
Pair density generation         ...     0.085 sec
Look up tables                  ...     0.103 sec
Generating 3-index integrals    ...  6989.102 sec
Make 4-ind.int. from 3-ind.int  ...     2.931 sec
Projecting amplitudes (D + S)   ...  4645.944 sec
Sorting integrals for spin cases...    45.403 sec
Calculate W0/W1                 ...   137.473 sec
Energy contr. (sum over a,b,c)  ...    33.036 sec

Everything after 3-index        ...  4969.332 sec

Energy contribution AAA         ...    21.344 sec
Energy contribution AAB         ...    96.200 sec
Energy contribution ABB         ...    86.887 sec
Energy contribution BBB         ...    11.514 sec
prep                ...     2.777 sec
makeTTNO            ...  4597.785 sec
copyij              ...     0.114 sec
copyil              ...     3.604 sec
transposeij         ...     0.069 sec
newMatInDoubleProj  ...    47.404 sec
BlasInDoubleProj    ...  2468.874 sec
ProjSingles         ...    39.460 sec
ProjDoubles         ...  4606.484 sec
overall Doubles for projection      ... 2736436
used Doubles for projection         ... 2736436


Number of Triples   (0, 1, 2, 3 weak pairs; overall):  14392   11232       0       0  ( 25624)
Number of Atoms     (0, 1, 2, 3 weak pairs; overall):   18.8    13.5     0.0     0.0  (    29)
Number of PAOs      (0, 1, 2, 3 weak pairs; overall):  741.1   548.7     0.0     0.0  (  1025)
Number of AuxFcns   (0, 1, 2, 3 weak pairs; overall):  848.7   565.9     0.0     0.0  (  2424)
Number of TNOs (0, 1, 2, 3 weak pairs         ):   78.4    55.9     0.0     0.0
Aver. Number of NTNO, Atoms, PAOs, AuxFcns / Triples:  25624    68.5    16.5   656.8   724.7

Triples Correction (T)                     ...     -0.117910560
    alpha-alpha-alpha ... -0.003756226 (  3.2%)
    alpha-alpha-beta  ... -0.055393355 ( 47.0%)
    alpha-beta -beta  ... -0.054737717 ( 46.4%)
    beta -beta -beta  ... -0.004023262 (  3.4%)
Final correlation energy                   ...     -3.020512313
E(CCSD)                                    ...  -3031.369465384
E(CCSD(T))                                 ...  -3031.487375945

----------------------------
STATISTICS FOR PAIR-ENERGIES
----------------------------
Minimum, maximum and average ratios of UMP and CCSD pair-energies ... 0.46, 1.45, 1.02


------------------------------------------------------------------------------- 
                                     TIMINGS                                   
------------------------------------------------------------------------------- 


Total execution time                   ...    47634.651 sec

Localization of occupied MO's          ...       10.218 sec (  0.0%)
Fock Matrix Formation                  ...     1343.476 sec (  2.8%)
Differential overlap integrals         ...        1.469 sec (  0.0%)
Organizing maps                        ...        1.650 sec (  0.0%)
RI 3-index integral generations        ...      284.167 sec (  0.6%)
RI-PNO integral transformation         ...     4384.262 sec (  9.2%)
Initial Guess                          ...     1780.954 sec (  3.7%)
DIIS Solver                            ...       15.891 sec (  0.0%)
State Vector Update                    ...        0.780 sec (  0.0%)
Sigma-vector construction              ...    27020.720 sec ( 56.7%)
  <0|H|D>                              ...        0.032 sec (  0.0% of sigma)
  <D|H|D>(0-ext)                       ...     4885.272 sec ( 18.1% of sigma)
  <D|H|D>(2-ext Fock)                  ...        1.083 sec (  0.0% of sigma)
  <D|H|D>(2-ext)                       ...     3576.299 sec ( 13.2% of sigma)
  <D|H|D>(4-ext)                       ...      170.561 sec (  0.6% of sigma)
  <D|H|D>(4-ext-corr)                  ...     1064.014 sec (  3.9% of sigma)
  CCSD doubles correction              ...      484.331 sec (  1.8% of sigma)
  <S|H|S>                              ...      700.062 sec (  2.6% of sigma)
  <S|H|D>(1-ext)                       ...      267.539 sec (  1.0% of sigma)
  <D|H|S>(1-ext)                       ...        0.906 sec (  0.0% of sigma)
  <S|H|D>(3-ext)                       ...       22.064 sec (  0.1% of sigma)
  CCSD singles correction              ...        0.005 sec (  0.0% of sigma)
  Fock-dressing                        ...     7851.912 sec ( 29.1% of sigma)
  Singles amplitudes                   ...      112.995 sec (  0.4% of sigma)
  (ik|jl)-dressing                     ...     6268.082 sec ( 23.2% of sigma)
  (ij|ab),(ia|jb)-dressing             ...     1273.652 sec (  4.7% of sigma)
  Pair energies                        ...        0.146 sec (  0.0% of sigma)
Total Time for computing (T)           ...    13119.494 sec ( 27.5% of ALL)


-------------------------   --------------------
FINAL SINGLE POINT ENERGY     -3031.487375944730
-------------------------   --------------------


                            ***************************************
                            *     ORCA property calculations      *
                            ***************************************

                                    ---------------------
                                    Active property flags
                                    ---------------------
   (+) Dipole Moment


------------------------------------------------------------------------------
                       ORCA ELECTRIC PROPERTIES CALCULATION
------------------------------------------------------------------------------

Dipole Moment Calculation                       ... on
Quadrupole Moment Calculation                   ... off
Polarizability Calculation                      ... off
GBWName                                         ... simple-grid-270-285-b3lyp_d3bj-631gd-gas-singlepoint-DLPNO_CCSD_T1-NormalPNO-augtz-gas.gbw
Electron density file                           ... simple-grid-270-285-b3lyp_d3bj-631gd-gas-singlepoint-DLPNO_CCSD_T1-NormalPNO-augtz-gas.scfp.tmp
The origin for moment calculation is the CENTER OF MASS  = (-0.313941, -0.040989  0.015550)

-------------
DIPOLE MOMENT
-------------
                                X             Y             Z
Electronic contribution:    -43.50906      -4.64847       1.68384
Nuclear contribution   :     46.77723       6.10734      -2.31697
                        -----------------------------------------
Total Dipole Moment    :      3.26817       1.45887      -0.63312
                        -----------------------------------------
Magnitude (a.u.)       :      3.63457
Magnitude (Debye)      :      9.23834



--------------------
Rotational spectrum 
--------------------
 
Rotational constants in cm-1:     0.018813     0.010739     0.010112 
Rotational constants in MHz :   563.985595   321.936648   303.162546 

 Dipole components along the rotational axes: 
x,y,z [a.u.] :     3.261456    -1.457123    -0.670658 
x,y,z [Debye]:     8.289962    -3.703712    -1.704678 

 

Timings for individual modules:

Sum of individual times         ...    63723.595 sec (=1062.060 min)
GTO integral calculation        ...       11.946 sec (=   0.199 min)   0.0 %
SCF iterations                  ...    16059.138 sec (= 267.652 min)  25.2 %
MDCI module                     ...    47652.512 sec (= 794.209 min)  74.8 %
                             ****ORCA TERMINATED NORMALLY****
TOTAL RUN TIME: 0 days 17 hours 42 minutes 6 seconds 713 msec
