
                                 *****************
                                 * O   R   C   A *
                                 *****************

           --- An Ab Initio, DFT and Semiempirical electronic structure package ---

                  #######################################################
                  #                        -***-                        #
                  #          Department of theory and spectroscopy      #
                  #               Directorship: Frank Neese             #
                  #        Max Planck Institute fuer Kohlenforschung    #
                  #                Kaiser Wilhelm Platz 1               #
                  #                 D-45470 Muelheim/Ruhr               #
                  #                      Germany                        #
                  #                                                     #
                  #                  All rights reserved                #
                  #                        -***-                        #
                  #######################################################


                         Program Version 4.1.2  - RELEASE  -


 With contributions from (in alphabetic order):
   Daniel Aravena         : Magnetic Properties
   Michael Atanasov       : Ab Initio Ligand Field Theory
   Alexander A. Auer      : GIAO ZORA
   Ute Becker             : Parallelization
   Giovanni Bistoni       : ED, Open-shell LED
   Martin Brehm           : Molecular dynamics
   Dmytro Bykov           : SCF Hessian
   Vijay G. Chilkuri      : MRCI spin determinant printing
   Dipayan Datta          : RHF DLPNO-CCSD density
   Achintya Kumar Dutta   : EOM-CC, STEOM-CC
   Dmitry Ganyushin       : Spin-Orbit,Spin-Spin,Magnetic field MRCI
   Miquel Garcia          : C-PCM Hessian
   Yang Guo               : DLPNO-NEVPT2, CIM, IAO-localization
   Andreas Hansen         : Spin unrestricted coupled pair/coupled cluster methods
   Benjamin Helmich-Paris : CASSCF linear response (MC-RPA)
   Lee Huntington         : MR-EOM, pCC
   Robert Izsak           : Overlap fitted RIJCOSX, COSX-SCS-MP3, EOM
   Christian Kollmar      : KDIIS, OOCD, Brueckner-CCSD(T), CCSD density
   Simone Kossmann        : Meta GGA functionals, TD-DFT gradient, OOMP2, MP2 Hessian
   Martin Krupicka        : AUTO-CI
   Lucas Lang             : DCDCAS
   Dagmar Lenk            : GEPOL surface, SMD
   Dimitrios Liakos       : Extrapolation schemes; parallel MDCI
   Dimitrios Manganas     : ROCIS; embedding schemes
   Dimitrios Pantazis     : SARC Basis sets
   Taras Petrenko         : DFT Hessian,TD-DFT gradient, ASA, ECA, R-Raman, ABS, FL, XAS/XES, NRVS
   Peter Pinski           : DLPNO-MP2, DLPNO-MP2 Gradient
   Christoph Reimann      : Effective Core Potentials
   Marius Retegan         : Local ZFS, SOC
   Christoph Riplinger    : Optimizer, TS searches, QM/MM, DLPNO-CCSD(T), (RO)-DLPNO pert. Triples
   Tobias Risthaus        : Range-separated hybrids, TD-DFT gradient, RPA, STAB
   Michael Roemelt        : Restricted open shell CIS
   Masaaki Saitow         : Open-shell DLPNO
   Barbara Sandhoefer     : DKH picture change effects
   Avijit Sen             : IP-ROCIS
   Kantharuban Sivalingam : CASSCF convergence, NEVPT2, FIC-MRCI
   Bernardo de Souza      : ESD, SOC TD-DFT
   Georgi Stoychev        : AutoAux, RI-MP2 NMR
   Willem Van den Heuvel  : Paramagnetic NMR
   Boris Wezisla          : Elementary symmetry handling
   Frank Wennmohs         : Technical directorship


 We gratefully acknowledge several colleagues who have allowed us to
 interface, adapt or use parts of their codes:
   Stefan Grimme, W. Hujo, H. Kruse,             : VdW corrections, initial TS optimization,
                  C. Bannwarth                     DFT functionals, gCP, sTDA/sTD-DF
   Ed Valeev                                     : LibInt (2-el integral package), F12 methods
   Garnet Chan, S. Sharma, J. Yang, R. Olivares  : DMRG
   Ulf Ekstrom                                   : XCFun DFT Library
   Mihaly Kallay                                 : mrcc  (arbitrary order and MRCC methods)
   Andreas Klamt, Michael Diedenhofen            : otool_cosmo (COSMO solvation model)
   Jiri Pittner, Ondrej Demel                    : Mk-CCSD
   Frank Weinhold                                : gennbo (NPA and NBO analysis)
   Christopher J. Cramer and Donald G. Truhlar   : smd solvation model
   Lars Goerigk                                  : TD-DFT with DH, B97 family of functionals
   V. Asgeirsson, H. Jonsson                     : NEB implementation
   FAccTs GmbH                                   : IRC, NEB, NEB-TS, Multilevel


 Your calculation uses the libint2 library for the computation of 2-el integrals
 For citations please refer to: http://libint.valeyev.net

 This ORCA versions uses:
   CBLAS   interface :  Fast vector & matrix operations
   LAPACKE interface :  Fast linear algebra routines
   SCALAPACK package :  Parallel linear algebra routines


----- Orbital basis set information -----
Your calculation utilizes the basis: aug-cc-pVTZ 
    H, B-Ne : Obtained from the ccRepo (grant-hill.group.shef.ac.uk/ccrepo) Feb. 2017
              R. A. Kendall, T. H. Dunning, Jr., R. J. Harrison, J. Chem. Phys. 96, 6796 (1992)
         He : Obtained from the ccRepo (grant-hill.group.shef.ac.uk/ccrepo) Feb. 2017
              D. E. Woon, T. H. Dunning, Jr., J. Chem. Phys. 100, 2975 (1994)
  Li-Be, Na : Obtained from the ccRepo (grant-hill.group.shef.ac.uk/ccrepo) Feb. 2017
              B. P. Prascher, D. E. Woon, K. A. Peterson, T. H. Dunning, Jr., A. K. Wilson, Theor. Chem. Acc. 128, 69 (2011)
         Mg : Obtained from the Peterson Research Group Website (tyr0.chem.wsu.edu/~kipeters) Feb. 2017
              B. P. Prascher, D. E. Woon, K. A. Peterson, T. H. Dunning, Jr., A. K. Wilson, Theor. Chem. Acc. 128, 69 (2011)
      Al-Ar : Obtained from the ccRepo (grant-hill.group.shef.ac.uk/ccrepo) Feb. 2017
              D. E. Woon, T. H. Dunning, Jr., J. Chem. Phys. 98, 1358 (1993)
      Sc-Zn : Obtained from the ccRepo (grant-hill.group.shef.ac.uk/ccrepo) Feb. 2017
              N. B. Balabanov, K. A. Peterson, J. Chem. Phys. 123, 064107 (2005)
              N. B. Balabanov, K. A. Peterson, J. Chem. Phys. 125, 074110 (2006)
      Ga-Kr : Obtained from the ccRepo (grant-hill.group.shef.ac.uk/ccrepo) Feb. 2017
              A. K. Wilson, D. E. Woon, K. A. Peterson, T. H. Dunning, Jr., J. Chem. Phys. 110, 7667 (1999)
     Ag, Au : Obtained from the Peterson Research Group Website (tyr0.chem.wsu.edu/~kipeters) Feb. 2017
              K. A. Peterson, C. Puzzarini, Theor. Chem. Acc. 114, 283 (2005)

----- AuxJ basis set information -----
Your calculation utilizes the AutoAux generation procedure.
  G. L. Stoychev, A. A. Auer, F. Neese, J. Chem. Theory Comput. 13, 554 (2017)

----- AuxC basis set information -----
Your calculation utilizes the auxiliary basis: aug-cc-pVTZ/C 
  H-He, B-F, Al-Ar, Ga-Kr : Obtained from the EMSL Basis Set Exchange (bse.pnl.gov) Feb. 2017
                            F. Weigend, A. Kohn, C. Hattig, J. Chem. Phys. 116, 3175 (2002)
                   Be, Mg : Obtained from the TURBOMOLE 7.0 basis set library
                            C. Haettig, Phys. Chem. Chem. Phys. 7, 59 (2005)
                       Ne : Obtained from the EMSL Basis Set Exchange (bse.pnl.gov) Feb. 2017
                            C. Haettig, Phys. Chem. Chem. Phys. 7, 59 (2005)
                            F. Weigend, A. Kohn, C. Hattig, J. Chem. Phys. 116, 3175 (2002)
                    Sc-Zn : Obtained from the EMSL Basis Set Exchange (bse.pnl.gov) Feb. 2017
                            J. G. Hill, J. A. Platts, J. Chem. Phys. 128, 044104 (2008)

----- AuxJK basis set information -----
Your calculation utilizes the AutoAux generation procedure.
  G. L. Stoychev, A. A. Auer, F. Neese, J. Chem. Theory Comput. 13, 554 (2017)

================================================================================
                                        WARNINGS
                       Please study these warnings very carefully!
================================================================================


WARNING: your system is open-shell and RHF/RKS was chosen
  ===> : WILL SWITCH to UHF/UKS


WARNING: MDCI localization with Augmented Hessian Foster-Boys
  ===> : Switching off randomization!

WARNING: Post HF methods need fully converged wavefunctions
  ===> : Setting SCFConvForced true
         You can overwrite this default with %scf ConvForced false 


INFO   : the flag for use of LIBINT has been found!

================================================================================
                                       INPUT FILE
================================================================================
NAME = simple-grid-270-290-b3lyp_d3bj-631gd-gas-singlepoint-DLPNO_CCSD_T1-NormalPNO-augtz-gas.inp
|  1> ! aug-cc-pVTZ aug-cc-pVTZ/C DLPNO-CCSD(T1) TightSCF NormalPNO UNO MiniPrint AutoAux
|  2> %pal nproc 10 end
|  3> %maxcore 20000
|  4> %mdci
|  5>      density none
|  6> end
|  7> 
|  8> * xyz 0 6
|  9>  O      0.18810800      0.38440100     -0.87770700
| 10>  C      0.97918800      1.33709500     -0.67802800
| 11>  C      3.05803900      0.13374600      0.55499300
| 12>  C      2.67033700     -0.93682700     -0.16852500
| 13>  C      3.16843600     -1.16116300     -1.57029200
| 14> Fe     -1.48494100     -0.16545900      0.00990800
| 15> Cl     -2.05825400     -1.99951300     -1.00739100
| 16>  C      1.74543800     -2.00506800      0.33632700
| 17> Cl     -2.73930600      1.58369700     -0.38284800
| 18> Cl     -1.07440800     -0.41994400      2.15117300
| 19>  H      3.77802200      0.81103200      0.09457800
| 20>  H      2.26834200     -2.97051600      0.36052100
| 21>  H      1.34835300     -1.80803200      1.33167100
| 22>  H      0.89970900     -2.13387300     -0.35166700
| 23>  H      3.70059800     -2.11953000     -1.62989700
| 24>  H      2.33016700     -1.23156000     -2.27652300
| 25>  H      3.85284200     -0.37588400     -1.90362600
| 26>  C      2.81153000      0.35775200      2.02395600
| 27>  H      3.60759900     -0.11549700      2.61484500
| 28>  H      2.82800900      1.42258200      2.27574700
| 29>  H      1.85955300     -0.05482200      2.36675600
| 30>  C      0.80728100      2.24426500      0.49960600
| 31>  H      1.69485500      2.84963400      0.68614600
| 32>  H     -0.02701100      2.91485100      0.24414600
| 33>  H      0.51747400      1.69550000      1.39592700
| 34>  C      1.81147700      1.81091100     -1.83092300
| 35>  H      1.22660300      2.60379400     -2.32038700
| 36>  H      2.75708500      2.24752200     -1.50709800
| 37>  H      1.97449700      1.01517900     -2.55564400
| 38> *
| 39> 
| 40> 
| 41>                          ****END OF INPUT****
================================================================================

                       ****************************
                       * Single Point Calculation *
                       ****************************

---------------------------------
CARTESIAN COORDINATES (ANGSTROEM)
---------------------------------
  O      0.188108    0.384401   -0.877707
  C      0.979188    1.337095   -0.678028
  C      3.058039    0.133746    0.554993
  C      2.670337   -0.936827   -0.168525
  C      3.168436   -1.161163   -1.570292
  Fe    -1.484941   -0.165459    0.009908
  Cl    -2.058254   -1.999513   -1.007391
  C      1.745438   -2.005068    0.336327
  Cl    -2.739306    1.583697   -0.382848
  Cl    -1.074408   -0.419944    2.151173
  H      3.778022    0.811032    0.094578
  H      2.268342   -2.970516    0.360521
  H      1.348353   -1.808032    1.331671
  H      0.899709   -2.133873   -0.351667
  H      3.700598   -2.119530   -1.629897
  H      2.330167   -1.231560   -2.276523
  H      3.852842   -0.375884   -1.903626
  C      2.811530    0.357752    2.023956
  H      3.607599   -0.115497    2.614845
  H      2.828009    1.422582    2.275747
  H      1.859553   -0.054822    2.366756
  C      0.807281    2.244265    0.499606
  H      1.694855    2.849634    0.686146
  H     -0.027011    2.914851    0.244146
  H      0.517474    1.695500    1.395927
  C      1.811477    1.810911   -1.830923
  H      1.226603    2.603794   -2.320387
  H      2.757085    2.247522   -1.507098
  H      1.974497    1.015179   -2.555644

----------------------------
CARTESIAN COORDINATES (A.U.)
----------------------------
  NO LB      ZA    FRAG     MASS         X           Y           Z
   0 O     8.0000    0    15.999    0.355473    0.726413   -1.658626
   1 C     6.0000    0    12.011    1.850397    2.526743   -1.281287
   2 C     6.0000    0    12.011    5.778856    0.252743    1.048785
   3 C     6.0000    0    12.011    5.046206   -1.770346   -0.318466
   4 C     6.0000    0    12.011    5.987476   -2.194280   -2.967422
   5 Fe   26.0000    0    55.850   -2.806132   -0.312672    0.018723
   6 Cl   17.0000    0    35.453   -3.889536   -3.778532   -1.903693
   7 C     6.0000    0    12.011    3.298400   -3.789029    0.635566
   8 Cl   17.0000    0    35.453   -5.176538    2.992754   -0.723478
   9 Cl   17.0000    0    35.453   -2.030337   -0.793579    4.065128
  10 H     1.0000    0     1.008    7.139427    1.532628    0.178727
  11 H     1.0000    0     1.008    4.286545   -5.613462    0.681286
  12 H     1.0000    0     1.008    2.548018   -3.416685    2.516493
  13 H     1.0000    0     1.008    1.700204   -4.032436   -0.664554
  14 H     1.0000    0     1.008    6.993117   -4.005331   -3.080059
  15 H     1.0000    0     1.008    4.403377   -2.327311   -4.302005
  16 H     1.0000    0     1.008    7.280816   -0.710318   -3.597332
  17 C     6.0000    0    12.011    5.313022    0.676053    3.824723
  18 H     1.0000    0     1.008    6.817374   -0.218258    4.941341
  19 H     1.0000    0     1.008    5.344163    2.688290    4.300539
  20 H     1.0000    0     1.008    3.514046   -0.103599    4.472521
  21 C     6.0000    0    12.011    1.525540    4.241046    0.944119
  22 H     1.0000    0     1.008    3.202812    5.385028    1.296628
  23 H     1.0000    0     1.008   -0.051043    5.508270    0.461369
  24 H     1.0000    0     1.008    0.977884    3.204031    2.637920
  25 C     6.0000    0    12.011    3.423195    3.422126   -3.459943
  26 H     1.0000    0     1.008    2.317944    4.920458   -4.384896
  27 H     1.0000    0     1.008    5.210136    4.247201   -2.848002
  28 H     1.0000    0     1.008    3.731259    1.918410   -4.829467



           ************************************************************
           *        Program running with 10 parallel MPI-processes    *
           *              working on a common directory               *
           ************************************************************


           ************************************************************
           *        Program running with 10 parallel MPI-processes    *
           *              working on a common directory               *
           ************************************************************

Diagonalization of the overlap matrix:
Smallest eigenvalue                        ... 9.139e-07
Time for diagonalization                   ...    0.358 sec
Threshold for overlap eigenvalues          ... 1.000e-08
Number of eigenvalues below threshold      ... 0
Time for construction of square roots      ...    0.294 sec
Total time needed                          ...    0.657 sec

-------------------
DFT GRID GENERATION
-------------------

General Integration Accuracy     IntAcc      ...  4.340
Radial Grid Type                 RadialGrid  ... Gauss-Chebyshev
Angular Grid (max. acc.)         AngularGrid ... Lebedev-110
Angular grid pruning method      GridPruning ... 3 (G Style)
Weight generation scheme         WeightScheme... Becke
Basis function cutoff            BFCut       ...    1.0000e-11
Integration weight cutoff        WCut        ...    1.0000e-14
Grids for H and He will be reduced by one unit

# of grid points (after initial pruning)     ...  36112 (   0.0 sec)
# of grid points (after weights+screening)   ...  32440 (   0.1 sec)
nearest neighbour list constructed           ...    0.0 sec
Grid point re-assignment to atoms done       ...    0.0 sec
Grid point division into batches done        ...    0.0 sec
Reduced shell lists constructed in    0.3 sec

Total number of grid points                  ...    32440
Total number of batches                      ...      520
Average number of points per batch           ...       62
Average number of grid points per atom       ...     1119
Average number of shells per batch           ...   286.51 (83.53%)
Average number of basis functions per batch  ...   850.06 (82.93%)
Average number of large shells per batch     ...   232.13 (81.02%)
Average number of large basis fcns per batch ...   690.47 (81.23%)
Maximum spatial batch extension              ...   5.37,  4.59,  7.13 au
Average spatial batch extension              ...   0.18,  0.19,  0.19 au

Time for grid setup =    0.429 sec

Loading Hartree-Fock densities                     ... done
Calculating cut-offs                               ... done
Setting up the integral package                    ... done
Initializing the effective Hamiltonian             ... done
Starting the Coulomb interaction                   ... done (   1.1 sec)
Reading the grid                                   ... done
Mapping shells                                     ... done
Starting the XC term evaluation                    ... done (   1.0 sec)
Transforming the Hamiltonian                       ... done (   0.2 sec)
Diagonalizing the Hamiltonian                      ... done (   0.4 sec)
Back transforming the eigenvectors                 ... done (   0.1 sec)
Now organizing SCF variables                       ... done
--------------
SCF ITERATIONS
--------------
ITER       Energy         Delta-E        Max-DP      RMS-DP      [F,P]     Damp
               ***  Starting incremental Fock matrix formation  ***
  0  -3027.5986421597   0.000000000000 0.15764008  0.00087387  0.2430143 0.7000
  1  -3027.8522068839  -0.253564724222 0.11983845  0.00068950  0.1537745 0.7000
                               ***Turning on DIIS***
  2  -3028.0218836344  -0.169676750471 0.08602574  0.00051134  0.1094708 0.7000
  3  -3029.6060731988  -1.584189564443 0.24119567  0.00130612  0.0817212 0.0000
  4  -3028.3158579462   1.290215252587 0.04116376  0.00021439  0.0194508 0.0000
  5  -3028.4384811482  -0.122623202015 0.03942466  0.00016932  0.0108730 0.0000
  6  -3028.4863156756  -0.047834527410 0.01973185  0.00006904  0.0052605 0.0000
  7  -3028.4995352789  -0.013219603228 0.00867004  0.00003190  0.0031101 0.0000
  8  -3028.4883191785   0.011216100390 0.00644803  0.00001831  0.0015775 0.0000
  9  -3028.4845385916   0.003780586876 0.00227795  0.00001059  0.0006809 0.0000
 10  -3028.4721748863   0.012363705331 0.00092786  0.00000326  0.0004117 0.0000
 11  -3028.4777440098  -0.005569123521 0.00027199  0.00000168  0.0000860 0.0000
 12  -3028.4757316578   0.002012351979 0.00020858  0.00000123  0.0000223 0.0000
 13  -3028.4756861102   0.000045547604 0.00030076  0.00000156  0.0000090 0.0000
 14  -3028.4756984031  -0.000012292862 0.00042518  0.00000176  0.0000058 0.0000
 15  -3028.4756561200   0.000042283101 0.00025519  0.00000143  0.0000036 0.0000
 16  -3028.4756587671  -0.000002647083 0.00051022  0.00000187  0.0000031 0.0000
 17  -3028.4756743230  -0.000015555935 0.00054577  0.00000166  0.0000020 0.0000
 18  -3028.4756576975   0.000016625449 0.00069730  0.00000266  0.0000015 0.0000
                            ***DIIS convergence achieved***

               *****************************************************
               *                     SUCCESS                       *
               *           SCF CONVERGED AFTER  19 CYCLES          *
               *****************************************************

Total Energy       :        -3028.47566303 Eh          -82409.01238 eV
  Last Energy change         ...   -5.3284e-06  Tolerance :   1.0000e-08
  Last MAX-Density change    ...    4.9211e-04  Tolerance :   1.0000e-07
             **** THE GBW FILE WAS UPDATED (simple-grid-270-290-b3lyp_d3bj-631gd-gas-singlepoint-DLPNO_CCSD_T1-NormalPNO-augtz-gas.gbw) ****
             **** DENSITY FILE WAS UPDATED (simple-grid-270-290-b3lyp_d3bj-631gd-gas-singlepoint-DLPNO_CCSD_T1-NormalPNO-augtz-gas.scfp.tmp) ****
             **** ENERGY FILE WAS UPDATED (simple-grid-270-290-b3lyp_d3bj-631gd-gas-singlepoint-DLPNO_CCSD_T1-NormalPNO-augtz-gas.en.tmp) ****
----------------------
UHF SPIN CONTAMINATION
----------------------

Expectation value of <S**2>     :     8.765013
Ideal value S*(S+1) for S=2.5   :     8.750000
Deviation                       :     0.015013

----------------
ORBITAL ENERGIES
----------------
                 SPIN UP ORBITALS
  NO   OCC          E(Eh)            E(eV) 
   0   1.0000    -261.576395     -7117.8556 
   1   1.0000    -104.794447     -2851.6019 
   2   1.0000    -104.791146     -2851.5121 
   3   1.0000    -104.789072     -2851.4556 
   4   1.0000     -32.244095      -877.4064 
   5   1.0000     -27.720590      -754.3156 
   6   1.0000     -27.719430      -754.2840 
   7   1.0000     -27.719229      -754.2786 
   8   1.0000     -20.622263      -561.1603 
   9   1.0000     -11.421864      -310.8047 
  10   1.0000     -11.278154      -306.8942 
  11   1.0000     -11.272729      -306.7465 
  12   1.0000     -11.265515      -306.5502 
  13   1.0000     -11.243203      -305.9431 
  14   1.0000     -11.242508      -305.9242 
  15   1.0000     -11.235810      -305.7419 
  16   1.0000     -11.228677      -305.5478 
  17   1.0000     -10.521172      -286.2956 
  18   1.0000     -10.517840      -286.2050 
  19   1.0000     -10.515716      -286.1472 
  20   1.0000      -7.988000      -217.3645 
  21   1.0000      -7.987253      -217.3442 
  22   1.0000      -7.987200      -217.3428 
  23   1.0000      -7.984718      -217.2752 
  24   1.0000      -7.983937      -217.2540 
  25   1.0000      -7.983884      -217.2525 
  26   1.0000      -7.982503      -217.2150 
  27   1.0000      -7.981847      -217.1971 
  28   1.0000      -7.981799      -217.1958 
  29   1.0000      -4.598938      -125.1435 
  30   1.0000      -3.212092       -87.4055 
  31   1.0000      -3.210327       -87.3574 
  32   1.0000      -3.210171       -87.3532 
  33   1.0000      -1.465817       -39.8869 
  34   1.0000      -1.124910       -30.6104 
  35   1.0000      -1.101368       -29.9698 
  36   1.0000      -1.067596       -29.0508 
  37   1.0000      -1.061747       -28.8916 
  38   1.0000      -1.058750       -28.8101 
  39   1.0000      -1.021607       -27.7993 
  40   1.0000      -1.009288       -27.4641 
  41   1.0000      -0.957523       -26.0555 
  42   1.0000      -0.943281       -25.6680 
  43   1.0000      -0.927835       -25.2477 
  44   1.0000      -0.927700       -25.2440 
  45   1.0000      -0.916984       -24.9524 
  46   1.0000      -0.916326       -24.9345 
  47   1.0000      -0.895123       -24.3575 
  48   1.0000      -0.814896       -22.1744 
  49   1.0000      -0.728343       -19.8192 
  50   1.0000      -0.713304       -19.4100 
  51   1.0000      -0.703213       -19.1354 
  52   1.0000      -0.684360       -18.6224 
  53   1.0000      -0.653965       -17.7953 
  54   1.0000      -0.621345       -16.9077 
  55   1.0000      -0.620101       -16.8738 
  56   1.0000      -0.604713       -16.4551 
  57   1.0000      -0.599684       -16.3182 
  58   1.0000      -0.586069       -15.9477 
  59   1.0000      -0.579145       -15.7593 
  60   1.0000      -0.560946       -15.2641 
  61   1.0000      -0.550813       -14.9884 
  62   1.0000      -0.546567       -14.8728 
  63   1.0000      -0.539600       -14.6833 
  64   1.0000      -0.537196       -14.6179 
  65   1.0000      -0.525097       -14.2886 
  66   1.0000      -0.504351       -13.7241 
  67   1.0000      -0.491896       -13.3852 
  68   1.0000      -0.477365       -12.9898 
  69   1.0000      -0.476963       -12.9788 
  70   1.0000      -0.447362       -12.1733 
  71   1.0000      -0.441106       -12.0031 
  72   1.0000      -0.439225       -11.9519 
  73   1.0000      -0.430648       -11.7185 
  74   1.0000      -0.429678       -11.6921 
  75   1.0000      -0.428345       -11.6558 
  76   1.0000      -0.358790        -9.7632 
  77   0.0000       0.012638         0.3439 
  78   0.0000       0.023679         0.6443 
  79   0.0000       0.024365         0.6630 
  80   0.0000       0.030686         0.8350 
  81   0.0000       0.039331         1.0703 
  82   0.0000       0.041325         1.1245 
  83   0.0000       0.042779         1.1641 
  84   0.0000       0.043127         1.1736 
  85   0.0000       0.044379         1.2076 
  86   0.0000       0.056549         1.5388 
  87   0.0000       0.057408         1.5621 
  88   0.0000       0.061499         1.6735 
  89   0.0000       0.063831         1.7369 
  90   0.0000       0.064521         1.7557 
  91   0.0000       0.068514         1.8643 
  92   0.0000       0.073774         2.0075 
  93   0.0000       0.077624         2.1123 
  94   0.0000       0.082617         2.2481 
  95   0.0000       0.090214         2.4548 
  96   0.0000       0.091907         2.5009 
  97   0.0000       0.094164         2.5623 
  98   0.0000       0.097327         2.6484 
  99   0.0000       0.102310         2.7840 
 100   0.0000       0.104560         2.8452 
 101   0.0000       0.107960         2.9378 
 102   0.0000       0.117536         3.1983 
 103   0.0000       0.120315         3.2739 
 104   0.0000       0.123313         3.3555 
 105   0.0000       0.123699         3.3660 
 106   0.0000       0.125401         3.4123 
 107   0.0000       0.127122         3.4592 
 108   0.0000       0.130814         3.5596 
 109   0.0000       0.132920         3.6169 
 110   0.0000       0.135084         3.6758 
 111   0.0000       0.138185         3.7602 
 112   0.0000       0.141879         3.8607 
 113   0.0000       0.145741         3.9658 
 114   0.0000       0.148455         4.0397 
 115   0.0000       0.151004         4.1090 
 116   0.0000       0.156325         4.2538 
 117   0.0000       0.161621         4.3979 
 118   0.0000       0.162513         4.4222 
 119   0.0000       0.164564         4.4780 
 120   0.0000       0.168743         4.5917 
 121   0.0000       0.169833         4.6214 
 122   0.0000       0.174194         4.7401 
 123   0.0000       0.180738         4.9181 
 124   0.0000       0.182631         4.9696 
 125   0.0000       0.184373         5.0170 
 126   0.0000       0.186368         5.0713 
 127   0.0000       0.190562         5.1854 
 128   0.0000       0.193556         5.2669 
 129   0.0000       0.196322         5.3422 
 130   0.0000       0.197865         5.3842 
 131   0.0000       0.200465         5.4549 
 132   0.0000       0.203462         5.5365 
 133   0.0000       0.206918         5.6305 
 134   0.0000       0.210972         5.7408 
 135   0.0000       0.215675         5.8688 
 136   0.0000       0.217187         5.9099 
 137   0.0000       0.224514         6.1093 
 138   0.0000       0.225915         6.1475 
 139   0.0000       0.231607         6.3023 
 140   0.0000       0.233470         6.3530 
 141   0.0000       0.234906         6.3921 
 142   0.0000       0.237868         6.4727 
 143   0.0000       0.241614         6.5747 
 144   0.0000       0.242452         6.5975 
 145   0.0000       0.245130         6.6703 
 146   0.0000       0.252672         6.8755 
 147   0.0000       0.254584         6.9276 
 148   0.0000       0.257114         6.9964 
 149   0.0000       0.259724         7.0674 
 150   0.0000       0.260977         7.1016 
 151   0.0000       0.266511         7.2521 
 152   0.0000       0.274132         7.4595 
 153   0.0000       0.278260         7.5718 
 154   0.0000       0.280372         7.6293 
 155   0.0000       0.286507         7.7962 
 156   0.0000       0.289932         7.8894 
 157   0.0000       0.291802         7.9403 
 158   0.0000       0.295858         8.0507 
 159   0.0000       0.306024         8.3273 
 160   0.0000       0.308243         8.3877 
 161   0.0000       0.309517         8.4224 
 162   0.0000       0.316877         8.6227 
 163   0.0000       0.318636         8.6705 
 164   0.0000       0.323212         8.7950 
 165   0.0000       0.329111         8.9556 
 166   0.0000       0.332291         9.0421 
 167   0.0000       0.335741         9.1360 
 168   0.0000       0.338019         9.1980 
 169   0.0000       0.341824         9.3015 
 170   0.0000       0.344702         9.3798 
 171   0.0000       0.353341         9.6149 
 172   0.0000       0.354411         9.6440 
 173   0.0000       0.357990         9.7414 
 174   0.0000       0.358584         9.7576 
 175   0.0000       0.365580         9.9479 
 176   0.0000       0.367248         9.9933 
 177   0.0000       0.372677        10.1411 
 178   0.0000       0.375128        10.2078 
 179   0.0000       0.376034        10.2324 
 180   0.0000       0.378563        10.3012 
 181   0.0000       0.380678        10.3588 
 182   0.0000       0.382122        10.3981 
 183   0.0000       0.383085        10.4243 
 184   0.0000       0.390607        10.6289 
 185   0.0000       0.392917        10.6918 
 186   0.0000       0.396125        10.7791 
 187   0.0000       0.399387        10.8679 
 188   0.0000       0.402443        10.9510 
 189   0.0000       0.404208        10.9990 
 190   0.0000       0.407050        11.0764 
 191   0.0000       0.412161        11.2155 
 192   0.0000       0.414314        11.2740 
 193   0.0000       0.421246        11.4627 
 194   0.0000       0.422505        11.4969 
 195   0.0000       0.432765        11.7761 
 196   0.0000       0.435241        11.8435 
 197   0.0000       0.438154        11.9228 
 198   0.0000       0.440329        11.9820 
 199   0.0000       0.443541        12.0694 
 200   0.0000       0.449397        12.2287 
 201   0.0000       0.450391        12.2558 
 202   0.0000       0.455277        12.3887 
 203   0.0000       0.456539        12.4231 
 204   0.0000       0.460050        12.5186 
 205   0.0000       0.463249        12.6056 
 206   0.0000       0.465680        12.6718 
 207   0.0000       0.472565        12.8592 
 208   0.0000       0.478197        13.0124 
 209   0.0000       0.479087        13.0366 
 210   0.0000       0.484447        13.1825 
 211   0.0000       0.486783        13.2460 
 212   0.0000       0.492759        13.4087 
 213   0.0000       0.493385        13.4257 
 214   0.0000       0.498372        13.5614 
 215   0.0000       0.499948        13.6043 
 216   0.0000       0.503733        13.7073 
 217   0.0000       0.508008        13.8236 
 218   0.0000       0.509806        13.8725 
 219   0.0000       0.513404        13.9704 
 220   0.0000       0.514264        13.9938 
 221   0.0000       0.519427        14.1343 
 222   0.0000       0.522706        14.2236 
 223   0.0000       0.523747        14.2519 
 224   0.0000       0.526740        14.3333 
 225   0.0000       0.529914        14.4197 
 226   0.0000       0.533024        14.5043 
 227   0.0000       0.533653        14.5214 
 228   0.0000       0.539963        14.6931 
 229   0.0000       0.542952        14.7745 
 230   0.0000       0.543267        14.7830 
 231   0.0000       0.548121        14.9151 
 232   0.0000       0.554032        15.0760 
 233   0.0000       0.558417        15.1953 
 234   0.0000       0.559920        15.2362 
 235   0.0000       0.565116        15.3776 
 236   0.0000       0.570260        15.5176 
 237   0.0000       0.573022        15.5927 
 238   0.0000       0.573992        15.6191 
 239   0.0000       0.579692        15.7742 
 240   0.0000       0.583099        15.8669 
 241   0.0000       0.586175        15.9506 
 242   0.0000       0.589704        16.0467 
 243   0.0000       0.590415        16.0660 
 244   0.0000       0.596377        16.2282 
 245   0.0000       0.601703        16.3732 
 246   0.0000       0.605388        16.4734 
 247   0.0000       0.610956        16.6250 
 248   0.0000       0.611574        16.6418 
 249   0.0000       0.614971        16.7342 
 250   0.0000       0.617002        16.7895 
 251   0.0000       0.624411        16.9911 
 252   0.0000       0.630319        17.1518 
 253   0.0000       0.631267        17.1777 
 254   0.0000       0.635272        17.2866 
 255   0.0000       0.640250        17.4221 
 256   0.0000       0.641459        17.4550 
 257   0.0000       0.647568        17.6212 
 258   0.0000       0.649661        17.6782 
 259   0.0000       0.652121        17.7451 
 260   0.0000       0.658486        17.9183 
 261   0.0000       0.663013        18.0415 
 262   0.0000       0.665728        18.1154 
 263   0.0000       0.671498        18.2724 
 264   0.0000       0.672643        18.3035 
 265   0.0000       0.676502        18.4085 
 266   0.0000       0.682411        18.5694 
 267   0.0000       0.687355        18.7039 
 268   0.0000       0.692221        18.8363 
 269   0.0000       0.695635        18.9292 
 270   0.0000       0.699373        19.0309 
 271   0.0000       0.703301        19.1378 
 272   0.0000       0.709624        19.3098 
 273   0.0000       0.712048        19.3758 
 274   0.0000       0.714959        19.4550 
 275   0.0000       0.719886        19.5891 
 276   0.0000       0.725846        19.7513 
 277   0.0000       0.731628        19.9086 
 278   0.0000       0.733794        19.9675 
 279   0.0000       0.737376        20.0650 
 280   0.0000       0.744365        20.2552 
 281   0.0000       0.746623        20.3166 
 282   0.0000       0.755885        20.5687 
 283   0.0000       0.760891        20.7049 
 284   0.0000       0.762446        20.7472 
 285   0.0000       0.776258        21.1230 
 286   0.0000       0.778252        21.1773 
 287   0.0000       0.784119        21.3370 
 288   0.0000       0.793943        21.6043 
 289   0.0000       0.799413        21.7531 
 290   0.0000       0.809650        22.0317 
 291   0.0000       0.813475        22.1358 
 292   0.0000       0.817234        22.2381 
 293   0.0000       0.821525        22.3548 
 294   0.0000       0.829509        22.5721 
 295   0.0000       0.834322        22.7030 
 296   0.0000       0.840138        22.8613 
 297   0.0000       0.844142        22.9703 
 298   0.0000       0.851249        23.1637 
 299   0.0000       0.856129        23.2965 
 300   0.0000       0.859252        23.3814 
 301   0.0000       0.860071        23.4037 
 302   0.0000       0.864559        23.5258 
 303   0.0000       0.874096        23.7854 
 304   0.0000       0.877976        23.8909 
 305   0.0000       0.882214        24.0063 
 306   0.0000       0.884861        24.0783 
 307   0.0000       0.889669        24.2091 
 308   0.0000       0.895443        24.3663 
 309   0.0000       0.904799        24.6208 
 310   0.0000       0.909521        24.7493 
 311   0.0000       0.912137        24.8205 
 312   0.0000       0.912890        24.8410 
 313   0.0000       0.915613        24.9151 
 314   0.0000       0.919849        25.0304 
 315   0.0000       0.925998        25.1977 
 316   0.0000       0.929877        25.3032 
 317   0.0000       0.931279        25.3414 
 318   0.0000       0.939960        25.5776 
 319   0.0000       0.940389        25.5893 
 320   0.0000       0.944390        25.6982 
 321   0.0000       0.946676        25.7604 
 322   0.0000       0.948303        25.8046 
 323   0.0000       0.952448        25.9174 
 324   0.0000       0.955947        26.0126 
 325   0.0000       0.957203        26.0468 
 326   0.0000       0.964636        26.2491 
 327   0.0000       0.969142        26.3717 
 328   0.0000       0.971773        26.4433 
 329   0.0000       0.973455        26.4891 
 330   0.0000       0.974328        26.5128 
 331   0.0000       0.979941        26.6655 
 332   0.0000       0.983798        26.7705 
 333   0.0000       0.986026        26.8311 
 334   0.0000       0.990731        26.9592 
 335   0.0000       0.996588        27.1185 
 336   0.0000       1.002909        27.2905 
 337   0.0000       1.006189        27.3798 
 338   0.0000       1.008552        27.4441 
 339   0.0000       1.010438        27.4954 
 340   0.0000       1.014729        27.6122 
 341   0.0000       1.018171        27.7058 
 342   0.0000       1.020364        27.7655 
 343   0.0000       1.025604        27.9081 
 344   0.0000       1.028555        27.9884 
 345   0.0000       1.030783        28.0490 
 346   0.0000       1.036295        28.1990 
 347   0.0000       1.038405        28.2564 
 348   0.0000       1.045256        28.4429 
 349   0.0000       1.045798        28.4576 
 350   0.0000       1.049955        28.5707 
 351   0.0000       1.052789        28.6478 
 352   0.0000       1.056197        28.7406 
 353   0.0000       1.063204        28.9313 
 354   0.0000       1.065316        28.9887 
 355   0.0000       1.069598        29.1052 
 356   0.0000       1.072628        29.1877 
 357   0.0000       1.080254        29.3952 
 358   0.0000       1.083263        29.4771 
 359   0.0000       1.086398        29.5624 
 360   0.0000       1.087772        29.5998 
 361   0.0000       1.091746        29.7079 
 362   0.0000       1.096705        29.8428 
 363   0.0000       1.102294        29.9949 
 364   0.0000       1.102836        30.0097 
 365   0.0000       1.106263        30.1030 
 366   0.0000       1.114127        30.3169 
 367   0.0000       1.116197        30.3733 
 368   0.0000       1.121318        30.5126 
 369   0.0000       1.123740        30.5785 
 370   0.0000       1.131301        30.7843 
 371   0.0000       1.134241        30.8643 
 372   0.0000       1.140571        31.0365 
 373   0.0000       1.142766        31.0962 
 374   0.0000       1.143826        31.1251 
 375   0.0000       1.151451        31.3326 
 376   0.0000       1.152505        31.3613 
 377   0.0000       1.159754        31.5585 
 378   0.0000       1.165803        31.7231 
 379   0.0000       1.173102        31.9217 
 380   0.0000       1.175724        31.9931 
 381   0.0000       1.178164        32.0595 
 382   0.0000       1.182561        32.1791 
 383   0.0000       1.188638        32.3445 
 384   0.0000       1.193303        32.4714 
 385   0.0000       1.200123        32.6570 
 386   0.0000       1.201117        32.6841 
 387   0.0000       1.206664        32.8350 
 388   0.0000       1.210012        32.9261 
 389   0.0000       1.214517        33.0487 
 390   0.0000       1.220842        33.2208 
 391   0.0000       1.227370        33.3984 
 392   0.0000       1.230935        33.4954 
 393   0.0000       1.235550        33.6210 
 394   0.0000       1.239956        33.7409 
 395   0.0000       1.241911        33.7941 
 396   0.0000       1.249078        33.9891 
 397   0.0000       1.255258        34.1573 
 398   0.0000       1.258100        34.2346 
 399   0.0000       1.263133        34.3716 
 400   0.0000       1.267528        34.4912 
 401   0.0000       1.270066        34.5603 
 402   0.0000       1.276066        34.7235 
 403   0.0000       1.280949        34.8564 
 404   0.0000       1.285768        34.9875 
 405   0.0000       1.292913        35.1820 
 406   0.0000       1.297488        35.3064 
 407   0.0000       1.302501        35.4428 
 408   0.0000       1.305830        35.5334 
 409   0.0000       1.308880        35.6164 
 410   0.0000       1.312137        35.7051 
 411   0.0000       1.316364        35.8201 
 412   0.0000       1.318574        35.8802 
 413   0.0000       1.324156        36.0321 
 414   0.0000       1.335520        36.3413 
 415   0.0000       1.336829        36.3770 
 416   0.0000       1.341245        36.4971 
 417   0.0000       1.353084        36.8193 
 418   0.0000       1.354642        36.8617 
 419   0.0000       1.364369        37.1264 
 420   0.0000       1.367665        37.2161 
 421   0.0000       1.376689        37.4616 
 422   0.0000       1.379164        37.5290 
 423   0.0000       1.381805        37.6008 
 424   0.0000       1.384347        37.6700 
 425   0.0000       1.387302        37.7504 
 426   0.0000       1.395463        37.9725 
 427   0.0000       1.396076        37.9891 
 428   0.0000       1.404920        38.2298 
 429   0.0000       1.410297        38.3761 
 430   0.0000       1.417456        38.5709 
 431   0.0000       1.424497        38.7625 
 432   0.0000       1.430516        38.9263 
 433   0.0000       1.434612        39.0378 
 434   0.0000       1.440712        39.2038 
 435   0.0000       1.452845        39.5339 
 436   0.0000       1.454112        39.5684 
 437   0.0000       1.458482        39.6873 
 438   0.0000       1.466398        39.9027 
 439   0.0000       1.468560        39.9616 
 440   0.0000       1.469523        39.9877 
 441   0.0000       1.472297        40.0632 
 442   0.0000       1.476982        40.1907 
 443   0.0000       1.486706        40.4553 
 444   0.0000       1.489679        40.5362 
 445   0.0000       1.492918        40.6244 
 446   0.0000       1.493602        40.6430 
 447   0.0000       1.502250        40.8783 
 448   0.0000       1.504624        40.9429 
 449   0.0000       1.510618        41.1060 
 450   0.0000       1.519474        41.3470 
 451   0.0000       1.524844        41.4931 
 452   0.0000       1.530656        41.6513 
 453   0.0000       1.536607        41.8132 
 454   0.0000       1.540837        41.9283 
 455   0.0000       1.544923        42.0395 
 456   0.0000       1.552716        42.2515 
 457   0.0000       1.559727        42.4423 
 458   0.0000       1.565250        42.5926 
 459   0.0000       1.566826        42.6355 
 460   0.0000       1.570590        42.7379 
 461   0.0000       1.576946        42.9109 
 462   0.0000       1.588105        43.2145 
 463   0.0000       1.590818        43.2884 
 464   0.0000       1.593390        43.3584 
 465   0.0000       1.597757        43.4772 
 466   0.0000       1.604024        43.6477 
 467   0.0000       1.608394        43.7666 
 468   0.0000       1.616309        43.9820 
 469   0.0000       1.621149        44.1137 
 470   0.0000       1.625789        44.2400 
 471   0.0000       1.634473        44.4763 
 472   0.0000       1.639680        44.6180 
 473   0.0000       1.646743        44.8102 
 474   0.0000       1.649480        44.8846 
 475   0.0000       1.654269        45.0150 
 476   0.0000       1.664409        45.2909 
 477   0.0000       1.666058        45.3357 
 478   0.0000       1.673818        45.5469 
 479   0.0000       1.679616        45.7047 
 480   0.0000       1.683026        45.7975 
 481   0.0000       1.694727        46.1159 
 482   0.0000       1.696892        46.1748 
 483   0.0000       1.704052        46.3696 
 484   0.0000       1.706155        46.4268 
 485   0.0000       1.709063        46.5060 
 486   0.0000       1.715426        46.6791 
 487   0.0000       1.723462        46.8978 
 488   0.0000       1.726186        46.9719 
 489   0.0000       1.731443        47.1150 
 490   0.0000       1.732258        47.1371 
 491   0.0000       1.740442        47.3598 
 492   0.0000       1.749390        47.6033 
 493   0.0000       1.753925        47.7267 
 494   0.0000       1.759034        47.8658 
 495   0.0000       1.762892        47.9707 
 496   0.0000       1.764567        48.0163 
 497   0.0000       1.767341        48.0918 
 498   0.0000       1.771781        48.2126 
 499   0.0000       1.780889        48.4605 
 500   0.0000       1.787333        48.6358 
 501   0.0000       1.796101        48.8744 
 502   0.0000       1.799209        48.9590 
 503   0.0000       1.802018        49.0354 
 504   0.0000       1.806236        49.1502 
 505   0.0000       1.816177        49.4207 
 506   0.0000       1.818291        49.4782 
 507   0.0000       1.824795        49.6552 
 508   0.0000       1.831685        49.8427 
 509   0.0000       1.832236        49.8577 
 510   0.0000       1.837983        50.0141 
 511   0.0000       1.842529        50.1378 
 512   0.0000       1.847228        50.2656 
 513   0.0000       1.850508        50.3549 
 514   0.0000       1.860035        50.6141 
 515   0.0000       1.863169        50.6994 
 516   0.0000       1.869948        50.8839 
 517   0.0000       1.877105        51.0786 
 518   0.0000       1.878704        51.1221 
 519   0.0000       1.884694        51.2851 
 520   0.0000       1.890029        51.4303 
 521   0.0000       1.898294        51.6552 
 522   0.0000       1.907303        51.9004 
 523   0.0000       1.911770        52.0219 
 524   0.0000       1.913766        52.0762 
 525   0.0000       1.918964        52.2177 
 526   0.0000       1.926369        52.4192 
 527   0.0000       1.926864        52.4326 
 528   0.0000       1.932952        52.5983 
 529   0.0000       1.937314        52.7170 
 530   0.0000       1.940752        52.8106 
 531   0.0000       1.947399        52.9914 
 532   0.0000       1.953345        53.1532 
 533   0.0000       1.956566        53.2409 
 534   0.0000       1.963504        53.4297 
 535   0.0000       1.969682        53.5978 
 536   0.0000       1.976378        53.7800 
 537   0.0000       1.985486        54.0278 
 538   0.0000       1.993640        54.2497 
 539   0.0000       1.998434        54.3801 
 540   0.0000       2.006280        54.5937 
 541   0.0000       2.009905        54.6923 
 542   0.0000       2.011190        54.7273 
 543   0.0000       2.025790        55.1246 
 544   0.0000       2.029391        55.2225 
 545   0.0000       2.031803        55.2882 
 546   0.0000       2.038797        55.4785 
 547   0.0000       2.048422        55.7404 
 548   0.0000       2.052456        55.8502 
 549   0.0000       2.058398        56.0119 
 550   0.0000       2.064973        56.1908 
 551   0.0000       2.072639        56.3994 
 552   0.0000       2.088121        56.8207 
 553   0.0000       2.090850        56.8949 
 554   0.0000       2.097313        57.0708 
 555   0.0000       2.102871        57.2220 
 556   0.0000       2.108575        57.3773 
 557   0.0000       2.116983        57.6060 
 558   0.0000       2.120037        57.6891 
 559   0.0000       2.129316        57.9416 
 560   0.0000       2.132868        58.0383 
 561   0.0000       2.145786        58.3898 
 562   0.0000       2.150079        58.5066 
 563   0.0000       2.154160        58.6177 
 564   0.0000       2.158643        58.7397 
 565   0.0000       2.163122        58.8615 
 566   0.0000       2.174009        59.1578 
 567   0.0000       2.182421        59.3867 
 568   0.0000       2.190918        59.6179 
 569   0.0000       2.197620        59.8003 
 570   0.0000       2.201551        59.9073 
 571   0.0000       2.204364        59.9838 
 572   0.0000       2.220014        60.4096 
 573   0.0000       2.225364        60.5552 
 574   0.0000       2.231185        60.7136 
 575   0.0000       2.233611        60.7796 
 576   0.0000       2.246769        61.1377 
 577   0.0000       2.252219        61.2860 
 578   0.0000       2.253770        61.3282 
 579   0.0000       2.265867        61.6574 
 580   0.0000       2.270634        61.7871 
 581   0.0000       2.275113        61.9090 
 582   0.0000       2.284894        62.1751 
 583   0.0000       2.296487        62.4906 
 584   0.0000       2.311804        62.9074 
 585   0.0000       2.313808        62.9619 
 586   0.0000       2.319158        63.1075 
 587   0.0000       2.328381        63.3585 
 588   0.0000       2.332695        63.4759 
 589   0.0000       2.345961        63.8368 
 590   0.0000       2.350847        63.9698 
 591   0.0000       2.358707        64.1837 
 592   0.0000       2.369839        64.4866 
 593   0.0000       2.378623        64.7256 
 594   0.0000       2.385364        64.9091 
 595   0.0000       2.392878        65.1135 
 596   0.0000       2.394552        65.1591 
 597   0.0000       2.399634        65.2974 
 598   0.0000       2.405719        65.4629 
 599   0.0000       2.411524        65.6209 
 600   0.0000       2.423793        65.9548 
 601   0.0000       2.437572        66.3297 
 602   0.0000       2.440191        66.4010 
 603   0.0000       2.445480        66.5449 
 604   0.0000       2.455922        66.8290 
 605   0.0000       2.471162        67.2437 
 606   0.0000       2.484247        67.5998 
 607   0.0000       2.495143        67.8963 
 608   0.0000       2.498245        67.9807 
 609   0.0000       2.508824        68.2686 
 610   0.0000       2.521272        68.6073 
 611   0.0000       2.537600        69.0516 
 612   0.0000       2.540773        69.1379 
 613   0.0000       2.552501        69.4571 
 614   0.0000       2.566417        69.8358 
 615   0.0000       2.579639        70.1956 
 616   0.0000       2.592670        70.5501 
 617   0.0000       2.594212        70.5921 
 618   0.0000       2.627240        71.4908 
 619   0.0000       2.636727        71.7490 
 620   0.0000       2.646976        72.0279 
 621   0.0000       2.651596        72.1536 
 622   0.0000       2.661305        72.4178 
 623   0.0000       2.670134        72.6581 
 624   0.0000       2.675721        72.8101 
 625   0.0000       2.683690        73.0269 
 626   0.0000       2.689774        73.1925 
 627   0.0000       2.698542        73.4311 
 628   0.0000       2.711357        73.7798 
 629   0.0000       2.719016        73.9882 
 630   0.0000       2.722876        74.0932 
 631   0.0000       2.739610        74.5486 
 632   0.0000       2.745570        74.7107 
 633   0.0000       2.761207        75.1363 
 634   0.0000       2.762598        75.1741 
 635   0.0000       2.775706        75.5308 
 636   0.0000       2.781361        75.6847 
 637   0.0000       2.784526        75.7708 
 638   0.0000       2.794688        76.0473 
 639   0.0000       2.819139        76.7127 
 640   0.0000       2.825286        76.8800 
 641   0.0000       2.842516        77.3488 
 642   0.0000       2.848224        77.5041 
 643   0.0000       2.859315        77.8059 
 644   0.0000       2.875066        78.2345 
 645   0.0000       2.891191        78.6733 
 646   0.0000       2.896422        78.8157 
 647   0.0000       2.907364        79.1134 
 648   0.0000       2.913540        79.2815 
 649   0.0000       2.927764        79.6685 
 650   0.0000       2.939601        79.9906 
 651   0.0000       2.953252        80.3621 
 652   0.0000       2.972963        80.8984 
 653   0.0000       2.982784        81.1657 
 654   0.0000       3.009180        81.8840 
 655   0.0000       3.013202        81.9934 
 656   0.0000       3.027326        82.3777 
 657   0.0000       3.049887        82.9916 
 658   0.0000       3.066486        83.4433 
 659   0.0000       3.077958        83.7555 
 660   0.0000       3.084781        83.9412 
 661   0.0000       3.102946        84.4355 
 662   0.0000       3.116712        84.8100 
 663   0.0000       3.126884        85.0868 
 664   0.0000       3.143258        85.5324 
 665   0.0000       3.156291        85.8870 
 666   0.0000       3.172205        86.3201 
 667   0.0000       3.179594        86.5212 
 668   0.0000       3.200627        87.0935 
 669   0.0000       3.201037        87.1047 
 670   0.0000       3.214033        87.4583 
 671   0.0000       3.221018        87.6484 
 672   0.0000       3.226362        87.7938 
 673   0.0000       3.245950        88.3268 
 674   0.0000       3.251157        88.4685 
 675   0.0000       3.257827        88.6500 
 676   0.0000       3.266823        88.8948 
 677   0.0000       3.273625        89.0799 
 678   0.0000       3.281841        89.3034 
 679   0.0000       3.289575        89.5139 
 680   0.0000       3.293670        89.6253 
 681   0.0000       3.312390        90.1347 
 682   0.0000       3.331139        90.6449 
 683   0.0000       3.332292        90.6763 
 684   0.0000       3.335422        90.7614 
 685   0.0000       3.350694        91.1770 
 686   0.0000       3.364407        91.5502 
 687   0.0000       3.382074        92.0309 
 688   0.0000       3.391834        92.2965 
 689   0.0000       3.399150        92.4956 
 690   0.0000       3.416161        92.9585 
 691   0.0000       3.424606        93.1883 
 692   0.0000       3.429922        93.3329 
 693   0.0000       3.434569        93.4594 
 694   0.0000       3.439092        93.5824 
 695   0.0000       3.453293        93.9689 
 696   0.0000       3.463541        94.2477 
 697   0.0000       3.475009        94.5598 
 698   0.0000       3.479181        94.6733 
 699   0.0000       3.483177        94.7821 
 700   0.0000       3.490114        94.9708 
 701   0.0000       3.500302        95.2481 
 702   0.0000       3.505941        95.4015 
 703   0.0000       3.513829        95.6161 
 704   0.0000       3.522801        95.8603 
 705   0.0000       3.529060        96.0306 
 706   0.0000       3.543181        96.4149 
 707   0.0000       3.551172        96.6323 
 708   0.0000       3.555072        96.7384 
 709   0.0000       3.564515        96.9954 
 710   0.0000       3.573243        97.2329 
 711   0.0000       3.583706        97.5176 
 712   0.0000       3.586813        97.6021 
 713   0.0000       3.594193        97.8030 
 714   0.0000       3.604549        98.0848 
 715   0.0000       3.611798        98.2820 
 716   0.0000       3.629943        98.7758 
 717   0.0000       3.637084        98.9701 
 718   0.0000       3.647068        99.2418 
 719   0.0000       3.649765        99.3152 
 720   0.0000       3.659948        99.5923 
 721   0.0000       3.669507        99.8523 
 722   0.0000       3.678079       100.0856 
 723   0.0000       3.682762       100.2130 
 724   0.0000       3.682952       100.2182 
 725   0.0000       3.696936       100.5988 
 726   0.0000       3.701878       100.7332 
 727   0.0000       3.708022       100.9004 
 728   0.0000       3.716037       101.1185 
 729   0.0000       3.729449       101.4835 
 730   0.0000       3.739097       101.7460 
 731   0.0000       3.741649       101.8155 
 732   0.0000       3.746672       101.9521 
 733   0.0000       3.748316       101.9969 
 734   0.0000       3.757612       102.2498 
 735   0.0000       3.767935       102.5307 
 736   0.0000       3.774261       102.7029 
 737   0.0000       3.786658       103.0402 
 738   0.0000       3.789978       103.1305 
 739   0.0000       3.794077       103.2421 
 740   0.0000       3.805662       103.5573 
 741   0.0000       3.809590       103.6642 
 742   0.0000       3.812191       103.7350 
 743   0.0000       3.823844       104.0521 
 744   0.0000       3.826748       104.1311 
 745   0.0000       3.838741       104.4575 
 746   0.0000       3.841436       104.5308 
 747   0.0000       3.861040       105.0642 
 748   0.0000       3.864473       105.1577 
 749   0.0000       3.871852       105.3585 
 750   0.0000       3.875450       105.4564 
 751   0.0000       3.882635       105.6519 
 752   0.0000       3.886764       105.7642 
 753   0.0000       3.899863       106.1207 
 754   0.0000       3.905570       106.2760 
 755   0.0000       3.912490       106.4643 
 756   0.0000       3.917014       106.5874 
 757   0.0000       3.919408       106.6525 
 758   0.0000       3.926437       106.8438 
 759   0.0000       3.939114       107.1887 
 760   0.0000       3.949412       107.4690 
 761   0.0000       3.953499       107.5802 
 762   0.0000       3.955005       107.6212 
 763   0.0000       3.967212       107.9533 
 764   0.0000       3.971842       108.0793 
 765   0.0000       3.982246       108.3624 
 766   0.0000       3.988776       108.5401 
 767   0.0000       3.991793       108.6222 
 768   0.0000       4.000621       108.8624 
 769   0.0000       4.008665       109.0813 
 770   0.0000       4.013433       109.2111 
 771   0.0000       4.016581       109.2967 
 772   0.0000       4.032038       109.7173 
 773   0.0000       4.037600       109.8687 
 774   0.0000       4.043337       110.0248 
 775   0.0000       4.051789       110.2548 
 776   0.0000       4.056110       110.3724 
 777   0.0000       4.064651       110.6048 
 778   0.0000       4.076986       110.9404 
 779   0.0000       4.081896       111.0740 
 780   0.0000       4.087622       111.2299 
 781   0.0000       4.098042       111.5134 
 782   0.0000       4.113376       111.9307 
 783   0.0000       4.118408       112.0676 
 784   0.0000       4.120289       112.1188 
 785   0.0000       4.124406       112.2308 
 786   0.0000       4.134204       112.4974 
 787   0.0000       4.140766       112.6760 
 788   0.0000       4.151593       112.9706 
 789   0.0000       4.162180       113.2587 
 790   0.0000       4.168126       113.4205 
 791   0.0000       4.172636       113.5432 
 792   0.0000       4.182719       113.8176 
 793   0.0000       4.188626       113.9783 
 794   0.0000       4.201676       114.3334 
 795   0.0000       4.212645       114.6319 
 796   0.0000       4.218952       114.8035 
 797   0.0000       4.222939       114.9120 
 798   0.0000       4.227710       115.0418 
 799   0.0000       4.244587       115.5011 
 800   0.0000       4.252958       115.7289 
 801   0.0000       4.260811       115.9426 
 802   0.0000       4.269557       116.1805 
 803   0.0000       4.280122       116.4680 
 804   0.0000       4.288031       116.6833 
 805   0.0000       4.300620       117.0258 
 806   0.0000       4.305680       117.1635 
 807   0.0000       4.317218       117.4775 
 808   0.0000       4.323954       117.6608 
 809   0.0000       4.338206       118.0486 
 810   0.0000       4.343766       118.1999 
 811   0.0000       4.349697       118.3613 
 812   0.0000       4.367235       118.8385 
 813   0.0000       4.372997       118.9953 
 814   0.0000       4.387560       119.3916 
 815   0.0000       4.391096       119.4878 
 816   0.0000       4.403942       119.8374 
 817   0.0000       4.415797       120.1600 
 818   0.0000       4.426570       120.4531 
 819   0.0000       4.437772       120.7579 
 820   0.0000       4.445282       120.9623 
 821   0.0000       4.452224       121.1512 
 822   0.0000       4.458856       121.3316 
 823   0.0000       4.464891       121.4958 
 824   0.0000       4.481132       121.9378 
 825   0.0000       4.491364       122.2162 
 826   0.0000       4.498477       122.4098 
 827   0.0000       4.504260       122.5672 
 828   0.0000       4.514599       122.8485 
 829   0.0000       4.524660       123.1223 
 830   0.0000       4.527116       123.1891 
 831   0.0000       4.536524       123.4451 
 832   0.0000       4.543097       123.6240 
 833   0.0000       4.546542       123.7177 
 834   0.0000       4.556218       123.9810 
 835   0.0000       4.581407       124.6664 
 836   0.0000       4.586916       124.8163 
 837   0.0000       4.601570       125.2151 
 838   0.0000       4.618857       125.6855 
 839   0.0000       4.625505       125.8664 
 840   0.0000       4.631614       126.0326 
 841   0.0000       4.652678       126.6058 
 842   0.0000       4.656674       126.7145 
 843   0.0000       4.666821       126.9906 
 844   0.0000       4.680141       127.3531 
 845   0.0000       4.691846       127.6716 
 846   0.0000       4.699922       127.8914 
 847   0.0000       4.703846       127.9981 
 848   0.0000       4.710219       128.1716 
 849   0.0000       4.724135       128.5503 
 850   0.0000       4.743276       129.0711 
 851   0.0000       4.745123       129.1214 
 852   0.0000       4.761369       129.5634 
 853   0.0000       4.779974       130.0697 
 854   0.0000       4.805065       130.7525 
 855   0.0000       4.812991       130.9681 
 856   0.0000       4.819257       131.1386 
 857   0.0000       4.825013       131.2953 
 858   0.0000       4.830024       131.4316 
 859   0.0000       4.856939       132.1640 
 860   0.0000       4.860072       132.2493 
 861   0.0000       4.885172       132.9323 
 862   0.0000       4.893968       133.1716 
 863   0.0000       4.898494       133.2948 
 864   0.0000       4.906442       133.5111 
 865   0.0000       4.914530       133.7312 
 866   0.0000       4.922989       133.9613 
 867   0.0000       4.933418       134.2451 
 868   0.0000       4.957602       134.9032 
 869   0.0000       4.965448       135.1167 
 870   0.0000       4.970058       135.2422 
 871   0.0000       4.983866       135.6179 
 872   0.0000       4.991824       135.8345 
 873   0.0000       4.993358       135.8762 
 874   0.0000       5.005853       136.2162 
 875   0.0000       5.023447       136.6949 
 876   0.0000       5.034834       137.0048 
 877   0.0000       5.043716       137.2465 
 878   0.0000       5.047567       137.3513 
 879   0.0000       5.065014       137.8260 
 880   0.0000       5.077691       138.1710 
 881   0.0000       5.100464       138.7907 
 882   0.0000       5.105080       138.9163 
 883   0.0000       5.113761       139.1525 
 884   0.0000       5.123701       139.4230 
 885   0.0000       5.152640       140.2105 
 886   0.0000       5.163529       140.5068 
 887   0.0000       5.180036       140.9559 
 888   0.0000       5.181316       140.9908 
 889   0.0000       5.196178       141.3952 
 890   0.0000       5.208076       141.7190 
 891   0.0000       5.217841       141.9847 
 892   0.0000       5.223039       142.1261 
 893   0.0000       5.245731       142.7436 
 894   0.0000       5.254238       142.9751 
 895   0.0000       5.267270       143.3297 
 896   0.0000       5.275286       143.5478 
 897   0.0000       5.284289       143.7928 
 898   0.0000       5.294537       144.0717 
 899   0.0000       5.309661       144.4832 
 900   0.0000       5.323674       144.8645 
 901   0.0000       5.339110       145.2846 
 902   0.0000       5.358370       145.8087 
 903   0.0000       5.365022       145.9897 
 904   0.0000       5.379295       146.3781 
 905   0.0000       5.393401       146.7619 
 906   0.0000       5.404095       147.0529 
 907   0.0000       5.427492       147.6896 
 908   0.0000       5.432876       147.8361 
 909   0.0000       5.436330       147.9301 
 910   0.0000       5.446455       148.2056 
 911   0.0000       5.457362       148.5024 
 912   0.0000       5.461161       148.6057 
 913   0.0000       5.483276       149.2075 
 914   0.0000       5.504543       149.7862 
 915   0.0000       5.510108       149.9377 
 916   0.0000       5.522569       150.2767 
 917   0.0000       5.546065       150.9161 
 918   0.0000       5.550958       151.0492 
 919   0.0000       5.561413       151.3338 
 920   0.0000       5.571055       151.5961 
 921   0.0000       5.583311       151.9296 
 922   0.0000       5.594550       152.2355 
 923   0.0000       5.614385       152.7752 
 924   0.0000       5.622742       153.0026 
 925   0.0000       5.627691       153.1372 
 926   0.0000       5.640817       153.4944 
 927   0.0000       5.651883       153.7956 
 928   0.0000       5.655812       153.9025 
 929   0.0000       5.672408       154.3541 
 930   0.0000       5.699456       155.0901 
 931   0.0000       5.706684       155.2868 
 932   0.0000       5.712013       155.4318 
 933   0.0000       5.730354       155.9309 
 934   0.0000       5.739881       156.1901 
 935   0.0000       5.746076       156.3587 
 936   0.0000       5.756160       156.6331 
 937   0.0000       5.768648       156.9729 
 938   0.0000       5.786363       157.4549 
 939   0.0000       5.797837       157.7672 
 940   0.0000       5.821385       158.4079 
 941   0.0000       5.862293       159.5211 
 942   0.0000       5.868158       159.6807 
 943   0.0000       5.899217       160.5258 
 944   0.0000       5.943286       161.7250 
 945   0.0000       5.974163       162.5652 
 946   0.0000       6.055015       164.7653 
 947   0.0000       6.071213       165.2061 
 948   0.0000       6.092785       165.7931 
 949   0.0000       6.100153       165.9936 
 950   0.0000       6.144997       167.2139 
 951   0.0000       6.150442       167.3620 
 952   0.0000       6.180541       168.1811 
 953   0.0000       6.193195       168.5254 
 954   0.0000       6.206396       168.8846 
 955   0.0000       6.220617       169.2716 
 956   0.0000       6.240348       169.8085 
 957   0.0000       6.250290       170.0790 
 958   0.0000       6.256725       170.2542 
 959   0.0000       6.270894       170.6397 
 960   0.0000       6.284961       171.0225 
 961   0.0000       6.303341       171.5226 
 962   0.0000       6.319193       171.9540 
 963   0.0000       6.331481       172.2883 
 964   0.0000       6.343120       172.6051 
 965   0.0000       6.354422       172.9126 
 966   0.0000       6.384259       173.7245 
 967   0.0000       6.399533       174.1401 
 968   0.0000       6.456356       175.6864 
 969   0.0000       6.515899       177.3066 
 970   0.0000       6.584090       179.1622 
 971   0.0000       6.628792       180.3786 
 972   0.0000       6.803513       185.1330 
 973   0.0000       6.826633       185.7621 
 974   0.0000       6.838815       186.0936 
 975   0.0000       6.874330       187.0600 
 976   0.0000       6.903557       187.8553 
 977   0.0000       6.928543       188.5352 
 978   0.0000       6.944674       188.9742 
 979   0.0000       6.973630       189.7621 
 980   0.0000       6.991475       190.2477 
 981   0.0000       7.005986       190.6426 
 982   0.0000       7.024618       191.1496 
 983   0.0000       7.044734       191.6969 
 984   0.0000       7.059555       192.1002 
 985   0.0000       7.106756       193.3847 
 986   0.0000       7.221410       196.5046 
 987   0.0000       7.273934       197.9338 
 988   0.0000       7.314921       199.0491 
 989   0.0000       7.359977       200.2752 
 990   0.0000       7.496353       203.9861 
 991   0.0000       7.555922       205.6071 
 992   0.0000       7.595131       206.6740 
 993   0.0000       7.684632       209.1095 
 994   0.0000       7.741675       210.6617 
 995   0.0000       7.827887       213.0076 
 996   0.0000       7.893088       214.7818 
 997   0.0000       7.979710       217.1389 
 998   0.0000       8.239918       224.2196 
 999   0.0000       9.397912       255.7302 
 1000   0.0000       9.404165       255.9004 
 1001   0.0000       9.427440       256.5337 
 1002   0.0000       9.442409       256.9410 
 1003   0.0000       9.449729       257.1402 
 1004   0.0000       9.477616       257.8990 
 1005   0.0000       9.640562       262.3330 
 1006   0.0000      10.081155       274.3222 
 1007   0.0000      10.083292       274.3803 
 1008   0.0000      10.096699       274.7452 
 1009   0.0000      10.196593       277.4634 
 1010   0.0000      10.205680       277.7107 
 1011   0.0000      10.235504       278.5222 
 1012   0.0000      10.319208       280.7999 
 1013   0.0000      10.368868       282.1513 
 1014   0.0000      10.402930       283.0781 
 1015   0.0000      10.683217       290.7051 
 1016   0.0000      16.568760       450.8589 
 1017   0.0000      17.480399       475.6658 
 1018   0.0000      18.067045       491.6293 
 1019   0.0000      18.375278       500.0167 
 1020   0.0000      18.499484       503.3966 
 1021   0.0000      18.618802       506.6434 
 1022   0.0000      20.375375       554.4422 
 1023   0.0000      21.261029       578.5420 
 1024   0.0000      21.583485       587.3165 

                 SPIN DOWN ORBITALS
  NO   OCC          E(Eh)            E(eV) 
   0   1.0000    -261.572812     -7117.7581 
   1   1.0000    -104.792958     -2851.5614 
   2   1.0000    -104.789587     -2851.4696 
   3   1.0000    -104.787503     -2851.4129 
   4   1.0000     -32.082108      -872.9985 
   5   1.0000     -27.560039      -749.9468 
   6   1.0000     -27.559943      -749.9442 
   7   1.0000     -27.559848      -749.9416 
   8   1.0000     -20.618793      -561.0659 
   9   1.0000     -11.421792      -310.8028 
  10   1.0000     -11.278047      -306.8913 
  11   1.0000     -11.272720      -306.7463 
  12   1.0000     -11.265543      -306.5510 
  13   1.0000     -11.243153      -305.9417 
  14   1.0000     -11.242504      -305.9241 
  15   1.0000     -11.235813      -305.7420 
  16   1.0000     -11.228687      -305.5481 
  17   1.0000     -10.519581      -286.2523 
  18   1.0000     -10.516175      -286.1597 
  19   1.0000     -10.514050      -286.1018 
  20   1.0000      -7.985504      -217.2966 
  21   1.0000      -7.984757      -217.2763 
  22   1.0000      -7.984720      -217.2753 
  23   1.0000      -7.982056      -217.2028 
  24   1.0000      -7.981365      -217.1840 
  25   1.0000      -7.981274      -217.1815 
  26   1.0000      -7.980042      -217.1480 
  27   1.0000      -7.979140      -217.1234 
  28   1.0000      -7.979057      -217.1212 
  29   1.0000      -4.156871      -113.1142 
  30   1.0000      -2.678414       -72.8833 
  31   1.0000      -2.678392       -72.8828 
  32   1.0000      -2.677940       -72.8704 
  33   1.0000      -1.457343       -39.6563 
  34   1.0000      -1.124607       -30.6021 
  35   1.0000      -1.099064       -29.9070 
  36   1.0000      -1.051894       -28.6235 
  37   1.0000      -1.039312       -28.2811 
  38   1.0000      -1.035961       -28.1899 
  39   1.0000      -1.020791       -27.7771 
  40   1.0000      -1.008900       -27.4536 
  41   1.0000      -0.957418       -26.0527 
  42   1.0000      -0.895231       -24.3605 
  43   1.0000      -0.827754       -22.5243 
  44   1.0000      -0.728414       -19.8212 
  45   1.0000      -0.715165       -19.4606 
  46   1.0000      -0.702395       -19.1131 
  47   1.0000      -0.683757       -18.6060 
  48   1.0000      -0.653908       -17.7937 
  49   1.0000      -0.620877       -16.8949 
  50   1.0000      -0.619958       -16.8699 
  51   1.0000      -0.604499       -16.4493 
  52   1.0000      -0.599589       -16.3156 
  53   1.0000      -0.585780       -15.9399 
  54   1.0000      -0.577689       -15.7197 
  55   1.0000      -0.560159       -15.2427 
  56   1.0000      -0.550508       -14.9801 
  57   1.0000      -0.544974       -14.8295 
  58   1.0000      -0.539443       -14.6790 
  59   1.0000      -0.527030       -14.3412 
  60   1.0000      -0.523639       -14.2489 
  61   1.0000      -0.506246       -13.7757 
  62   1.0000      -0.491748       -13.3811 
  63   1.0000      -0.485819       -13.2198 
  64   1.0000      -0.483201       -13.1486 
  65   1.0000      -0.454603       -12.3704 
  66   1.0000      -0.451334       -12.2814 
  67   1.0000      -0.448357       -12.2004 
  68   1.0000      -0.432020       -11.7559 
  69   1.0000      -0.429659       -11.6916 
  70   1.0000      -0.413802       -11.2601 
  71   1.0000      -0.358289        -9.7495 
  72   0.0000       0.012621         0.3434 
  73   0.0000       0.023655         0.6437 
  74   0.0000       0.024326         0.6620 
  75   0.0000       0.030619         0.8332 
  76   0.0000       0.039234         1.0676 
  77   0.0000       0.041130         1.1192 
  78   0.0000       0.042739         1.1630 
  79   0.0000       0.043117         1.1733 
  80   0.0000       0.044235         1.2037 
  81   0.0000       0.054123         1.4728 
  82   0.0000       0.056686         1.5425 
  83   0.0000       0.061362         1.6697 
  84   0.0000       0.062973         1.7136 
  85   0.0000       0.064135         1.7452 
  86   0.0000       0.064751         1.7620 
  87   0.0000       0.071485         1.9452 
  88   0.0000       0.077310         2.1037 
  89   0.0000       0.082377         2.2416 
  90   0.0000       0.089524         2.4361 
  91   0.0000       0.091511         2.4901 
  92   0.0000       0.093691         2.5495 
  93   0.0000       0.095639         2.6025 
  94   0.0000       0.100492         2.7345 
  95   0.0000       0.103150         2.8068 
  96   0.0000       0.103890         2.8270 
  97   0.0000       0.106197         2.8898 
  98   0.0000       0.106859         2.9078 
  99   0.0000       0.108573         2.9544 
 100   0.0000       0.111246         3.0272 
 101   0.0000       0.114961         3.1282 
 102   0.0000       0.119802         3.2600 
 103   0.0000       0.122055         3.3213 
 104   0.0000       0.123906         3.3716 
 105   0.0000       0.125621         3.4183 
 106   0.0000       0.126797         3.4503 
 107   0.0000       0.129215         3.5161 
 108   0.0000       0.132094         3.5945 
 109   0.0000       0.133786         3.6405 
 110   0.0000       0.137166         3.7325 
 111   0.0000       0.138809         3.7772 
 112   0.0000       0.144238         3.9249 
 113   0.0000       0.146683         3.9914 
 114   0.0000       0.150742         4.1019 
 115   0.0000       0.151889         4.1331 
 116   0.0000       0.156922         4.2701 
 117   0.0000       0.162352         4.4178 
 118   0.0000       0.162725         4.4280 
 119   0.0000       0.167499         4.5579 
 120   0.0000       0.170704         4.6451 
 121   0.0000       0.171921         4.6782 
 122   0.0000       0.175442         4.7740 
 123   0.0000       0.181316         4.9339 
 124   0.0000       0.183108         4.9826 
 125   0.0000       0.186741         5.0815 
 126   0.0000       0.186976         5.0879 
 127   0.0000       0.192047         5.2259 
 128   0.0000       0.197177         5.3655 
 129   0.0000       0.198406         5.3989 
 130   0.0000       0.199003         5.4151 
 131   0.0000       0.202241         5.5032 
 132   0.0000       0.205529         5.5927 
 133   0.0000       0.209089         5.6896 
 134   0.0000       0.215420         5.8619 
 135   0.0000       0.218170         5.9367 
 136   0.0000       0.224348         6.1048 
 137   0.0000       0.227765         6.1978 
 138   0.0000       0.229077         6.2335 
 139   0.0000       0.233552         6.3553 
 140   0.0000       0.235925         6.4198 
 141   0.0000       0.239725         6.5232 
 142   0.0000       0.241461         6.5705 
 143   0.0000       0.246446         6.7061 
 144   0.0000       0.250279         6.8105 
 145   0.0000       0.251719         6.8496 
 146   0.0000       0.254076         6.9137 
 147   0.0000       0.259520         7.0619 
 148   0.0000       0.260604         7.0914 
 149   0.0000       0.266884         7.2623 
 150   0.0000       0.271200         7.3797 
 151   0.0000       0.272996         7.4286 
 152   0.0000       0.278509         7.5786 
 153   0.0000       0.282072         7.6756 
 154   0.0000       0.285507         7.7691 
 155   0.0000       0.292497         7.9593 
 156   0.0000       0.293231         7.9792 
 157   0.0000       0.296628         8.0717 
 158   0.0000       0.299116         8.1394 
 159   0.0000       0.307916         8.3788 
 160   0.0000       0.309731         8.4282 
 161   0.0000       0.316582         8.6146 
 162   0.0000       0.321243         8.7415 
 163   0.0000       0.321944         8.7605 
 164   0.0000       0.330251         8.9866 
 165   0.0000       0.332309         9.0426 
 166   0.0000       0.335148         9.1198 
 167   0.0000       0.341323         9.2879 
 168   0.0000       0.341941         9.3047 
 169   0.0000       0.344813         9.3828 
 170   0.0000       0.349786         9.5182 
 171   0.0000       0.354028         9.6336 
 172   0.0000       0.358546         9.7565 
 173   0.0000       0.360100         9.7988 
 174   0.0000       0.363420         9.8892 
 175   0.0000       0.366254         9.9663 
 176   0.0000       0.368721        10.0334 
 177   0.0000       0.376576        10.2471 
 178   0.0000       0.377382        10.2691 
 179   0.0000       0.381138        10.3713 
 180   0.0000       0.384832        10.4718 
 181   0.0000       0.385478        10.4894 
 182   0.0000       0.389596        10.6014 
 183   0.0000       0.392632        10.6841 
 184   0.0000       0.394538        10.7359 
 185   0.0000       0.394886        10.7454 
 186   0.0000       0.399377        10.8676 
 187   0.0000       0.402047        10.9403 
 188   0.0000       0.404881        11.0174 
 189   0.0000       0.406954        11.0738 
 190   0.0000       0.410478        11.1697 
 191   0.0000       0.416332        11.3290 
 192   0.0000       0.418855        11.3976 
 193   0.0000       0.424579        11.5534 
 194   0.0000       0.427412        11.6305 
 195   0.0000       0.434248        11.8165 
 196   0.0000       0.436608        11.8807 
 197   0.0000       0.442645        12.0450 
 198   0.0000       0.444688        12.1006 
 199   0.0000       0.449819        12.2402 
 200   0.0000       0.452580        12.3153 
 201   0.0000       0.456902        12.4329 
 202   0.0000       0.458402        12.4738 
 203   0.0000       0.460416        12.5286 
 204   0.0000       0.463540        12.6136 
 205   0.0000       0.466229        12.6867 
 206   0.0000       0.476171        12.9573 
 207   0.0000       0.477462        12.9924 
 208   0.0000       0.479911        13.0590 
 209   0.0000       0.483356        13.1528 
 210   0.0000       0.487540        13.2666 
 211   0.0000       0.493927        13.4404 
 212   0.0000       0.495568        13.4851 
 213   0.0000       0.497648        13.5417 
 214   0.0000       0.500047        13.6070 
 215   0.0000       0.503516        13.7014 
 216   0.0000       0.506893        13.7933 
 217   0.0000       0.509327        13.8595 
 218   0.0000       0.514239        13.9932 
 219   0.0000       0.518008        14.0957 
 220   0.0000       0.519842        14.1456 
 221   0.0000       0.521881        14.2011 
 222   0.0000       0.525711        14.3053 
 223   0.0000       0.527625        14.3574 
 224   0.0000       0.528551        14.3826 
 225   0.0000       0.531806        14.4712 
 226   0.0000       0.535911        14.5829 
 227   0.0000       0.538505        14.6535 
 228   0.0000       0.541598        14.7376 
 229   0.0000       0.543955        14.8018 
 230   0.0000       0.546129        14.8609 
 231   0.0000       0.550799        14.9880 
 232   0.0000       0.555653        15.1201 
 233   0.0000       0.559628        15.2283 
 234   0.0000       0.561696        15.2845 
 235   0.0000       0.566447        15.4138 
 236   0.0000       0.570862        15.5339 
 237   0.0000       0.575070        15.6485 
 238   0.0000       0.575802        15.6684 
 239   0.0000       0.581779        15.8310 
 240   0.0000       0.585023        15.9193 
 241   0.0000       0.587393        15.9838 
 242   0.0000       0.591989        16.1088 
 243   0.0000       0.592423        16.1207 
 244   0.0000       0.597773        16.2662 
 245   0.0000       0.604048        16.4370 
 246   0.0000       0.606356        16.4998 
 247   0.0000       0.612921        16.6784 
 248   0.0000       0.614925        16.7330 
 249   0.0000       0.618255        16.8236 
 250   0.0000       0.620743        16.8913 
 251   0.0000       0.626126        17.0377 
 252   0.0000       0.632954        17.2235 
 253   0.0000       0.634756        17.2726 
 254   0.0000       0.637433        17.3454 
 255   0.0000       0.642040        17.4708 
 256   0.0000       0.647661        17.6237 
 257   0.0000       0.648942        17.6586 
 258   0.0000       0.652002        17.7419 
 259   0.0000       0.654945        17.8219 
 260   0.0000       0.661009        17.9870 
 261   0.0000       0.666942        18.1484 
 262   0.0000       0.670242        18.2382 
 263   0.0000       0.673603        18.3297 
 264   0.0000       0.675020        18.3682 
 265   0.0000       0.679026        18.4772 
 266   0.0000       0.685504        18.6535 
 267   0.0000       0.689830        18.7712 
 268   0.0000       0.694414        18.8960 
 269   0.0000       0.698592        19.0097 
 270   0.0000       0.702368        19.1124 
 271   0.0000       0.706057        19.2128 
 272   0.0000       0.713245        19.4084 
 273   0.0000       0.717127        19.5140 
 274   0.0000       0.720596        19.6084 
 275   0.0000       0.723526        19.6881 
 276   0.0000       0.729991        19.8641 
 277   0.0000       0.736671        20.0458 
 278   0.0000       0.738458        20.0945 
 279   0.0000       0.741594        20.1798 
 280   0.0000       0.748745        20.3744 
 281   0.0000       0.749641        20.3988 
 282   0.0000       0.757906        20.6237 
 283   0.0000       0.763209        20.7680 
[...]
  | sigma^2 in % of trace(Dip) retained ...   1.54e+01
  | sigma^2 in % of trace(Dpq) retained ...   1.38e-01
  | Av. % of trace(Di) retained         ...  99.998573703510
  | Av. % of trace(Dp) retained         ...  99.999998745029
  | sigma^2 in % of trace(Di) retained  ...   6.61e-07
  | sigma^2 in % of trace(Dp) retained  ...   7.89e-13
 Distributions of % trace(Dij) recovered:
  |       >= 99.9  ...   105 ( 22.1 % of all IJ-pairs)
  |   [80.0, 90.0) ...    22 (  4.6 % of all IJ-pairs)
  |   [90.0, 99.0) ...   263 ( 55.4 % of all IJ-pairs)
  |   [99.0, 99.9) ...    85 ( 17.9 % of all IJ-pairs)
 Distributions of % trace(Dip) recovered:
  |   [80.0, 90.0) ...    12 ( 10.7 % of all IP-pairs)
  |   [90.0, 99.0) ...    51 ( 45.5 % of all IP-pairs)
  |   [99.0, 99.9) ...    49 ( 43.8 % of all IP-pairs)
 Distributions of % trace(Dpq) recovered:
  |       >= 99.9  ...     5 ( 33.3 % of all PQ-pairs)
  |   [99.0, 99.9) ...    10 ( 66.7 % of all PQ-pairs)
 Distributions of % trace(Di) recovered :
  |       >= 99.9  ...    43 (100.0 % of all I-pairs )
 Distributions of % trace(Dp) recovered :
  |       >= 99.9  ...     5 (100.0 % of all P-pairs )

                       ===========================
                       1044 OF 1667 PAIRS ARE KEPT
                       ===========================

 Initial PAO correlation energy (all pairs)    ...  -2.6814507917 Eh
 Energy constituents in PAO basis (Eh):
  | Vijab(+0) ...  -2.2542222032
  | Viab (-1) ...  -0.1740548688
  | Vab  (-2) ...  -0.0573285187
  | Va   (-1) ...  -0.0000455878
  | Vija (+1) ...  -0.0714498400
  | Vij  (+2) ...  -0.0155494614
  | Via  (+0) ...  -0.1086352660
  | Vi   (+1) ...  -0.0001650458
 Initial PNO correlation energy                ...  -2.6473663770 Eh
 Energy constituents in PNO basis (Eh):
  | Vijab(+0) ...  -2.2356265330 (err=  0.0185956702)
  | Viab (-1) ...  -0.1600979103 (err=  0.0139569585)
  | Vab  (-2) ...  -0.0568725528 (err=  0.0004559659)
  | Va   (-1) ...  -0.0000264138 (err=  0.0000191740)
  | Vija (+1) ...  -0.0705529496 (err=  0.0008968904)
  | Vij  (+2) ...  -0.0155003108 (err=  0.0000491506)
  | Via  (+0) ...  -0.1085251311 (err=  0.0001101349)
  | Vi   (+1) ...  -0.0001645756 (err=  0.0000004702)
 Sum of total truncation errors ...   0.0340844147 Eh
  | Pair screening ...   0.0119437834 Eh
  | PNO truncation ...   0.0221406313 Eh

 UMP2 correlation energy (PAO) ...  -2.6763505127
  | alpha-alpha ...  -0.3835971780 (NP_aa=  895)
  | alpha-beta  ...  -1.9886723679 (NP_ab= 1642)
  | beta -beta  ...  -0.3040809668 (NP_bb=  714)
 UMP2 correlation energy (PNO) ...  -2.6419005842
  | alpha-alpha ...  -0.3715808134 (err=  0.0120163646, NP_aa=  554)
  | alpha-beta  ...  -1.9703177115 (err=  0.0183546564, NP_ab= 1019)
  | beta -beta  ...  -0.3000020593 (err=  0.0040789075, NP_bb=  432)
 Sum of total UMP2 truncation errors ...   0.0344499286 Eh
  | Pair screening ...   0.0119477725 Eh
  | PNO truncation ...   0.0225021561 Eh
 Timing for NEV-PNO construction (sec.)
  | Intermediate construction  ..           38.408
  | Amplitude construction     ..           58.511
  | Total time                 ..           96.919
 Making pair pair interaction lists ...      ok
 Total size for 2-ext PNO integrals ...     10.5 MB
Checking the number of SOMO/SOMO doubles PNOs ... 
 #Truncate: (72, 72)[169] -> [86] .. 
 #Truncate: (73, 73)[173] -> [86] .. 
 #Truncate: (74, 74)[173] -> [86] .. 
 #Truncate: (75, 75)[171] -> [86] .. 
 #Truncate: (76, 76)[173] -> [86] .. 

--------------------------------
LOCAL RI TRANSFORMATION (VABPAO)
--------------------------------

Number of PAOs:    1030
Basis functions:   1025 (343 shells)
Aux. functions:    2424 (644 shells)

Processing maps (0.0 sec)
Average map sizes:
   Aux shells -> PAOs           1030.0
   PAOs       -> AO shells       343.0

Calculating integrals (213.2 sec, 37370.165 MB)
Finished
-----------------------------
LOCAL RI TRANSFORMATION (IJV)
-----------------------------

Orbital window:      29 to 76
Basis functions:   1025 (343 shells)
Aux. functions:    2424 (644 shells)

Processing maps (0.0 sec)
Average map sizes:
   Aux shells -> MOs(i)           46.2
   Aux shells -> MOs(j)           48.0
   MOs        -> AO shells       340.1

Calculating integrals (22.4 sec, 41.176 MB)
Sorting integrals (0.3 sec, 41.148 MB)
Total time for the integral transformation: 22.8 sec


-------------------------------------
Pair Pair Term precalculation with     
RI-(ij|mn) and (im|jn) transformation  
ON THE FLY                             
-------------------------------------

   IBatch   1 (of   2)              ... done ( 1283.515 sec)
   IBatch   2 (of   2)              ... done (  531.614 sec)
Total EXT                           ...        1815.129 sec

---------------------
RI-PNO TRANSFORMATION
---------------------

Total Number of PNOs                   ... 32681
Total Number of IJ-PNOs                ... 28603
Total Number of IP-PNOs                ...  3120
Total Number of PQ-PNOs                ...   958
Total Number of IJ-pairs               ...   907
Total Number of PI-pairs               ...   112
Total Number of PQ-pairs               ...    25
Average number of PNOs per pair        ...    31
Maximal number of PNOs per pair        ...    86
>> Statistics for ij-pairs..
   #pairs with  1 -  5 PNOs   :    0
   #pairs with  6 - 10 PNOs   :    0
   #pairs with 11 - 15 PNOs   :   98
   #pairs with 16 - 20 PNOs   :  166
   #pairs with 21 - 25 PNOs   :  160
   #pairs with 26 - 30 PNOs   :  140
   #pairs with 31 - 35 PNOs   :   58
   #pairs with 36 - 40 PNOs   :   54
   #pairs with 41 - 45 PNOs   :   46
   #pairs with 46 - 50 PNOs   :   18
   #pairs with 51 - 55 PNOs   :   32
   #pairs with 56 - 60 PNOs   :   53
   #pairs with 61 - 65 PNOs   :   77
   #pairs with 66 - 70 PNOs   :    3
   #pairs with 81 - 85 PNOs   :    2
>> Statistics for ip-pairs..
   #pairs with  1 -  5 PNOs   :    0
   #pairs with  6 - 10 PNOs   :    1
   #pairs with 11 - 15 PNOs   :   11
   #pairs with 16 - 20 PNOs   :   12
   #pairs with 21 - 25 PNOs   :   20
   #pairs with 26 - 30 PNOs   :   10
   #pairs with 31 - 35 PNOs   :   44
   #pairs with 36 - 40 PNOs   :   12
   #pairs with 41 - 45 PNOs   :    2
   #pairs with 46 - 50 PNOs   :    0
>> Statistics for pq-pairs..
   #pairs with  1 -  5 PNOs   :    0
   #pairs with  6 - 10 PNOs   :    0
   #pairs with 11 - 15 PNOs   :    0
   #pairs with 16 - 20 PNOs   :    0
   #pairs with 21 - 25 PNOs   :   10
   #pairs with 26 - 30 PNOs   :   10
   #pairs with 31 - 35 PNOs   :    0
   #pairs with 36 - 40 PNOs   :    0
   #pairs with 41 - 45 PNOs   :    0
   #pairs with 46 - 50 PNOs   :    0
   #pairs with 86 - 90 PNOs   :    5

Generation of (ij|ab)[P] integrals            ... on
Generation of (ia|bc)[P],(ja|bc)[P] integrals ... on
Storage of 3 and 4 external integrals         ... on
Generation of ALL (ka|bc)[P] integrals        ... on
Keep RI integrals in memory                   ... off

Ibatch:  1 (of  1)
Starting 2-4 index PNO integral generation ... done

Timings:
Total PNO integral transformation time     ...       1863.564 sec
Size of the 3-external file                ...       279 MB
Size of the 4-external file                ...      1907 MB
Size of the IKJL file                      ...        16 MB
Size of the all 3-external file            ...      6702 MB
Size of the 1-external file                ...        21 MB

Size of the PAO/PNO coefficient matrices   ...     206.1 MB

Making pair/pair overlap matrices          ... done (  265.788 sec)
Size of the pair overlap file              ...    2254.0 MB
Total # unrestricted pairs ...       2005
  # of alpha-alpha pairs   ...        554
  # of alpha-beta pairs    ...       1019
  # of beta-beta pairs     ...        432
Constructing the guess amplitudes          ... done (    0.534 sec)

-------------------------
FINAL STARTUP INFORMATION
-------------------------

E(0)                                       ...  -3028.467553872
E(SL-UMP2 in NEV-PNO space)                ...     -2.677305659
Initial E(tot)                             ...  -3031.144859531
<T|T>                                      ...      0.532533627
Number of unrestricted pairs included      ... 2005
Total number of pairs                      ... 4095
----------------------------------------------------------
                     OPEN-SHELL COUPLED CLUSTER ITERATIONS
----------------------------------------------------------

Number of PNO amplitudes to be optimized        ...          2020158
Number of canonical amplitudes for strong pairs ...       1810924223
Untruncated number of canonical amplitudes      ...       3698645738

Iter       E(tot)           E(Corr)          Delta-E          Residual     Time
  0  -3031.152096636     -2.649137689      0.028167969      0.020873420 1304.95
                           *** Turning on DIIS ***
  1  -3031.268370246     -2.765411300     -0.116273610      0.010742914 1303.29
  2  -3031.333330646     -2.830371699     -0.064960399      0.008348798 1301.60
  3  -3031.355396222     -2.852437275     -0.022065576      0.003264401 1307.74
  4  -3031.363106862     -2.860147915     -0.007710640      0.002645940 1315.56
  5  -3031.367345492     -2.864386545     -0.004238630      0.001517929 1307.10
  6  -3031.368907104     -2.865948157     -0.001561612      0.000742868 1314.92
  7  -3031.369564804     -2.866605857     -0.000657700      0.000483122 1324.70
  8  -3031.369710191     -2.866751244     -0.000145387      0.000223737 1298.74
  9  -3031.369769686     -2.866810740     -0.000059495      0.000144440 1308.75
 10  -3031.369772292     -2.866813345     -0.000002606      0.000072958 1357.91
 11  -3031.369785114     -2.866826167     -0.000012822      0.000066332 1426.92
 12  -3031.369789967     -2.866831020     -0.000004853      0.000035169 1387.38
 13  -3031.369792152     -2.866833205     -0.000002185      0.000018254 1370.85
 14  -3031.369793754     -2.866834807     -0.000001602      0.000010951 1618.34
 15  -3031.369792887     -2.866833940      0.000000867      0.000004835 1642.20
               --- The CCSD iterations have converged ---

E(0)                                       ...  -3028.467553872
E(CORR)(strong-pairs)                      ...     -2.866833940
E(CORR)(weak-pairs)                        ...     -0.035405075
E(CORR)(corrected)                         ...     -2.902239015
E(TOT)                                     ...  -3031.369792887
Singles norm <S|S>**1/2                    ...      0.195855354 ( 0.064647163, 0.131208191)  
T1 diagnostic                              ...      0.020531220                              
<S**2>(linearized)                         ...      8.7508551 (ideal value:      8.7500000)

----------------------
LARGEST PNO AMPLITUDES
----------------------
  49b-> 72b  -1b-> -1b       0.054823
  46a-> 78a  46b-> 78b       0.053989
  52b-> 73b  -1b-> -1b       0.053838
  51b-> 73b  -1b-> -1b       0.053803
  49b-> 76b  -1b-> -1b       0.047351
  44a-> 77a  44b-> 77b       0.046611
  49b-> 75b  -1b-> -1b       0.046356
  38b-> 74b  -1b-> -1b       0.044142
  62a-> 77a  62b-> 77b       0.044017
  36b-> 72b  -1b-> -1b       0.044009
  55a-> 77a  55b-> 77b       0.044008
  42b-> 74b  -1b-> -1b       0.043843
  70a-> 77a  70b-> 77b       0.043787
  64a-> 77a  64b-> 77b       0.043265
  69a-> 77a  69b-> 77b       0.043165
  58a-> 77a  58b-> 77b       0.042609

Total # unrestricted pairs ...       1246
  # of alpha-alpha pairs   ...        341
  # of alpha-beta pairs    ...        623
  # of beta-beta pairs     ...        282

-------------------------------------------
DLPNO BASED TRIPLES CORRECTION
-------------------------------------------

Singles multiplier          ...  1.000000
Fragment selection                          .... not used
TCutTNO                     ... 1.000e-09
TCutMP2Pairs                ... 1.000e-05
TCutDOStrong                ... 2.000e-02
TCutMKNStrong               ... 1.000e-02
TCutDOWeak                  ... 4.000e-02
TCutMKNWeak                 ... 1.000e-01
NTCutTNO                    ... 1

Number of Triples that are to be computed         ...     30810

 . . . . . . . . .
10% done  
20% done  
30% done  
40% done  
50% done  
60% done  
70% done  
80% done  
90% done  
          Batch   1   done (  13222.194 sec)

Triples-Correction TCutTNO=   1.000e-09 (NWeakPairs = 0  1  2  3)  -0.116118856514   -0.001767787913    0.000000000000    0.000000000000
Triples-Correction  -0.117886644427

Triples timings:
Total time                      ... 13764.196 sec

Triples List generation         ...     0.000 sec
TNO generation                  ...   541.763 sec
Pair density generation         ...     0.086 sec
Look up tables                  ...     0.114 sec
Generating 3-index integrals    ...  7885.603 sec
Make 4-ind.int. from 3-ind.int  ...     3.136 sec
Projecting amplitudes (D + S)   ...  5100.191 sec
Sorting integrals for spin cases...    49.949 sec
Calculate W0/W1                 ...   145.418 sec
Energy contr. (sum over a,b,c)  ...    37.754 sec

Everything after 3-index        ...  5452.487 sec

Energy contribution AAA         ...    22.933 sec
Energy contribution AAB         ...   103.464 sec
Energy contribution ABB         ...    94.346 sec
Energy contribution BBB         ...    12.418 sec
prep                ...     3.006 sec
makeTTNO            ...  5046.540 sec
copyij              ...     0.128 sec
copyil              ...     4.049 sec
transposeij         ...     0.076 sec
newMatInDoubleProj  ...    53.128 sec
BlasInDoubleProj    ...  2615.083 sec
ProjSingles         ...    43.885 sec
ProjDoubles         ...  5056.305 sec
overall Doubles for projection      ... 2715333
used Doubles for projection         ... 2715333


Number of Triples   (0, 1, 2, 3 weak pairs; overall):  14339   11122       0       0  ( 25461)
Number of Atoms     (0, 1, 2, 3 weak pairs; overall):   18.7    13.5     0.0     0.0  (    29)
Number of PAOs      (0, 1, 2, 3 weak pairs; overall):  736.2   549.7     0.0     0.0  (  1025)
Number of AuxFcns   (0, 1, 2, 3 weak pairs; overall):  837.7   565.6     0.0     0.0  (  2424)
Number of TNOs (0, 1, 2, 3 weak pairs         ):   78.4    56.0     0.0     0.0
Aver. Number of NTNO, Atoms, PAOs, AuxFcns / Triples:  25461    68.6    16.4   654.7   718.8

Triples Correction (T)                     ...     -0.117886644
    alpha-alpha-alpha ... -0.003753211 (  3.2%)
    alpha-alpha-beta  ... -0.055383736 ( 47.0%)
    alpha-beta -beta  ... -0.054729124 ( 46.4%)
    beta -beta -beta  ... -0.004020573 (  3.4%)
Final correlation energy                   ...     -3.020125659
E(CCSD)                                    ...  -3031.369792887
E(CCSD(T))                                 ...  -3031.487679532

----------------------------
STATISTICS FOR PAIR-ENERGIES
----------------------------
Minimum, maximum and average ratios of UMP and CCSD pair-energies ... 0.46, 1.45, 1.02


------------------------------------------------------------------------------- 
                                     TIMINGS                                   
------------------------------------------------------------------------------- 


Total execution time                   ...    43249.939 sec

Localization of occupied MO's          ...       10.833 sec (  0.0%)
Fock Matrix Formation                  ...     1405.116 sec (  3.2%)
Differential overlap integrals         ...        1.347 sec (  0.0%)
Organizing maps                        ...        1.620 sec (  0.0%)
RI 3-index integral generations        ...      300.764 sec (  0.7%)
RI-PNO integral transformation         ...     4178.754 sec (  9.7%)
Initial Guess                          ...     1851.301 sec (  4.3%)
DIIS Solver                            ...       16.155 sec (  0.0%)
State Vector Update                    ...        0.686 sec (  0.0%)
Sigma-vector construction              ...    21890.976 sec ( 50.6%)
  <0|H|D>                              ...        0.027 sec (  0.0% of sigma)
  <D|H|D>(0-ext)                       ...     3926.866 sec ( 17.9% of sigma)
  <D|H|D>(2-ext Fock)                  ...        1.057 sec (  0.0% of sigma)
  <D|H|D>(2-ext)                       ...     3197.173 sec ( 14.6% of sigma)
  <D|H|D>(4-ext)                       ...      137.129 sec (  0.6% of sigma)
  <D|H|D>(4-ext-corr)                  ...      855.971 sec (  3.9% of sigma)
  CCSD doubles correction              ...      370.737 sec (  1.7% of sigma)
  <S|H|S>                              ...      588.973 sec (  2.7% of sigma)
  <S|H|D>(1-ext)                       ...      211.298 sec (  1.0% of sigma)
  <D|H|S>(1-ext)                       ...        0.762 sec (  0.0% of sigma)
  <S|H|D>(3-ext)                       ...       19.628 sec (  0.1% of sigma)
  CCSD singles correction              ...        0.004 sec (  0.0% of sigma)
  Fock-dressing                        ...     6205.452 sec ( 28.3% of sigma)
  Singles amplitudes                   ...       90.264 sec (  0.4% of sigma)
  (ik|jl)-dressing                     ...     4959.078 sec ( 22.7% of sigma)
  (ij|ab),(ia|jb)-dressing             ...     1050.451 sec (  4.8% of sigma)
  Pair energies                        ...        0.109 sec (  0.0% of sigma)
Total Time for computing (T)           ...    13948.657 sec ( 32.3% of ALL)


-------------------------   --------------------
FINAL SINGLE POINT ENERGY     -3031.487679531565
-------------------------   --------------------


                            ***************************************
                            *     ORCA property calculations      *
                            ***************************************

                                    ---------------------
                                    Active property flags
                                    ---------------------
   (+) Dipole Moment


------------------------------------------------------------------------------
                       ORCA ELECTRIC PROPERTIES CALCULATION
------------------------------------------------------------------------------

Dipole Moment Calculation                       ... on
Quadrupole Moment Calculation                   ... off
Polarizability Calculation                      ... off
GBWName                                         ... simple-grid-270-290-b3lyp_d3bj-631gd-gas-singlepoint-DLPNO_CCSD_T1-NormalPNO-augtz-gas.gbw
Electron density file                           ... simple-grid-270-290-b3lyp_d3bj-631gd-gas-singlepoint-DLPNO_CCSD_T1-NormalPNO-augtz-gas.scfp.tmp
The origin for moment calculation is the CENTER OF MASS  = (-0.314937, -0.042584  0.014970)

-------------
DIPOLE MOMENT
-------------
                                X             Y             Z
Electronic contribution:    -43.65307      -4.86697       1.59711
Nuclear contribution   :     46.92565       6.34501      -2.23046
                        -----------------------------------------
Total Dipole Moment    :      3.27259       1.47804      -0.63335
                        -----------------------------------------
Magnitude (a.u.)       :      3.64631
Magnitude (Debye)      :      9.26818



--------------------
Rotational spectrum 
--------------------
 
Rotational constants in cm-1:     0.018820     0.010685     0.010057 
Rotational constants in MHz :   564.196452   320.314999   301.498556 

 Dipole components along the rotational axes: 
x,y,z [a.u.] :     3.266122    -1.474507    -0.673677 
x,y,z [Debye]:     8.301822    -3.747900    -1.712351 

 

Timings for individual modules:

Sum of individual times         ...    60192.858 sec (=1003.214 min)
GTO integral calculation        ...       13.007 sec (=   0.217 min)   0.0 %
SCF iterations                  ...    16911.434 sec (= 281.857 min)  28.1 %
MDCI module                     ...    43268.416 sec (= 721.140 min)  71.9 %
                             ****ORCA TERMINATED NORMALLY****
TOTAL RUN TIME: 0 days 16 hours 43 minutes 15 seconds 639 msec
