
                                 *****************
                                 * O   R   C   A *
                                 *****************

           --- An Ab Initio, DFT and Semiempirical electronic structure package ---

                  #######################################################
                  #                        -***-                        #
                  #          Department of theory and spectroscopy      #
                  #               Directorship: Frank Neese             #
                  #        Max Planck Institute fuer Kohlenforschung    #
                  #                Kaiser Wilhelm Platz 1               #
                  #                 D-45470 Muelheim/Ruhr               #
                  #                      Germany                        #
                  #                                                     #
                  #                  All rights reserved                #
                  #                        -***-                        #
                  #######################################################


                         Program Version 4.1.2  - RELEASE  -


 With contributions from (in alphabetic order):
   Daniel Aravena         : Magnetic Properties
   Michael Atanasov       : Ab Initio Ligand Field Theory
   Alexander A. Auer      : GIAO ZORA
   Ute Becker             : Parallelization
   Giovanni Bistoni       : ED, Open-shell LED
   Martin Brehm           : Molecular dynamics
   Dmytro Bykov           : SCF Hessian
   Vijay G. Chilkuri      : MRCI spin determinant printing
   Dipayan Datta          : RHF DLPNO-CCSD density
   Achintya Kumar Dutta   : EOM-CC, STEOM-CC
   Dmitry Ganyushin       : Spin-Orbit,Spin-Spin,Magnetic field MRCI
   Miquel Garcia          : C-PCM Hessian
   Yang Guo               : DLPNO-NEVPT2, CIM, IAO-localization
   Andreas Hansen         : Spin unrestricted coupled pair/coupled cluster methods
   Benjamin Helmich-Paris : CASSCF linear response (MC-RPA)
   Lee Huntington         : MR-EOM, pCC
   Robert Izsak           : Overlap fitted RIJCOSX, COSX-SCS-MP3, EOM
   Christian Kollmar      : KDIIS, OOCD, Brueckner-CCSD(T), CCSD density
   Simone Kossmann        : Meta GGA functionals, TD-DFT gradient, OOMP2, MP2 Hessian
   Martin Krupicka        : AUTO-CI
   Lucas Lang             : DCDCAS
   Dagmar Lenk            : GEPOL surface, SMD
   Dimitrios Liakos       : Extrapolation schemes; parallel MDCI
   Dimitrios Manganas     : ROCIS; embedding schemes
   Dimitrios Pantazis     : SARC Basis sets
   Taras Petrenko         : DFT Hessian,TD-DFT gradient, ASA, ECA, R-Raman, ABS, FL, XAS/XES, NRVS
   Peter Pinski           : DLPNO-MP2, DLPNO-MP2 Gradient
   Christoph Reimann      : Effective Core Potentials
   Marius Retegan         : Local ZFS, SOC
   Christoph Riplinger    : Optimizer, TS searches, QM/MM, DLPNO-CCSD(T), (RO)-DLPNO pert. Triples
   Tobias Risthaus        : Range-separated hybrids, TD-DFT gradient, RPA, STAB
   Michael Roemelt        : Restricted open shell CIS
   Masaaki Saitow         : Open-shell DLPNO
   Barbara Sandhoefer     : DKH picture change effects
   Avijit Sen             : IP-ROCIS
   Kantharuban Sivalingam : CASSCF convergence, NEVPT2, FIC-MRCI
   Bernardo de Souza      : ESD, SOC TD-DFT
   Georgi Stoychev        : AutoAux, RI-MP2 NMR
   Willem Van den Heuvel  : Paramagnetic NMR
   Boris Wezisla          : Elementary symmetry handling
   Frank Wennmohs         : Technical directorship


 We gratefully acknowledge several colleagues who have allowed us to
 interface, adapt or use parts of their codes:
   Stefan Grimme, W. Hujo, H. Kruse,             : VdW corrections, initial TS optimization,
                  C. Bannwarth                     DFT functionals, gCP, sTDA/sTD-DF
   Ed Valeev                                     : LibInt (2-el integral package), F12 methods
   Garnet Chan, S. Sharma, J. Yang, R. Olivares  : DMRG
   Ulf Ekstrom                                   : XCFun DFT Library
   Mihaly Kallay                                 : mrcc  (arbitrary order and MRCC methods)
   Andreas Klamt, Michael Diedenhofen            : otool_cosmo (COSMO solvation model)
   Jiri Pittner, Ondrej Demel                    : Mk-CCSD
   Frank Weinhold                                : gennbo (NPA and NBO analysis)
   Christopher J. Cramer and Donald G. Truhlar   : smd solvation model
   Lars Goerigk                                  : TD-DFT with DH, B97 family of functionals
   V. Asgeirsson, H. Jonsson                     : NEB implementation
   FAccTs GmbH                                   : IRC, NEB, NEB-TS, Multilevel


 Your calculation uses the libint2 library for the computation of 2-el integrals
 For citations please refer to: http://libint.valeyev.net

 This ORCA versions uses:
   CBLAS   interface :  Fast vector & matrix operations
   LAPACKE interface :  Fast linear algebra routines
   SCALAPACK package :  Parallel linear algebra routines


----- Orbital basis set information -----
Your calculation utilizes the basis: aug-cc-pVTZ 
    H, B-Ne : Obtained from the ccRepo (grant-hill.group.shef.ac.uk/ccrepo) Feb. 2017
              R. A. Kendall, T. H. Dunning, Jr., R. J. Harrison, J. Chem. Phys. 96, 6796 (1992)
         He : Obtained from the ccRepo (grant-hill.group.shef.ac.uk/ccrepo) Feb. 2017
              D. E. Woon, T. H. Dunning, Jr., J. Chem. Phys. 100, 2975 (1994)
  Li-Be, Na : Obtained from the ccRepo (grant-hill.group.shef.ac.uk/ccrepo) Feb. 2017
              B. P. Prascher, D. E. Woon, K. A. Peterson, T. H. Dunning, Jr., A. K. Wilson, Theor. Chem. Acc. 128, 69 (2011)
         Mg : Obtained from the Peterson Research Group Website (tyr0.chem.wsu.edu/~kipeters) Feb. 2017
              B. P. Prascher, D. E. Woon, K. A. Peterson, T. H. Dunning, Jr., A. K. Wilson, Theor. Chem. Acc. 128, 69 (2011)
      Al-Ar : Obtained from the ccRepo (grant-hill.group.shef.ac.uk/ccrepo) Feb. 2017
              D. E. Woon, T. H. Dunning, Jr., J. Chem. Phys. 98, 1358 (1993)
      Sc-Zn : Obtained from the ccRepo (grant-hill.group.shef.ac.uk/ccrepo) Feb. 2017
              N. B. Balabanov, K. A. Peterson, J. Chem. Phys. 123, 064107 (2005)
              N. B. Balabanov, K. A. Peterson, J. Chem. Phys. 125, 074110 (2006)
      Ga-Kr : Obtained from the ccRepo (grant-hill.group.shef.ac.uk/ccrepo) Feb. 2017
              A. K. Wilson, D. E. Woon, K. A. Peterson, T. H. Dunning, Jr., J. Chem. Phys. 110, 7667 (1999)
     Ag, Au : Obtained from the Peterson Research Group Website (tyr0.chem.wsu.edu/~kipeters) Feb. 2017
              K. A. Peterson, C. Puzzarini, Theor. Chem. Acc. 114, 283 (2005)

----- AuxJ basis set information -----
Your calculation utilizes the AutoAux generation procedure.
  G. L. Stoychev, A. A. Auer, F. Neese, J. Chem. Theory Comput. 13, 554 (2017)

----- AuxC basis set information -----
Your calculation utilizes the auxiliary basis: aug-cc-pVTZ/C 
  H-He, B-F, Al-Ar, Ga-Kr : Obtained from the EMSL Basis Set Exchange (bse.pnl.gov) Feb. 2017
                            F. Weigend, A. Kohn, C. Hattig, J. Chem. Phys. 116, 3175 (2002)
                   Be, Mg : Obtained from the TURBOMOLE 7.0 basis set library
                            C. Haettig, Phys. Chem. Chem. Phys. 7, 59 (2005)
                       Ne : Obtained from the EMSL Basis Set Exchange (bse.pnl.gov) Feb. 2017
                            C. Haettig, Phys. Chem. Chem. Phys. 7, 59 (2005)
                            F. Weigend, A. Kohn, C. Hattig, J. Chem. Phys. 116, 3175 (2002)
                    Sc-Zn : Obtained from the EMSL Basis Set Exchange (bse.pnl.gov) Feb. 2017
                            J. G. Hill, J. A. Platts, J. Chem. Phys. 128, 044104 (2008)

----- AuxJK basis set information -----
Your calculation utilizes the AutoAux generation procedure.
  G. L. Stoychev, A. A. Auer, F. Neese, J. Chem. Theory Comput. 13, 554 (2017)

================================================================================
                                        WARNINGS
                       Please study these warnings very carefully!
================================================================================


WARNING: your system is open-shell and RHF/RKS was chosen
  ===> : WILL SWITCH to UHF/UKS


WARNING: MDCI localization with Augmented Hessian Foster-Boys
  ===> : Switching off randomization!

WARNING: Post HF methods need fully converged wavefunctions
  ===> : Setting SCFConvForced true
         You can overwrite this default with %scf ConvForced false 


INFO   : the flag for use of LIBINT has been found!

================================================================================
                                       INPUT FILE
================================================================================
NAME = simple-grid-240-275-b3lyp_d3bj-631gd-gas-singlepoint-DLPNO_CCSD_T1-NormalPNO-augtz-gas.inp
|  1> ! aug-cc-pVTZ aug-cc-pVTZ/C DLPNO-CCSD(T1) TightSCF NormalPNO UNO MiniPrint AutoAux
|  2> %pal nproc 10 end
|  3> %maxcore 20000
|  4> %mdci
|  5>      density none
|  6> end
|  7> 
|  8> * xyz 0 6
|  9>  O     -0.24891300     -0.28275400     -0.82737200
| 10>  C     -1.09290800     -1.21169000     -0.65158500
| 11>  C     -2.92514200     -0.20337800      0.52579700
| 12>  C     -2.60472600      0.94637700     -0.11898100
| 13>  C     -3.14036500      1.26542200     -1.48411400
| 14> Fe      1.46020800      0.14414300     -0.00141700
| 15> Cl      2.04727800      2.03023200     -0.92482900
| 16>  C     -1.69340900      1.98826900      0.44850600
| 17> Cl      2.67126100     -1.60140400     -0.53325600
| 18> Cl      1.13674500      0.29537500      2.17161800
| 19>  H     -3.65778000     -0.85080500      0.04603200
| 20>  H     -2.23397700      2.93936100      0.54321200
| 21>  H     -1.27807500      1.72925800      1.42135600
| 22>  H     -0.86191800      2.17598200     -0.24332300
| 23>  H     -3.67068300      2.22585700     -1.45406700
| 24>  H     -2.31887500      1.39021800     -2.20225300
| 25>  H     -3.83480500      0.50768700     -1.85516500
| 26>  C     -2.70142400     -0.46048300      1.99631000
| 27>  H     -3.47089000      0.06121300      2.58044900
| 28>  H     -2.78955500     -1.52327300      2.23528900
| 29>  H     -1.72848300     -0.11322800      2.35125800
| 30>  C     -0.86021300     -2.23677200      0.42175200
| 31>  H     -1.73878300     -2.85705700      0.60266900
| 32>  H     -0.05369900     -2.87859900      0.03737700
| 33>  H     -0.50352800     -1.79128300      1.34976000
| 34>  C     -1.86698600     -1.65907500     -1.86306900
| 35>  H     -1.20920900     -2.36948800     -2.38392300
| 36>  H     -2.78944400     -2.18178500     -1.60664700
| 37>  H     -2.06318300     -0.83322300     -2.54398500
| 38> *
| 39> 
| 40> 
| 41>                          ****END OF INPUT****
================================================================================

                       ****************************
                       * Single Point Calculation *
                       ****************************

---------------------------------
CARTESIAN COORDINATES (ANGSTROEM)
---------------------------------
  O     -0.248913   -0.282754   -0.827372
  C     -1.092908   -1.211690   -0.651585
  C     -2.925142   -0.203378    0.525797
  C     -2.604726    0.946377   -0.118981
  C     -3.140365    1.265422   -1.484114
  Fe     1.460208    0.144143   -0.001417
  Cl     2.047278    2.030232   -0.924829
  C     -1.693409    1.988269    0.448506
  Cl     2.671261   -1.601404   -0.533256
  Cl     1.136745    0.295375    2.171618
  H     -3.657780   -0.850805    0.046032
  H     -2.233977    2.939361    0.543212
  H     -1.278075    1.729258    1.421356
  H     -0.861918    2.175982   -0.243323
  H     -3.670683    2.225857   -1.454067
  H     -2.318875    1.390218   -2.202253
  H     -3.834805    0.507687   -1.855165
  C     -2.701424   -0.460483    1.996310
  H     -3.470890    0.061213    2.580449
  H     -2.789555   -1.523273    2.235289
  H     -1.728483   -0.113228    2.351258
  C     -0.860213   -2.236772    0.421752
  H     -1.738783   -2.857057    0.602669
  H     -0.053699   -2.878599    0.037377
  H     -0.503528   -1.791283    1.349760
  C     -1.866986   -1.659075   -1.863069
  H     -1.209209   -2.369488   -2.383923
  H     -2.789444   -2.181785   -1.606647
  H     -2.063183   -0.833223   -2.543985

----------------------------
CARTESIAN COORDINATES (A.U.)
----------------------------
  NO LB      ZA    FRAG     MASS         X           Y           Z
   0 O     8.0000    0    15.999   -0.470377   -0.534328   -1.563506
   1 C     6.0000    0    12.011   -2.065297   -2.289762   -1.231317
   2 C     6.0000    0    12.011   -5.527717   -0.384329    0.993612
   3 C     6.0000    0    12.011   -4.922219    1.788393   -0.224842
   4 C     6.0000    0    12.011   -5.934430    2.391301   -2.804569
   5 Fe   26.0000    0    55.850    2.759393    0.272391   -0.002678
   6 Cl   17.0000    0    35.453    3.868795    3.836582   -1.747674
   7 C     6.0000    0    12.011   -3.200079    3.757284    0.847554
   8 Cl   17.0000    0    35.453    5.047952   -3.026215   -1.007708
   9 Cl   17.0000    0    35.453    2.148137    0.558178    4.103763
  10 H     1.0000    0     1.008   -6.912202   -1.607788    0.086988
  11 H     1.0000    0     1.008   -4.221605    5.554587    1.026522
  12 H     1.0000    0     1.008   -2.415212    3.267824    2.685974
  13 H     1.0000    0     1.008   -1.628789    4.112010   -0.459814
  14 H     1.0000    0     1.008   -6.936586    4.206260   -2.747788
  15 H     1.0000    0     1.008   -4.382039    2.627131   -4.161655
  16 H     1.0000    0     1.008   -7.246731    0.959389   -3.505754
  17 C     6.0000    0    12.011   -5.104952   -0.870187    3.772479
  18 H     1.0000    0     1.008   -6.559032    0.115676    4.876342
  19 H     1.0000    0     1.008   -5.271495   -2.878569    4.224084
  20 H     1.0000    0     1.008   -3.266359   -0.213970    4.443234
  21 C     6.0000    0    12.011   -1.625567   -4.226887    0.796996
  22 H     1.0000    0     1.008   -3.285824   -5.399055    1.138879
  23 H     1.0000    0     1.008   -0.101476   -5.439764    0.070632
  24 H     1.0000    0     1.008   -0.951530   -3.385034    2.550677
  25 C     6.0000    0    12.011   -3.528092   -3.135197   -3.520690
  26 H     1.0000    0     1.008   -2.285074   -4.477683   -4.504962
  27 H     1.0000    0     1.008   -5.271285   -4.122976   -3.036123
  28 H     1.0000    0     1.008   -3.898851   -1.574563   -4.807435



           ************************************************************
           *        Program running with 10 parallel MPI-processes    *
           *              working on a common directory               *
           ************************************************************


           ************************************************************
           *        Program running with 10 parallel MPI-processes    *
           *              working on a common directory               *
           ************************************************************

Diagonalization of the overlap matrix:
Smallest eigenvalue                        ... 8.333e-07
Time for diagonalization                   ...    0.327 sec
Threshold for overlap eigenvalues          ... 1.000e-08
Number of eigenvalues below threshold      ... 0
Time for construction of square roots      ...    0.272 sec
Total time needed                          ...    0.605 sec

-------------------
DFT GRID GENERATION
-------------------

General Integration Accuracy     IntAcc      ...  4.340
Radial Grid Type                 RadialGrid  ... Gauss-Chebyshev
Angular Grid (max. acc.)         AngularGrid ... Lebedev-110
Angular grid pruning method      GridPruning ... 3 (G Style)
Weight generation scheme         WeightScheme... Becke
Basis function cutoff            BFCut       ...    1.0000e-11
Integration weight cutoff        WCut        ...    1.0000e-14
Grids for H and He will be reduced by one unit

# of grid points (after initial pruning)     ...  36112 (   0.0 sec)
# of grid points (after weights+screening)   ...  32387 (   0.1 sec)
nearest neighbour list constructed           ...    0.0 sec
Grid point re-assignment to atoms done       ...    0.0 sec
Grid point division into batches done        ...    0.0 sec
Reduced shell lists constructed in    0.2 sec

Total number of grid points                  ...    32387
Total number of batches                      ...      520
Average number of points per batch           ...       62
Average number of grid points per atom       ...     1117
Average number of shells per batch           ...   288.85 (84.21%)
Average number of basis functions per batch  ...   858.02 (83.71%)
Average number of large shells per batch     ...   235.21 (81.43%)
Average number of large basis fcns per batch ...   698.79 (81.44%)
Maximum spatial batch extension              ...   3.79,  4.31,  4.88 au
Average spatial batch extension              ...   0.18,  0.19,  0.18 au

Time for grid setup =    0.339 sec

Loading Hartree-Fock densities                     ... done
Calculating cut-offs                               ... done
Setting up the integral package                    ... done
Initializing the effective Hamiltonian             ... done
Starting the Coulomb interaction                   ... done (   1.1 sec)
Reading the grid                                   ... done
Mapping shells                                     ... done
Starting the XC term evaluation                    ... done (   0.8 sec)
Transforming the Hamiltonian                       ... done (   0.2 sec)
Diagonalizing the Hamiltonian                      ... done (   0.3 sec)
Back transforming the eigenvectors                 ... done (   0.1 sec)
Now organizing SCF variables                       ... done
--------------
SCF ITERATIONS
--------------
ITER       Energy         Delta-E        Max-DP      RMS-DP      [F,P]     Damp
               ***  Starting incremental Fock matrix formation  ***
  0  -3027.5874276005   0.000000000000 0.20322110  0.00098947  0.2531716 0.7000
  1  -3027.8387044099  -0.251276809448 0.15100827  0.00077441  0.1539132 0.7000
                               ***Turning on DIIS***
  2  -3028.0071826919  -0.168478281930 0.10544469  0.00057122  0.1094324 0.7000
  3  -3029.6050797420  -1.597897050190 0.24743792  0.00144075  0.0818359 0.0000
  4  -3028.3051050011   1.299974740899 0.04370992  0.00021723  0.0198226 0.0000
  5  -3028.4245694421  -0.119464440995 0.03956928  0.00017241  0.0110718 0.0000
  6  -3028.4693396019  -0.044770159757 0.01999053  0.00007007  0.0052060 0.0000
  7  -3028.4829362822  -0.013596680264 0.00880035  0.00003251  0.0033242 0.0000
  8  -3028.4725807551   0.010355527089 0.00618573  0.00001858  0.0015305 0.0000
  9  -3028.4678414983   0.004739256790 0.00231695  0.00001086  0.0007209 0.0000
 10  -3028.4557381497   0.012103348621 0.00092052  0.00000320  0.0004081 0.0000
 11  -3028.4613681911  -0.005630041449 0.00026993  0.00000173  0.0000729 0.0000
 12  -3028.4593693730   0.001998818157 0.00026793  0.00000135  0.0000231 0.0000
 13  -3028.4593823526  -0.000012979654 0.00061288  0.00000191  0.0000081 0.0000
 14  -3028.4594070196  -0.000024666963 0.00042942  0.00000201  0.0000048 0.0000
 15  -3028.4593554046   0.000051615015 0.00071110  0.00000177  0.0000027 0.0000
 16  -3028.4593657649  -0.000010360391 0.00058039  0.00000204  0.0000023 0.0000
 17  -3028.4593826689  -0.000016904001 0.00065675  0.00000185  0.0000015 0.0000
 18  -3028.4593663292   0.000016339743 0.00103102  0.00000339  0.0000012 0.0000
                            ***DIIS convergence achieved***

               *****************************************************
               *                     SUCCESS                       *
               *           SCF CONVERGED AFTER  19 CYCLES          *
               *****************************************************

Total Energy       :        -3028.45937142 Eh          -82408.56907 eV
  Last Energy change         ...   -5.0908e-06  Tolerance :   1.0000e-08
  Last MAX-Density change    ...    7.2015e-04  Tolerance :   1.0000e-07
             **** THE GBW FILE WAS UPDATED (simple-grid-240-275-b3lyp_d3bj-631gd-gas-singlepoint-DLPNO_CCSD_T1-NormalPNO-augtz-gas.gbw) ****
             **** DENSITY FILE WAS UPDATED (simple-grid-240-275-b3lyp_d3bj-631gd-gas-singlepoint-DLPNO_CCSD_T1-NormalPNO-augtz-gas.scfp.tmp) ****
             **** ENERGY FILE WAS UPDATED (simple-grid-240-275-b3lyp_d3bj-631gd-gas-singlepoint-DLPNO_CCSD_T1-NormalPNO-augtz-gas.en.tmp) ****
----------------------
UHF SPIN CONTAMINATION
----------------------

Expectation value of <S**2>     :     8.764759
Ideal value S*(S+1) for S=2.5   :     8.750000
Deviation                       :     0.014759

----------------
ORBITAL ENERGIES
----------------
                 SPIN UP ORBITALS
  NO   OCC          E(Eh)            E(eV) 
   0   1.0000    -261.570517     -7117.6956 
   1   1.0000    -104.790553     -2851.4959 
   2   1.0000    -104.786905     -2851.3966 
   3   1.0000    -104.785204     -2851.3504 
   4   1.0000     -32.238288      -877.2484 
   5   1.0000     -27.714649      -754.1539 
   6   1.0000     -27.713699      -754.1281 
   7   1.0000     -27.713511      -754.1230 
   8   1.0000     -20.605453      -560.7029 
   9   1.0000     -11.418414      -310.7108 
  10   1.0000     -11.285284      -307.0882 
  11   1.0000     -11.273826      -306.7764 
  12   1.0000     -11.268264      -306.6250 
  13   1.0000     -11.252010      -306.1828 
  14   1.0000     -11.251213      -306.1611 
  15   1.0000     -11.240209      -305.8616 
  16   1.0000     -11.235791      -305.7414 
  17   1.0000     -10.517250      -286.1889 
  18   1.0000     -10.513580      -286.0891 
  19   1.0000     -10.511832      -286.0415 
  20   1.0000      -7.984098      -217.2583 
  21   1.0000      -7.983312      -217.2370 
  22   1.0000      -7.983272      -217.2359 
  23   1.0000      -7.980449      -217.1591 
  24   1.0000      -7.979678      -217.1381 
  25   1.0000      -7.979621      -217.1365 
  26   1.0000      -7.978629      -217.1095 
  27   1.0000      -7.977955      -217.0912 
  28   1.0000      -7.977899      -217.0897 
  29   1.0000      -4.593286      -124.9897 
  30   1.0000      -3.206327       -87.2486 
  31   1.0000      -3.204812       -87.2074 
  32   1.0000      -3.204620       -87.2021 
  33   1.0000      -1.450243       -39.4631 
  34   1.0000      -1.138284       -30.9743 
  35   1.0000      -1.096230       -29.8299 
  36   1.0000      -1.063031       -28.9265 
  37   1.0000      -1.057199       -28.7679 
  38   1.0000      -1.054265       -28.6880 
  39   1.0000      -1.026163       -27.9233 
  40   1.0000      -1.005855       -27.3707 
  41   1.0000      -0.966998       -26.3134 
  42   1.0000      -0.938195       -25.5296 
  43   1.0000      -0.922302       -25.0971 
  44   1.0000      -0.922218       -25.0948 
  45   1.0000      -0.912012       -24.8171 
  46   1.0000      -0.911273       -24.7970 
  47   1.0000      -0.904109       -24.6021 
  48   1.0000      -0.807338       -21.9688 
  49   1.0000      -0.738928       -20.1073 
  50   1.0000      -0.704293       -19.1648 
  51   1.0000      -0.694825       -18.9071 
  52   1.0000      -0.684194       -18.6179 
  53   1.0000      -0.662694       -18.0328 
  54   1.0000      -0.628894       -17.1131 
  55   1.0000      -0.621671       -16.9165 
  56   1.0000      -0.605147       -16.4669 
  57   1.0000      -0.597839       -16.2680 
  58   1.0000      -0.584182       -15.8964 
  59   1.0000      -0.575935       -15.6720 
  60   1.0000      -0.561598       -15.2819 
  61   1.0000      -0.556493       -15.1430 
  62   1.0000      -0.547773       -14.9057 
  63   1.0000      -0.546860       -14.8808 
  64   1.0000      -0.534978       -14.5575 
  65   1.0000      -0.529666       -14.4130 
  66   1.0000      -0.502075       -13.6622 
  67   1.0000      -0.496874       -13.5206 
  68   1.0000      -0.473805       -12.8929 
  69   1.0000      -0.471720       -12.8362 
  70   1.0000      -0.442811       -12.0495 
  71   1.0000      -0.437439       -11.9033 
  72   1.0000      -0.435595       -11.8531 
  73   1.0000      -0.426927       -11.6173 
  74   1.0000      -0.425831       -11.5875 
  75   1.0000      -0.424620       -11.5545 
  76   1.0000      -0.365839        -9.9550 
  77   0.0000       0.012235         0.3329 
  78   0.0000       0.022743         0.6189 
  79   0.0000       0.023637         0.6432 
  80   0.0000       0.030241         0.8229 
  81   0.0000       0.038820         1.0564 
  82   0.0000       0.040703         1.1076 
  83   0.0000       0.042706         1.1621 
  84   0.0000       0.043791         1.1916 
  85   0.0000       0.044563         1.2126 
  86   0.0000       0.055155         1.5008 
  87   0.0000       0.056934         1.5493 
  88   0.0000       0.061127         1.6634 
  89   0.0000       0.063569         1.7298 
  90   0.0000       0.063896         1.7387 
  91   0.0000       0.066278         1.8035 
  92   0.0000       0.073006         1.9866 
  93   0.0000       0.077191         2.1005 
  94   0.0000       0.082085         2.2336 
  95   0.0000       0.090274         2.4565 
  96   0.0000       0.092018         2.5039 
  97   0.0000       0.094137         2.5616 
  98   0.0000       0.097724         2.6592 
  99   0.0000       0.101471         2.7612 
 100   0.0000       0.104027         2.8307 
 101   0.0000       0.107609         2.9282 
 102   0.0000       0.116345         3.1659 
 103   0.0000       0.121485         3.3058 
 104   0.0000       0.123582         3.3628 
 105   0.0000       0.124268         3.3815 
 106   0.0000       0.125971         3.4278 
 107   0.0000       0.127901         3.4804 
 108   0.0000       0.130828         3.5600 
 109   0.0000       0.133124         3.6225 
 110   0.0000       0.134892         3.6706 
 111   0.0000       0.138072         3.7571 
 112   0.0000       0.142941         3.8896 
 113   0.0000       0.145189         3.9508 
 114   0.0000       0.150635         4.0990 
 115   0.0000       0.151965         4.1352 
 116   0.0000       0.155591         4.2338 
 117   0.0000       0.161476         4.3940 
 118   0.0000       0.162438         4.4202 
 119   0.0000       0.166280         4.5247 
 120   0.0000       0.168995         4.5986 
 121   0.0000       0.170831         4.6486 
 122   0.0000       0.173918         4.7325 
 123   0.0000       0.181198         4.9306 
 124   0.0000       0.181527         4.9396 
 125   0.0000       0.185581         5.0499 
 126   0.0000       0.186711         5.0807 
 127   0.0000       0.191235         5.2038 
 128   0.0000       0.195690         5.3250 
 129   0.0000       0.197535         5.3752 
 130   0.0000       0.198778         5.4090 
 131   0.0000       0.200762         5.4630 
 132   0.0000       0.203809         5.5459 
 133   0.0000       0.208127         5.6634 
 134   0.0000       0.212825         5.7913 
 135   0.0000       0.216670         5.8959 
 136   0.0000       0.219062         5.9610 
 137   0.0000       0.225289         6.1304 
 138   0.0000       0.227164         6.1814 
 139   0.0000       0.232480         6.3261 
 140   0.0000       0.234532         6.3819 
 141   0.0000       0.237129         6.4526 
 142   0.0000       0.239316         6.5121 
 143   0.0000       0.242370         6.5952 
 144   0.0000       0.243806         6.6343 
 145   0.0000       0.245657         6.6847 
 146   0.0000       0.252326         6.8661 
 147   0.0000       0.256459         6.9786 
 148   0.0000       0.258190         7.0257 
 149   0.0000       0.260922         7.1000 
 150   0.0000       0.261703         7.1213 
 151   0.0000       0.267387         7.2760 
 152   0.0000       0.276687         7.5290 
 153   0.0000       0.280119         7.6224 
 154   0.0000       0.281002         7.6465 
 155   0.0000       0.287000         7.8097 
 156   0.0000       0.289309         7.8725 
 157   0.0000       0.291623         7.9355 
 158   0.0000       0.295486         8.0406 
 159   0.0000       0.305015         8.2999 
 160   0.0000       0.308397         8.3919 
 161   0.0000       0.312272         8.4973 
 162   0.0000       0.317694         8.6449 
 163   0.0000       0.319562         8.6957 
 164   0.0000       0.324412         8.8277 
 165   0.0000       0.328069         8.9272 
 166   0.0000       0.332044         9.0354 
 167   0.0000       0.336540         9.1577 
 168   0.0000       0.340090         9.2543 
 169   0.0000       0.342933         9.3317 
 170   0.0000       0.344105         9.3636 
 171   0.0000       0.352746         9.5987 
 172   0.0000       0.355450         9.6723 
 173   0.0000       0.359759         9.7895 
 174   0.0000       0.361041         9.8244 
 175   0.0000       0.366499         9.9729 
 176   0.0000       0.369530        10.0554 
 177   0.0000       0.372598        10.1389 
 178   0.0000       0.375825        10.2267 
 179   0.0000       0.378423        10.2974 
 180   0.0000       0.381758        10.3881 
 181   0.0000       0.383377        10.4322 
 182   0.0000       0.384144        10.4531 
 183   0.0000       0.385762        10.4971 
 184   0.0000       0.390681        10.6310 
 185   0.0000       0.392941        10.6925 
 186   0.0000       0.397566        10.8183 
 187   0.0000       0.400530        10.8990 
 188   0.0000       0.401689        10.9305 
 189   0.0000       0.406001        11.0478 
 190   0.0000       0.411155        11.1881 
 191   0.0000       0.414136        11.2692 
 192   0.0000       0.419343        11.4109 
 193   0.0000       0.424106        11.5405 
 194   0.0000       0.425848        11.5879 
 195   0.0000       0.433787        11.8040 
 196   0.0000       0.438391        11.9292 
 197   0.0000       0.439716        11.9653 
 198   0.0000       0.444218        12.0878 
 199   0.0000       0.444318        12.0905 
 200   0.0000       0.450833        12.2678 
 201   0.0000       0.452749        12.3199 
 202   0.0000       0.456170        12.4130 
 203   0.0000       0.458214        12.4686 
 204   0.0000       0.461772        12.5654 
 205   0.0000       0.465270        12.6606 
 206   0.0000       0.469935        12.7876 
 207   0.0000       0.473216        12.8769 
 208   0.0000       0.479031        13.0351 
 209   0.0000       0.479797        13.0559 
 210   0.0000       0.485747        13.2178 
 211   0.0000       0.488624        13.2961 
 212   0.0000       0.492941        13.4136 
 213   0.0000       0.496213        13.5026 
 214   0.0000       0.498492        13.5646 
 215   0.0000       0.502995        13.6872 
 216   0.0000       0.503363        13.6972 
 217   0.0000       0.507171        13.8008 
 218   0.0000       0.511566        13.9204 
 219   0.0000       0.513788        13.9809 
 220   0.0000       0.516243        14.0477 
 221   0.0000       0.518357        14.1052 
 222   0.0000       0.524015        14.2592 
 223   0.0000       0.525141        14.2898 
 224   0.0000       0.529479        14.4079 
 225   0.0000       0.531581        14.4651 
 226   0.0000       0.533335        14.5128 
 227   0.0000       0.535483        14.5712 
 228   0.0000       0.541653        14.7391 
 229   0.0000       0.544584        14.8189 
 230   0.0000       0.545497        14.8437 
 231   0.0000       0.551112        14.9965 
 232   0.0000       0.556488        15.1428 
 233   0.0000       0.559746        15.2315 
 234   0.0000       0.563309        15.3284 
 235   0.0000       0.566776        15.4228 
 236   0.0000       0.572246        15.5716 
 237   0.0000       0.574575        15.6350 
 238   0.0000       0.576276        15.6813 
 239   0.0000       0.584659        15.9094 
 240   0.0000       0.585570        15.9342 
 241   0.0000       0.587911        15.9979 
 242   0.0000       0.591108        16.0849 
 243   0.0000       0.595078        16.1929 
 244   0.0000       0.599879        16.3235 
 245   0.0000       0.601570        16.3695 
 246   0.0000       0.604384        16.4461 
 247   0.0000       0.613444        16.6927 
 248   0.0000       0.615471        16.7478 
 249   0.0000       0.618416        16.8279 
 250   0.0000       0.622113        16.9286 
 251   0.0000       0.628566        17.1041 
 252   0.0000       0.631031        17.1712 
 253   0.0000       0.635859        17.3026 
 254   0.0000       0.638235        17.3673 
 255   0.0000       0.643428        17.5086 
 256   0.0000       0.646749        17.5989 
 257   0.0000       0.650003        17.6875 
 258   0.0000       0.653051        17.7704 
 259   0.0000       0.658102        17.9079 
 260   0.0000       0.662776        18.0351 
 261   0.0000       0.664970        18.0948 
 262   0.0000       0.668583        18.1931 
 263   0.0000       0.672987        18.3129 
 264   0.0000       0.674655        18.3583 
 265   0.0000       0.681906        18.5556 
 266   0.0000       0.688063        18.7232 
 267   0.0000       0.690596        18.7921 
 268   0.0000       0.695181        18.9168 
 269   0.0000       0.696112        18.9422 
 270   0.0000       0.704245        19.1635 
 271   0.0000       0.710715        19.3396 
 272   0.0000       0.711066        19.3491 
 273   0.0000       0.715612        19.4728 
 274   0.0000       0.721666        19.6375 
 275   0.0000       0.725580        19.7440 
 276   0.0000       0.730149        19.8684 
 277   0.0000       0.733393        19.9566 
 278   0.0000       0.738236        20.0884 
 279   0.0000       0.744067        20.2471 
 280   0.0000       0.746412        20.3109 
 281   0.0000       0.747939        20.3525 
 282   0.0000       0.761443        20.7199 
 283   0.0000       0.762910        20.7598 
 284   0.0000       0.766420        20.8553 
 285   0.0000       0.780148        21.2289 
 286   0.0000       0.782599        21.2956 
 287   0.0000       0.788501        21.4562 
 288   0.0000       0.799738        21.7620 
 289   0.0000       0.802015        21.8239 
 290   0.0000       0.813326        22.1317 
 291   0.0000       0.816822        22.2269 
 292   0.0000       0.823227        22.4011 
 293   0.0000       0.827242        22.5104 
 294   0.0000       0.834655        22.7121 
 295   0.0000       0.836855        22.7720 
 296   0.0000       0.843217        22.9451 
 297   0.0000       0.846729        23.0407 
 298   0.0000       0.854720        23.2581 
 299   0.0000       0.855536        23.2803 
 300   0.0000       0.859872        23.3983 
 301   0.0000       0.860484        23.4150 
 302   0.0000       0.866067        23.5669 
 303   0.0000       0.874636        23.8001 
 304   0.0000       0.879499        23.9324 
 305   0.0000       0.885507        24.0959 
 306   0.0000       0.887893        24.1608 
 307   0.0000       0.890880        24.2421 
 308   0.0000       0.903207        24.5775 
 309   0.0000       0.907563        24.6961 
 310   0.0000       0.908451        24.7202 
 311   0.0000       0.916602        24.9420 
 312   0.0000       0.920327        25.0434 
 313   0.0000       0.921570        25.0772 
 314   0.0000       0.923348        25.1256 
 315   0.0000       0.928980        25.2788 
 316   0.0000       0.933894        25.4126 
 317   0.0000       0.936579        25.4856 
 318   0.0000       0.940715        25.5982 
 319   0.0000       0.941940        25.6315 
 320   0.0000       0.943610        25.6769 
 321   0.0000       0.949512        25.8375 
 322   0.0000       0.953922        25.9575 
 323   0.0000       0.955286        25.9947 
 324   0.0000       0.960669        26.1411 
 325   0.0000       0.962200        26.1828 
 326   0.0000       0.969564        26.3832 
 327   0.0000       0.971404        26.4333 
 328   0.0000       0.975968        26.5574 
 329   0.0000       0.976995        26.5854 
 330   0.0000       0.981661        26.7123 
 331   0.0000       0.983478        26.7618 
 332   0.0000       0.986823        26.8528 
 333   0.0000       0.988645        26.9024 
 334   0.0000       0.994058        27.0497 
 335   0.0000       0.999028        27.1849 
 336   0.0000       1.006308        27.3830 
 337   0.0000       1.009313        27.4648 
 338   0.0000       1.013493        27.5785 
 339   0.0000       1.019431        27.7401 
 340   0.0000       1.021851        27.8060 
 341   0.0000       1.025030        27.8925 
 342   0.0000       1.025629        27.9088 
 343   0.0000       1.030053        28.0292 
 344   0.0000       1.032194        28.0874 
 345   0.0000       1.032883        28.1062 
 346   0.0000       1.041607        28.3436 
 347   0.0000       1.044760        28.4294 
 348   0.0000       1.045246        28.4426 
 349   0.0000       1.050280        28.5796 
 350   0.0000       1.052123        28.6297 
 351   0.0000       1.055661        28.7260 
 352   0.0000       1.061467        28.8840 
 353   0.0000       1.065082        28.9824 
 354   0.0000       1.068780        29.0830 
 355   0.0000       1.072342        29.1799 
 356   0.0000       1.079636        29.3784 
 357   0.0000       1.085342        29.5337 
 358   0.0000       1.086823        29.5740 
 359   0.0000       1.089167        29.6377 
 360   0.0000       1.089985        29.6600 
 361   0.0000       1.095467        29.8092 
 362   0.0000       1.102946        30.0127 
 363   0.0000       1.107477        30.1360 
 364   0.0000       1.107658        30.1409 
 365   0.0000       1.114688        30.3322 
 366   0.0000       1.116190        30.3731 
 367   0.0000       1.122793        30.5527 
 368   0.0000       1.125673        30.6311 
 369   0.0000       1.129210        30.7274 
 370   0.0000       1.134791        30.8792 
 371   0.0000       1.135720        30.9045 
 372   0.0000       1.143885        31.1267 
 373   0.0000       1.145650        31.1747 
 374   0.0000       1.151621        31.3372 
 375   0.0000       1.157938        31.5091 
 376   0.0000       1.162213        31.6254 
 377   0.0000       1.164643        31.6915 
 378   0.0000       1.168470        31.7957 
 379   0.0000       1.177523        32.0420 
 380   0.0000       1.182607        32.1804 
 381   0.0000       1.187984        32.3267 
 382   0.0000       1.189948        32.3801 
 383   0.0000       1.195716        32.5371 
 384   0.0000       1.197491        32.5854 
 385   0.0000       1.203272        32.7427 
 386   0.0000       1.207022        32.8447 
 387   0.0000       1.211146        32.9570 
 388   0.0000       1.217541        33.1310 
 389   0.0000       1.225289        33.3418 
 390   0.0000       1.231591        33.5133 
 391   0.0000       1.234118        33.5821 
 392   0.0000       1.236587        33.6492 
 393   0.0000       1.241297        33.7774 
 394   0.0000       1.244953        33.8769 
 395   0.0000       1.250670        34.0325 
 396   0.0000       1.251114        34.0445 
 397   0.0000       1.260886        34.3104 
 398   0.0000       1.267487        34.4901 
 399   0.0000       1.269942        34.5569 
 400   0.0000       1.273361        34.6499 
 401   0.0000       1.275496        34.7080 
 402   0.0000       1.282028        34.8858 
 403   0.0000       1.290621        35.1196 
 404   0.0000       1.294689        35.2303 
 405   0.0000       1.302289        35.4371 
 406   0.0000       1.305440        35.5228 
 407   0.0000       1.310011        35.6472 
 408   0.0000       1.313119        35.7318 
 409   0.0000       1.315913        35.8078 
 410   0.0000       1.317976        35.8639 
 411   0.0000       1.326754        36.1028 
 412   0.0000       1.328731        36.1566 
 413   0.0000       1.330150        36.1952 
 414   0.0000       1.339719        36.4556 
 415   0.0000       1.347922        36.6788 
 416   0.0000       1.351399        36.7734 
 417   0.0000       1.358969        36.9794 
 418   0.0000       1.368645        37.2427 
 419   0.0000       1.373050        37.3626 
 420   0.0000       1.376480        37.4559 
 421   0.0000       1.382611        37.6228 
 422   0.0000       1.387681        37.7607 
 423   0.0000       1.389025        37.7973 
 424   0.0000       1.391992        37.8780 
 425   0.0000       1.400989        38.1229 
 426   0.0000       1.405951        38.2579 
 427   0.0000       1.412948        38.4483 
 428   0.0000       1.416344        38.5407 
 429   0.0000       1.423919        38.7468 
 430   0.0000       1.424954        38.7750 
 431   0.0000       1.430880        38.9362 
 432   0.0000       1.439416        39.1685 
 433   0.0000       1.443080        39.2682 
 434   0.0000       1.449119        39.4325 
 435   0.0000       1.460460        39.7411 
 436   0.0000       1.462451        39.7953 
 437   0.0000       1.468644        39.9638 
 438   0.0000       1.474535        40.1241 
 439   0.0000       1.477233        40.1976 
 440   0.0000       1.486365        40.4460 
 441   0.0000       1.489100        40.5205 
 442   0.0000       1.493873        40.6504 
 443   0.0000       1.496726        40.7280 
 444   0.0000       1.500809        40.8391 
 445   0.0000       1.505919        40.9781 
 446   0.0000       1.513477        41.1838 
 447   0.0000       1.515464        41.2379 
 448   0.0000       1.522355        41.4254 
 449   0.0000       1.525713        41.5168 
 450   0.0000       1.528846        41.6020 
 451   0.0000       1.537133        41.8275 
 452   0.0000       1.538853        41.8743 
 453   0.0000       1.542607        41.9765 
 454   0.0000       1.549166        42.1549 
 455   0.0000       1.557345        42.3775 
 456   0.0000       1.561310        42.4854 
 457   0.0000       1.569954        42.7206 
 458   0.0000       1.576034        42.8861 
 459   0.0000       1.578211        42.9453 
 460   0.0000       1.583965        43.1019 
 461   0.0000       1.590478        43.2791 
 462   0.0000       1.596500        43.4430 
 463   0.0000       1.602397        43.6034 
 464   0.0000       1.604348        43.6565 
 465   0.0000       1.609107        43.7860 
 466   0.0000       1.612797        43.8864 
 467   0.0000       1.616220        43.9796 
 468   0.0000       1.630269        44.3619 
 469   0.0000       1.632151        44.4131 
 470   0.0000       1.634037        44.4644 
 471   0.0000       1.640058        44.6282 
 472   0.0000       1.646944        44.8156 
 473   0.0000       1.652040        44.9543 
 474   0.0000       1.660960        45.1970 
 475   0.0000       1.662349        45.2348 
 476   0.0000       1.672253        45.5043 
 477   0.0000       1.677385        45.6440 
 478   0.0000       1.681007        45.7425 
 479   0.0000       1.687413        45.9168 
 480   0.0000       1.695311        46.1318 
 481   0.0000       1.698695        46.2239 
 482   0.0000       1.706696        46.4416 
 483   0.0000       1.707948        46.4756 
 484   0.0000       1.711893        46.5830 
 485   0.0000       1.717758        46.7426 
 486   0.0000       1.726673        46.9852 
 487   0.0000       1.728994        47.0483 
 488   0.0000       1.735456        47.2241 
 489   0.0000       1.740314        47.3564 
 490   0.0000       1.744684        47.4753 
 491   0.0000       1.752539        47.6890 
 492   0.0000       1.756346        47.7926 
 493   0.0000       1.762057        47.9480 
 494   0.0000       1.763826        47.9962 
 495   0.0000       1.767523        48.0967 
 496   0.0000       1.771725        48.2111 
 497   0.0000       1.774368        48.2830 
 498   0.0000       1.781651        48.4812 
 499   0.0000       1.788615        48.6707 
 500   0.0000       1.796086        48.8740 
 501   0.0000       1.803093        49.0647 
 502   0.0000       1.809399        49.2363 
 503   0.0000       1.810969        49.2790 
 504   0.0000       1.812167        49.3116 
 505   0.0000       1.825235        49.6672 
 506   0.0000       1.830248        49.8036 
 507   0.0000       1.832850        49.8744 
 508   0.0000       1.839134        50.0454 
 509   0.0000       1.845638        50.2224 
 510   0.0000       1.848246        50.2933 
 511   0.0000       1.854831        50.4725 
 512   0.0000       1.863211        50.7005 
 513   0.0000       1.866015        50.7769 
 514   0.0000       1.871490        50.9258 
 515   0.0000       1.874458        51.0066 
 516   0.0000       1.880476        51.1704 
 517   0.0000       1.884400        51.2771 
 518   0.0000       1.891247        51.4634 
 519   0.0000       1.894985        51.5652 
 520   0.0000       1.897425        51.6316 
 521   0.0000       1.900328        51.7106 
 522   0.0000       1.909631        51.9637 
 523   0.0000       1.910252        51.9806 
 524   0.0000       1.922787        52.3217 
 525   0.0000       1.927701        52.4554 
 526   0.0000       1.929315        52.4993 
 527   0.0000       1.935944        52.6797 
 528   0.0000       1.940511        52.8040 
 529   0.0000       1.944453        52.9112 
 530   0.0000       1.951390        53.1000 
 531   0.0000       1.958539        53.2945 
 532   0.0000       1.961374        53.3717 
 533   0.0000       1.967849        53.5479 
 534   0.0000       1.977126        53.8003 
 535   0.0000       1.985317        54.0232 
 536   0.0000       1.988653        54.1140 
 537   0.0000       1.991617        54.1947 
 538   0.0000       2.001965        54.4762 
 539   0.0000       2.008268        54.6477 
 540   0.0000       2.015371        54.8410 
 541   0.0000       2.020986        54.9938 
 542   0.0000       2.028100        55.1874 
 543   0.0000       2.035164        55.3796 
 544   0.0000       2.040428        55.5229 
 545   0.0000       2.048076        55.7310 
 546   0.0000       2.051696        55.8295 
 547   0.0000       2.059228        56.0345 
 548   0.0000       2.061585        56.0986 
 549   0.0000       2.073279        56.4168 
 550   0.0000       2.076722        56.5105 
 551   0.0000       2.082897        56.6785 
 552   0.0000       2.093467        56.9661 
 553   0.0000       2.103186        57.2306 
 554   0.0000       2.110260        57.4231 
 555   0.0000       2.118625        57.6507 
 556   0.0000       2.119188        57.6660 
 557   0.0000       2.125919        57.8492 
 558   0.0000       2.137129        58.1542 
 559   0.0000       2.138373        58.1881 
 560   0.0000       2.147407        58.4339 
 561   0.0000       2.153460        58.5986 
 562   0.0000       2.159719        58.7690 
 563   0.0000       2.170445        59.0608 
 564   0.0000       2.172492        59.1165 
 565   0.0000       2.185174        59.4616 
 566   0.0000       2.188571        59.5540 
 567   0.0000       2.192995        59.6744 
 568   0.0000       2.199508        59.8516 
 569   0.0000       2.206387        60.0388 
 570   0.0000       2.216116        60.3036 
 571   0.0000       2.220848        60.4324 
 572   0.0000       2.226908        60.5973 
 573   0.0000       2.233970        60.7894 
 574   0.0000       2.236029        60.8454 
 575   0.0000       2.251212        61.2586 
 576   0.0000       2.261038        61.5260 
 577   0.0000       2.265396        61.6446 
 578   0.0000       2.270973        61.7963 
 579   0.0000       2.277921        61.9854 
 580   0.0000       2.287378        62.2427 
 581   0.0000       2.298682        62.5503 
 582   0.0000       2.301932        62.6387 
 583   0.0000       2.309495        62.8446 
 584   0.0000       2.320826        63.1529 
 585   0.0000       2.324001        63.2393 
 586   0.0000       2.338600        63.6365 
 587   0.0000       2.341972        63.7283 
 588   0.0000       2.349197        63.9249 
 589   0.0000       2.356472        64.1229 
 590   0.0000       2.359921        64.2167 
 591   0.0000       2.366426        64.3937 
 592   0.0000       2.381776        64.8114 
 593   0.0000       2.392772        65.1106 
 594   0.0000       2.394620        65.1609 
 595   0.0000       2.406376        65.4808 
 596   0.0000       2.414012        65.6886 
 597   0.0000       2.419454        65.8367 
 598   0.0000       2.421509        65.8926 
 599   0.0000       2.431616        66.1676 
 600   0.0000       2.442067        66.4520 
 601   0.0000       2.448386        66.6240 
 602   0.0000       2.454992        66.8037 
 603   0.0000       2.462315        67.0030 
 604   0.0000       2.469930        67.2102 
 605   0.0000       2.480213        67.4900 
 606   0.0000       2.488342        67.7112 
 607   0.0000       2.506261        68.1988 
 608   0.0000       2.509914        68.2982 
 609   0.0000       2.525974        68.7353 
 610   0.0000       2.534258        68.9607 
 611   0.0000       2.545230        69.2592 
 612   0.0000       2.560240        69.6677 
 613   0.0000       2.573641        70.0323 
 614   0.0000       2.579372        70.1883 
 615   0.0000       2.586389        70.3792 
 616   0.0000       2.604234        70.8648 
 617   0.0000       2.620537        71.3084 
 618   0.0000       2.636995        71.7563 
 619   0.0000       2.640200        71.8435 
 620   0.0000       2.651459        72.1499 
 621   0.0000       2.663539        72.4786 
 622   0.0000       2.669155        72.6314 
 623   0.0000       2.674922        72.7883 
 624   0.0000       2.678422        72.8836 
 625   0.0000       2.699214        73.4494 
 626   0.0000       2.699906        73.4682 
 627   0.0000       2.710214        73.7487 
 628   0.0000       2.721155        74.0464 
 629   0.0000       2.732947        74.3673 
 630   0.0000       2.736461        74.4629 
 631   0.0000       2.753651        74.9306 
 632   0.0000       2.769155        75.3525 
 633   0.0000       2.771327        75.4116 
 634   0.0000       2.776838        75.5616 
 635   0.0000       2.788832        75.8880 
 636   0.0000       2.792704        75.9933 
 637   0.0000       2.807996        76.4095 
 638   0.0000       2.813137        76.5493 
 639   0.0000       2.824191        76.8502 
 640   0.0000       2.849319        77.5339 
 641   0.0000       2.858519        77.7843 
 642   0.0000       2.861904        77.8764 
 643   0.0000       2.876909        78.2847 
 644   0.0000       2.887904        78.5839 
 645   0.0000       2.894389        78.7603 
 646   0.0000       2.906450        79.0885 
 647   0.0000       2.916046        79.3496 
 648   0.0000       2.933662        79.8290 
 649   0.0000       2.943359        80.0929 
 650   0.0000       2.950836        80.2963 
 651   0.0000       2.962836        80.6229 
 652   0.0000       2.983286        81.1793 
 653   0.0000       3.014353        82.0247 
 654   0.0000       3.017259        82.1038 
 655   0.0000       3.037328        82.6499 
 656   0.0000       3.058722        83.2321 
 657   0.0000       3.065442        83.4149 
 658   0.0000       3.078754        83.7772 
 659   0.0000       3.095872        84.2430 
 660   0.0000       3.100062        84.3570 
 661   0.0000       3.109348        84.6097 
 662   0.0000       3.129116        85.1476 
 663   0.0000       3.153253        85.8044 
 664   0.0000       3.165193        86.1293 
 665   0.0000       3.181142        86.5633 
 666   0.0000       3.186527        86.7098 
 667   0.0000       3.196911        86.9924 
 668   0.0000       3.213668        87.4483 
 669   0.0000       3.217923        87.5641 
 670   0.0000       3.219906        87.6181 
 671   0.0000       3.228750        87.8588 
 672   0.0000       3.248194        88.3878 
 673   0.0000       3.252926        88.5166 
 674   0.0000       3.260084        88.7114 
 675   0.0000       3.274844        89.1130 
 676   0.0000       3.277272        89.1791 
 677   0.0000       3.284844        89.3852 
 678   0.0000       3.294299        89.6424 
 679   0.0000       3.304449        89.9186 
 680   0.0000       3.321432        90.3808 
 681   0.0000       3.327398        90.5431 
 682   0.0000       3.333210        90.7013 
 683   0.0000       3.339681        90.8773 
 684   0.0000       3.350261        91.1652 
 685   0.0000       3.356628        91.3385 
 686   0.0000       3.367699        91.6398 
 687   0.0000       3.394409        92.3666 
 688   0.0000       3.398838        92.4871 
 689   0.0000       3.411285        92.8258 
 690   0.0000       3.421859        93.1135 
 691   0.0000       3.435028        93.4719 
 692   0.0000       3.445811        93.7653 
 693   0.0000       3.450767        93.9001 
 694   0.0000       3.456635        94.0598 
 695   0.0000       3.468866        94.3926 
 696   0.0000       3.475956        94.5856 
 697   0.0000       3.487017        94.8865 
 698   0.0000       3.494462        95.0891 
 699   0.0000       3.502042        95.2954 
 700   0.0000       3.503763        95.3422 
 701   0.0000       3.512157        95.5706 
 702   0.0000       3.521768        95.8322 
 703   0.0000       3.531918        96.1084 
 704   0.0000       3.537896        96.2710 
 705   0.0000       3.546417        96.5029 
 706   0.0000       3.552060        96.6565 
 707   0.0000       3.561661        96.9177 
 708   0.0000       3.569351        97.1270 
 709   0.0000       3.578526        97.3766 
 710   0.0000       3.584504        97.5393 
 711   0.0000       3.588661        97.6524 
 712   0.0000       3.600835        97.9837 
 713   0.0000       3.613241        98.3213 
 714   0.0000       3.622408        98.5707 
 715   0.0000       3.631614        98.8212 
 716   0.0000       3.639274        99.0297 
 717   0.0000       3.657532        99.5265 
 718   0.0000       3.665070        99.7316 
 719   0.0000       3.667415        99.7954 
 720   0.0000       3.675211       100.0076 
 721   0.0000       3.683072       100.2215 
 722   0.0000       3.686952       100.3271 
 723   0.0000       3.689062       100.3845 
 724   0.0000       3.694565       100.5342 
 725   0.0000       3.705836       100.8409 
 726   0.0000       3.717034       101.1456 
 727   0.0000       3.724849       101.3583 
 728   0.0000       3.726441       101.4016 
 729   0.0000       3.733000       101.5801 
 730   0.0000       3.749728       102.0353 
 731   0.0000       3.754470       102.1643 
 732   0.0000       3.759065       102.2894 
 733   0.0000       3.766332       102.4871 
 734   0.0000       3.776632       102.7674 
 735   0.0000       3.780290       102.8669 
 736   0.0000       3.785683       103.0137 
 737   0.0000       3.802461       103.4702 
 738   0.0000       3.805048       103.5406 
 739   0.0000       3.812342       103.7391 
 740   0.0000       3.822968       104.0282 
 741   0.0000       3.826629       104.1279 
 742   0.0000       3.830208       104.2253 
 743   0.0000       3.834162       104.3328 
 744   0.0000       3.844703       104.6197 
 745   0.0000       3.855476       104.9128 
 746   0.0000       3.869128       105.2843 
 747   0.0000       3.872835       105.3852 
 748   0.0000       3.883745       105.6821 
 749   0.0000       3.890341       105.8616 
 750   0.0000       3.895825       106.0108 
 751   0.0000       3.900698       106.1434 
 752   0.0000       3.908670       106.3603 
 753   0.0000       3.909818       106.3915 
 754   0.0000       3.912529       106.4653 
 755   0.0000       3.926047       106.8332 
 756   0.0000       3.928775       106.9074 
 757   0.0000       3.939219       107.1916 
 758   0.0000       3.945982       107.3756 
 759   0.0000       3.960654       107.7749 
 760   0.0000       3.964298       107.8740 
 761   0.0000       3.966817       107.9426 
 762   0.0000       3.969392       108.0127 
 763   0.0000       3.977124       108.2230 
 764   0.0000       3.983438       108.3949 
 765   0.0000       3.991209       108.6063 
 766   0.0000       3.996430       108.7484 
 767   0.0000       4.007513       109.0500 
 768   0.0000       4.014589       109.2425 
 769   0.0000       4.027411       109.5914 
 770   0.0000       4.029363       109.6445 
 771   0.0000       4.034268       109.7780 
 772   0.0000       4.044065       110.0446 
 773   0.0000       4.049680       110.1974 
 774   0.0000       4.055505       110.3559 
 775   0.0000       4.068064       110.6976 
 776   0.0000       4.071921       110.8026 
 777   0.0000       4.079329       111.0042 
 778   0.0000       4.092508       111.3628 
 779   0.0000       4.108480       111.7974 
 780   0.0000       4.115208       111.9805 
 781   0.0000       4.115388       111.9854 
 782   0.0000       4.122607       112.1818 
 783   0.0000       4.128088       112.3310 
 784   0.0000       4.131874       112.4340 
 785   0.0000       4.136867       112.5699 
 786   0.0000       4.142257       112.7165 
 787   0.0000       4.155938       113.0888 
 788   0.0000       4.163611       113.2976 
 789   0.0000       4.168560       113.4323 
 790   0.0000       4.181925       113.7960 
 791   0.0000       4.188873       113.9850 
 792   0.0000       4.199394       114.2713 
 793   0.0000       4.218406       114.7887 
 794   0.0000       4.224762       114.9616 
 795   0.0000       4.227917       115.0475 
 796   0.0000       4.237420       115.3061 
 797   0.0000       4.250303       115.6566 
 798   0.0000       4.254985       115.7840 
 799   0.0000       4.267473       116.1238 
 800   0.0000       4.276674       116.3742 
 801   0.0000       4.287552       116.6702 
 802   0.0000       4.296311       116.9086 
 803   0.0000       4.303416       117.1019 
 804   0.0000       4.315435       117.4290 
 805   0.0000       4.323628       117.6519 
 806   0.0000       4.337243       118.0224 
 807   0.0000       4.339627       118.0872 
 808   0.0000       4.344086       118.2086 
 809   0.0000       4.347464       118.3005 
 810   0.0000       4.369329       118.8955 
 811   0.0000       4.374468       119.0353 
 812   0.0000       4.385469       119.3347 
 813   0.0000       4.393382       119.5500 
 814   0.0000       4.404013       119.8393 
 815   0.0000       4.405895       119.8905 
 816   0.0000       4.418154       120.2241 
 817   0.0000       4.431094       120.5762 
 818   0.0000       4.438091       120.7666 
 819   0.0000       4.448747       121.0566 
 820   0.0000       4.459294       121.3436 
 821   0.0000       4.473048       121.7178 
 822   0.0000       4.484580       122.0316 
 823   0.0000       4.495136       122.3189 
 824   0.0000       4.501708       122.4977 
 825   0.0000       4.505310       122.5957 
 826   0.0000       4.516303       122.8949 
 827   0.0000       4.523883       123.1011 
 828   0.0000       4.531862       123.3182 
 829   0.0000       4.539186       123.5175 
 830   0.0000       4.541296       123.5750 
 831   0.0000       4.551858       123.8624 
 832   0.0000       4.563478       124.1785 
 833   0.0000       4.578626       124.5908 
 834   0.0000       4.588283       124.8535 
 835   0.0000       4.606733       125.3556 
 836   0.0000       4.613074       125.5281 
 837   0.0000       4.628027       125.9350 
 838   0.0000       4.642063       126.3169 
 839   0.0000       4.651329       126.5691 
 840   0.0000       4.663382       126.8971 
 841   0.0000       4.665664       126.9592 
 842   0.0000       4.678869       127.3185 
 843   0.0000       4.682047       127.4050 
 844   0.0000       4.692722       127.6954 
 845   0.0000       4.714127       128.2779 
 846   0.0000       4.716348       128.3384 
 847   0.0000       4.722446       128.5043 
 848   0.0000       4.733083       128.7937 
 849   0.0000       4.738801       128.9493 
 850   0.0000       4.773195       129.8853 
 851   0.0000       4.783119       130.1553 
 852   0.0000       4.796296       130.5139 
 853   0.0000       4.806111       130.7809 
 854   0.0000       4.819441       131.1437 
 855   0.0000       4.831273       131.4656 
 856   0.0000       4.835542       131.5818 
 857   0.0000       4.842088       131.7599 
 858   0.0000       4.852390       132.0402 
 859   0.0000       4.878927       132.7623 
 860   0.0000       4.884707       132.9196 
 861   0.0000       4.896458       133.2394 
 862   0.0000       4.908713       133.5729 
 863   0.0000       4.916112       133.7742 
 864   0.0000       4.923914       133.9865 
 865   0.0000       4.937206       134.3482 
 866   0.0000       4.948767       134.6628 
 867   0.0000       4.971435       135.2796 
 868   0.0000       4.974001       135.3494 
 869   0.0000       4.980540       135.5274 
 870   0.0000       4.997103       135.9781 
 871   0.0000       5.003603       136.1550 
 872   0.0000       5.016066       136.4941 
 873   0.0000       5.028284       136.8266 
 874   0.0000       5.038296       137.0990 
 875   0.0000       5.043283       137.2347 
 876   0.0000       5.054506       137.5401 
 877   0.0000       5.064842       137.8214 
 878   0.0000       5.085065       138.3716 
 879   0.0000       5.088139       138.4553 
 880   0.0000       5.113743       139.1520 
 881   0.0000       5.117432       139.2524 
 882   0.0000       5.129246       139.5739 
 883   0.0000       5.148349       140.0937 
 884   0.0000       5.148955       140.1102 
 885   0.0000       5.167432       140.6130 
 886   0.0000       5.171789       140.7315 
 887   0.0000       5.183407       141.0477 
 888   0.0000       5.198685       141.4634 
 889   0.0000       5.216323       141.9434 
 890   0.0000       5.232653       142.3877 
 891   0.0000       5.238686       142.5519 
 892   0.0000       5.253549       142.9563 
 893   0.0000       5.266655       143.3130 
 894   0.0000       5.268287       143.3574 
 895   0.0000       5.278163       143.6261 
 896   0.0000       5.290950       143.9741 
 897   0.0000       5.304886       144.3533 
 898   0.0000       5.319026       144.7381 
 899   0.0000       5.334911       145.1703 
 900   0.0000       5.350199       145.5863 
 901   0.0000       5.362108       145.9104 
 902   0.0000       5.370321       146.1339 
 903   0.0000       5.393398       146.7618 
 904   0.0000       5.404351       147.0599 
 905   0.0000       5.413738       147.3153 
 906   0.0000       5.424824       147.6170 
 907   0.0000       5.449407       148.2859 
 908   0.0000       5.455584       148.4540 
 909   0.0000       5.457577       148.5082 
 910   0.0000       5.460907       148.5988 
 911   0.0000       5.473867       148.9515 
 912   0.0000       5.479191       149.0964 
 913   0.0000       5.488698       149.3551 
 914   0.0000       5.518508       150.1662 
 915   0.0000       5.535447       150.6272 
 916   0.0000       5.543741       150.8529 
 917   0.0000       5.559382       151.2785 
 918   0.0000       5.574308       151.6846 
 919   0.0000       5.582798       151.9157 
 920   0.0000       5.592320       152.1748 
 921   0.0000       5.598703       152.3484 
 922   0.0000       5.618056       152.8751 
 923   0.0000       5.620762       152.9487 
 924   0.0000       5.625084       153.0663 
 925   0.0000       5.649897       153.7415 
 926   0.0000       5.659156       153.9935 
 927   0.0000       5.664420       154.1367 
 928   0.0000       5.675851       154.4478 
 929   0.0000       5.692341       154.8965 
 930   0.0000       5.707478       155.3084 
 931   0.0000       5.713254       155.4655 
 932   0.0000       5.733251       156.0097 
 933   0.0000       5.736653       156.1023 
 934   0.0000       5.756480       156.6418 
 935   0.0000       5.771115       157.0400 
 936   0.0000       5.775270       157.1531 
 937   0.0000       5.788460       157.5120 
 938   0.0000       5.808610       158.0603 
 939   0.0000       5.819802       158.3649 
 940   0.0000       5.834778       158.7724 
 941   0.0000       5.864058       159.5691 
 942   0.0000       5.875307       159.8752 
 943   0.0000       5.907032       160.7385 
 944   0.0000       5.914338       160.9373 
 945   0.0000       6.005115       163.4075 
 946   0.0000       6.059735       164.8938 
 947   0.0000       6.079313       165.4265 
 948   0.0000       6.105511       166.1394 
 949   0.0000       6.122316       166.5967 
 950   0.0000       6.145320       167.2227 
 951   0.0000       6.157668       167.5587 
 952   0.0000       6.184574       168.2908 
 953   0.0000       6.201685       168.7564 
 954   0.0000       6.215609       169.1353 
 955   0.0000       6.236267       169.6974 
 956   0.0000       6.246636       169.9796 
 957   0.0000       6.261140       170.3743 
 958   0.0000       6.272448       170.6820 
 959   0.0000       6.284615       171.0131 
 960   0.0000       6.303924       171.5385 
 961   0.0000       6.316216       171.8730 
 962   0.0000       6.328217       172.1995 
 963   0.0000       6.352847       172.8698 
 964   0.0000       6.364007       173.1734 
 965   0.0000       6.378464       173.5668 
 966   0.0000       6.397827       174.0937 
 967   0.0000       6.409367       174.4077 
 968   0.0000       6.471182       176.0898 
 969   0.0000       6.519343       177.4003 
 970   0.0000       6.583021       179.1331 
 971   0.0000       6.648009       180.9015 
 972   0.0000       6.834152       185.9667 
 973   0.0000       6.841995       186.1801 
 974   0.0000       6.872966       187.0229 
 975   0.0000       6.889342       187.4685 
 976   0.0000       6.919808       188.2975 
 977   0.0000       6.944862       188.9793 
 978   0.0000       6.970616       189.6801 
 979   0.0000       7.001563       190.5222 
 980   0.0000       7.018722       190.9891 
 981   0.0000       7.021509       191.0650 
 982   0.0000       7.030381       191.3064 
 983   0.0000       7.065346       192.2578 
 984   0.0000       7.069821       192.3796 
 985   0.0000       7.136436       194.1923 
 986   0.0000       7.255946       197.4443 
 987   0.0000       7.335321       199.6042 
 988   0.0000       7.347292       199.9300 
 989   0.0000       7.419871       201.9050 
 990   0.0000       7.518057       204.5767 
 991   0.0000       7.588824       206.5024 
 992   0.0000       7.652357       208.2312 
 993   0.0000       7.688669       209.2193 
 994   0.0000       7.772041       211.4880 
 995   0.0000       7.877885       214.3682 
 996   0.0000       7.934547       215.9100 
 997   0.0000       8.017895       218.1780 
 998   0.0000       8.273079       225.1219 
 999   0.0000       9.409276       256.0394 
 1000   0.0000       9.425095       256.4699 
 1001   0.0000       9.435146       256.7434 
 1002   0.0000       9.449516       257.1344 
 1003   0.0000       9.462519       257.4882 
 1004   0.0000       9.489561       258.2241 
 1005   0.0000       9.676839       263.3202 
 1006   0.0000      10.089052       274.5371 
 1007   0.0000      10.095472       274.7118 
 1008   0.0000      10.108378       275.0629 
 1009   0.0000      10.204927       277.6902 
 1010   0.0000      10.212907       277.9073 
 1011   0.0000      10.238633       278.6074 
 1012   0.0000      10.345115       281.5049 
 1013   0.0000      10.390686       282.7449 
 1014   0.0000      10.474823       285.0344 
 1015   0.0000      11.914954       324.2224 
 1016   0.0000      16.989576       462.3099 
 1017   0.0000      17.684696       481.2250 
 1018   0.0000      18.233191       496.1503 
 1019   0.0000      18.462277       502.3841 
 1020   0.0000      18.639745       507.2133 
 1021   0.0000      18.780877       511.0537 
 1022   0.0000      20.420852       555.6796 
 1023   0.0000      21.054060       572.9101 
 1024   0.0000      21.700525       590.5013 

                 SPIN DOWN ORBITALS
  NO   OCC          E(Eh)            E(eV) 
   0   1.0000    -261.566948     -7117.5985 
   1   1.0000    -104.789098     -2851.4563 
   2   1.0000    -104.785371     -2851.3549 
   3   1.0000    -104.783677     -2851.3088 
   4   1.0000     -32.076266      -872.8396 
   5   1.0000     -27.554177      -749.7873 
   6   1.0000     -27.554133      -749.7861 
   7   1.0000     -27.553966      -749.7815 
   8   1.0000     -20.601638      -560.5991 
   9   1.0000     -11.418326      -310.7085 
  10   1.0000     -11.285233      -307.0868 
  11   1.0000     -11.273714      -306.7733 
  12   1.0000     -11.268252      -306.6247 
  13   1.0000     -11.251992      -306.1823 
  14   1.0000     -11.251220      -306.1613 
  15   1.0000     -11.240209      -305.8616 
  16   1.0000     -11.235815      -305.7421 
  17   1.0000     -10.515693      -286.1466 
  18   1.0000     -10.511942      -286.0445 
  19   1.0000     -10.510208      -285.9973 
  20   1.0000      -7.981597      -217.1903 
  21   1.0000      -7.980920      -217.1719 
  22   1.0000      -7.980874      -217.1706 
  23   1.0000      -7.977836      -217.0880 
  24   1.0000      -7.977146      -217.0692 
  25   1.0000      -7.977057      -217.0668 
  26   1.0000      -7.976191      -217.0432 
  27   1.0000      -7.975344      -217.0201 
  28   1.0000      -7.975259      -217.0178 
  29   1.0000      -4.151102      -112.9572 
  30   1.0000      -2.672691       -72.7276 
  31   1.0000      -2.672678       -72.7273 
  32   1.0000      -2.672104       -72.7117 
  33   1.0000      -1.440742       -39.2046 
  34   1.0000      -1.137876       -30.9632 
  35   1.0000      -1.093674       -29.7604 
  36   1.0000      -1.047727       -28.5101 
  37   1.0000      -1.035305       -28.1721 
  38   1.0000      -1.032029       -28.0829 
  39   1.0000      -1.025642       -27.9091 
  40   1.0000      -1.005121       -27.3507 
  41   1.0000      -0.966902       -26.3107 
  42   1.0000      -0.904430       -24.6108 
  43   1.0000      -0.820710       -22.3327 
  44   1.0000      -0.739015       -20.1096 
  45   1.0000      -0.706817       -19.2335 
  46   1.0000      -0.693896       -18.8819 
  47   1.0000      -0.683424       -18.5969 
  48   1.0000      -0.662580       -18.0297 
  49   1.0000      -0.628843       -17.1117 
  50   1.0000      -0.621164       -16.9027 
  51   1.0000      -0.604731       -16.4556 
  52   1.0000      -0.597743       -16.2654 
  53   1.0000      -0.583921       -15.8893 
  54   1.0000      -0.574645       -15.6369 
  55   1.0000      -0.561121       -15.2689 
  56   1.0000      -0.556322       -15.1383 
  57   1.0000      -0.547306       -14.8930 
  58   1.0000      -0.545221       -14.8362 
  59   1.0000      -0.532673       -14.4948 
  60   1.0000      -0.519960       -14.1488 
  61   1.0000      -0.501977       -13.6595 
  62   1.0000      -0.497913       -13.5489 
  63   1.0000      -0.481431       -13.1004 
  64   1.0000      -0.478945       -13.0328 
  65   1.0000      -0.450699       -12.2642 
  66   1.0000      -0.447485       -12.1767 
  67   1.0000      -0.444734       -12.1018 
  68   1.0000      -0.428870       -11.6701 
  69   1.0000      -0.425584       -11.5807 
  70   1.0000      -0.410463       -11.1693 
  71   1.0000      -0.364788        -9.9264 
  72   0.0000       0.012220         0.3325 
  73   0.0000       0.022718         0.6182 
  74   0.0000       0.023611         0.6425 
  75   0.0000       0.030138         0.8201 
  76   0.0000       0.038624         1.0510 
  77   0.0000       0.040520         1.1026 
  78   0.0000       0.042575         1.1585 
  79   0.0000       0.043834         1.1928 
  80   0.0000       0.044454         1.2097 
  81   0.0000       0.052221         1.4210 
  82   0.0000       0.056885         1.5479 
  83   0.0000       0.061016         1.6603 
  84   0.0000       0.063034         1.7152 
  85   0.0000       0.063688         1.7330 
  86   0.0000       0.064702         1.7606 
  87   0.0000       0.071930         1.9573 
  88   0.0000       0.076981         2.0948 
  89   0.0000       0.081960         2.2302 
  90   0.0000       0.089746         2.4421 
  91   0.0000       0.091913         2.5011 
  92   0.0000       0.093826         2.5531 
  93   0.0000       0.097224         2.6456 
  94   0.0000       0.101322         2.7571 
  95   0.0000       0.102850         2.7987 
  96   0.0000       0.105286         2.8650 
  97   0.0000       0.108744         2.9591 
  98   0.0000       0.110128         2.9967 
  99   0.0000       0.112277         3.0552 
 100   0.0000       0.114139         3.1059 
 101   0.0000       0.115461         3.1419 
 102   0.0000       0.119167         3.2427 
 103   0.0000       0.122779         3.3410 
 104   0.0000       0.124481         3.3873 
 105   0.0000       0.125372         3.4115 
 106   0.0000       0.128225         3.4892 
 107   0.0000       0.129596         3.5265 
 108   0.0000       0.132626         3.6089 
 109   0.0000       0.134818         3.6686 
 110   0.0000       0.136604         3.7172 
 111   0.0000       0.139117         3.7856 
 112   0.0000       0.145050         3.9470 
 113   0.0000       0.146722         3.9925 
 114   0.0000       0.152692         4.1550 
 115   0.0000       0.153230         4.1696 
 116   0.0000       0.156885         4.2691 
 117   0.0000       0.162097         4.4109 
 118   0.0000       0.162627         4.4253 
 119   0.0000       0.167872         4.5680 
 120   0.0000       0.171688         4.6719 
 121   0.0000       0.173607         4.7241 
 122   0.0000       0.176497         4.8027 
 123   0.0000       0.181756         4.9458 
 124   0.0000       0.182608         4.9690 
 125   0.0000       0.187219         5.0945 
 126   0.0000       0.188460         5.1282 
 127   0.0000       0.192796         5.2462 
 128   0.0000       0.198201         5.3933 
 129   0.0000       0.199469         5.4278 
 130   0.0000       0.200059         5.4439 
 131   0.0000       0.202931         5.5220 
 132   0.0000       0.206388         5.6161 
 133   0.0000       0.209786         5.7086 
 134   0.0000       0.216907         5.9023 
 135   0.0000       0.219858         5.9826 
 136   0.0000       0.225486         6.1358 
 137   0.0000       0.228327         6.2131 
 138   0.0000       0.230498         6.2722 
 139   0.0000       0.234465         6.3801 
 140   0.0000       0.236258         6.4289 
 141   0.0000       0.240386         6.5412 
 142   0.0000       0.241693         6.5768 
 143   0.0000       0.247452         6.7335 
 144   0.0000       0.250830         6.8254 
 145   0.0000       0.251370         6.8401 
 146   0.0000       0.253799         6.9062 
 147   0.0000       0.260927         7.1002 
 148   0.0000       0.262021         7.1300 
 149   0.0000       0.268536         7.3072 
 150   0.0000       0.272976         7.4281 
 151   0.0000       0.275899         7.5076 
 152   0.0000       0.279820         7.6143 
 153   0.0000       0.282345         7.6830 
 154   0.0000       0.287194         7.8149 
 155   0.0000       0.292185         7.9508 
 156   0.0000       0.294203         8.0057 
 157   0.0000       0.297884         8.1058 
 158   0.0000       0.299241         8.1427 
 159   0.0000       0.306684         8.3453 
 160   0.0000       0.309869         8.4320 
 161   0.0000       0.318636         8.6705 
 162   0.0000       0.321731         8.7547 
 163   0.0000       0.323299         8.7974 
 164   0.0000       0.329278         8.9601 
 165   0.0000       0.331991         9.0339 
 166   0.0000       0.336970         9.1694 
 167   0.0000       0.341918         9.3041 
 168   0.0000       0.343649         9.3512 
 169   0.0000       0.345208         9.3936 
 170   0.0000       0.350617         9.5408 
 171   0.0000       0.354481         9.6459 
 172   0.0000       0.359341         9.7782 
 173   0.0000       0.362606         9.8670 
 174   0.0000       0.365006         9.9323 
 175   0.0000       0.367307         9.9949 
 176   0.0000       0.370695        10.0871 
 177   0.0000       0.374990        10.2040 
 178   0.0000       0.380547        10.3552 
 179   0.0000       0.383194        10.4272 
 180   0.0000       0.386410        10.5148 
 181   0.0000       0.388383        10.5684 
 182   0.0000       0.393125        10.6975 
 183   0.0000       0.394304        10.7295 
 184   0.0000       0.394727        10.7411 
 185   0.0000       0.396065        10.7775 
 186   0.0000       0.400267        10.8918 
 187   0.0000       0.402356        10.9487 
 188   0.0000       0.403833        10.9889 
 189   0.0000       0.409058        11.1310 
 190   0.0000       0.415705        11.3119 
 191   0.0000       0.418864        11.3979 
 192   0.0000       0.423195        11.5157 
 193   0.0000       0.427389        11.6299 
 194   0.0000       0.430991        11.7279 
 195   0.0000       0.435800        11.8587 
 196   0.0000       0.439391        11.9564 
 197   0.0000       0.442103        12.0302 
 198   0.0000       0.447081        12.1657 
 199   0.0000       0.450147        12.2491 
 200   0.0000       0.455253        12.3881 
 201   0.0000       0.458073        12.4648 
 202   0.0000       0.460507        12.5310 
 203   0.0000       0.464834        12.6488 
 204   0.0000       0.465522        12.6675 
 205   0.0000       0.468404        12.7459 
 206   0.0000       0.477577        12.9955 
 207   0.0000       0.479274        13.0417 
 208   0.0000       0.481929        13.1140 
 209   0.0000       0.484715        13.1898 
 210   0.0000       0.487812        13.2740 
 211   0.0000       0.494690        13.4612 
 212   0.0000       0.496884        13.5209 
 213   0.0000       0.499155        13.5827 
 214   0.0000       0.502981        13.6868 
 215   0.0000       0.504385        13.7250 
 216   0.0000       0.505848        13.7648 
 217   0.0000       0.509476        13.8635 
 218   0.0000       0.516272        14.0485 
 219   0.0000       0.516357        14.0508 
 220   0.0000       0.520808        14.1719 
 221   0.0000       0.522747        14.2247 
 222   0.0000       0.527216        14.3463 
 223   0.0000       0.529320        14.4035 
 224   0.0000       0.530629        14.4391 
 225   0.0000       0.533292        14.5116 
 226   0.0000       0.538049        14.6410 
 227   0.0000       0.540429        14.7058 
 228   0.0000       0.542934        14.7740 
 229   0.0000       0.546318        14.8661 
 230   0.0000       0.548265        14.9191 
 231   0.0000       0.554025        15.0758 
 232   0.0000       0.558535        15.1985 
 233   0.0000       0.561559        15.2808 
 234   0.0000       0.564457        15.3597 
 235   0.0000       0.568678        15.4745 
 236   0.0000       0.573053        15.5936 
 237   0.0000       0.576038        15.6748 
 238   0.0000       0.579051        15.7568 
 239   0.0000       0.585923        15.9438 
 240   0.0000       0.587561        15.9883 
 241   0.0000       0.589571        16.0431 
 242   0.0000       0.593465        16.1490 
 243   0.0000       0.597052        16.2466 
 244   0.0000       0.601263        16.3612 
 245   0.0000       0.603007        16.4086 
 246   0.0000       0.605248        16.4696 
 247   0.0000       0.616949        16.7880 
 248   0.0000       0.618447        16.8288 
 249   0.0000       0.622054        16.9269 
 250   0.0000       0.624971        17.0063 
 251   0.0000       0.629471        17.1288 
 252   0.0000       0.633868        17.2484 
 253   0.0000       0.638209        17.3665 
 254   0.0000       0.640573        17.4309 
 255   0.0000       0.645379        17.5617 
 256   0.0000       0.651559        17.7298 
 257   0.0000       0.653476        17.7820 
 258   0.0000       0.656188        17.8558 
 259   0.0000       0.659862        17.9558 
 260   0.0000       0.665243        18.1022 
 261   0.0000       0.668003        18.1773 
 262   0.0000       0.672707        18.3053 
 263   0.0000       0.675478        18.3807 
 264   0.0000       0.677788        18.4436 
 265   0.0000       0.684104        18.6154 
 266   0.0000       0.691307        18.8114 
 267   0.0000       0.692813        18.8524 
 268   0.0000       0.697718        18.9859 
 269   0.0000       0.699543        19.0355 
 270   0.0000       0.707537        19.2531 
 271   0.0000       0.712903        19.3991 
 272   0.0000       0.715521        19.4703 
 273   0.0000       0.721475        19.6323 
 274   0.0000       0.725540        19.7429 
 275   0.0000       0.730088        19.8667 
 276   0.0000       0.735740        20.0205 
 277   0.0000       0.739365        20.1191 
 278   0.0000       0.741220        20.1696 
 279   0.0000       0.747379        20.3372 
 280   0.0000       0.748406        20.3652 
 281   0.0000       0.753525        20.5045 
 282   0.0000       0.764478        20.8025 
 283   0.0000       0.765084        20.8190 
[...]
  | sigma^2 in % of trace(Dij) retained ...   9.00e+00
  | sigma^2 in % of trace(Dip) retained ...   1.99e+01
  | sigma^2 in % of trace(Dpq) retained ...   1.36e-01
  | Av. % of trace(Di) retained         ...  99.998535935687
  | Av. % of trace(Dp) retained         ...  99.999999096994
  | sigma^2 in % of trace(Di) retained  ...   6.77e-07
  | sigma^2 in % of trace(Dp) retained  ...   1.28e-12
 Distributions of % trace(Dij) recovered:
  |       >= 99.9  ...   105 ( 21.3 % of all IJ-pairs)
  |   [80.0, 90.0) ...    25 (  5.1 % of all IJ-pairs)
  |   [90.0, 99.0) ...   269 ( 54.7 % of all IJ-pairs)
  |   [99.0, 99.9) ...    93 ( 18.9 % of all IJ-pairs)
 Distributions of % trace(Dip) recovered:
  |   [80.0, 90.0) ...    17 ( 14.5 % of all IP-pairs)
  |   [90.0, 99.0) ...    57 ( 48.7 % of all IP-pairs)
  |   [99.0, 99.9) ...    43 ( 36.8 % of all IP-pairs)
 Distributions of % trace(Dpq) recovered:
  |       >= 99.9  ...     5 ( 33.3 % of all PQ-pairs)
  |   [99.0, 99.9) ...    10 ( 66.7 % of all PQ-pairs)
 Distributions of % trace(Di) recovered :
  |       >= 99.9  ...    43 (100.0 % of all I-pairs )
 Distributions of % trace(Dp) recovered :
  |       >= 99.9  ...     5 (100.0 % of all P-pairs )

                       ===========================
                       1083 OF 1682 PAIRS ARE KEPT
                       ===========================

 Initial PAO correlation energy (all pairs)    ...  -2.6889697193 Eh
 Energy constituents in PAO basis (Eh):
  | Vijab(+0) ...  -2.2614900577
  | Viab (-1) ...  -0.1743211076
  | Vab  (-2) ...  -0.0573426424
  | Va   (-1) ...  -0.0000441549
  | Vija (+1) ...  -0.0716270280
  | Vij  (+2) ...  -0.0155227287
  | Via  (+0) ...  -0.1084600874
  | Vi   (+1) ...  -0.0001619126
 Initial PNO correlation energy                ...  -2.6545333093 Eh
 Energy constituents in PNO basis (Eh):
  | Vijab(+0) ...  -2.2427774353 (err=  0.0187126224)
  | Viab (-1) ...  -0.1602457634 (err=  0.0140753442)
  | Vab  (-2) ...  -0.0568891522 (err=  0.0004534902)
  | Va   (-1) ...  -0.0000256099 (err=  0.0000185450)
  | Vija (+1) ...  -0.0706194146 (err=  0.0010076134)
  | Vij  (+2) ...  -0.0154594800 (err=  0.0000632487)
  | Via  (+0) ...  -0.1083549837 (err=  0.0001051037)
  | Vi   (+1) ...  -0.0001614702 (err=  0.0000004424)
 Sum of total truncation errors ...   0.0344364100 Eh
  | Pair screening ...   0.0117897851 Eh
  | PNO truncation ...   0.0226466249 Eh

 UMP2 correlation energy (PAO) ...  -2.6839618150
  | alpha-alpha ...  -0.3854432288 (NP_aa=  904)
  | alpha-beta  ...  -1.9926753571 (NP_ab= 1657)
  | beta -beta  ...  -0.3058432291 (NP_bb=  720)
 UMP2 correlation energy (PNO) ...  -2.6491446734
  | alpha-alpha ...  -0.3733934919 (err=  0.0120497368, NP_aa=  576)
  | alpha-beta  ...  -1.9740372666 (err=  0.0186380905, NP_ab= 1058)
  | beta -beta  ...  -0.3017139149 (err=  0.0041293142, NP_bb=  449)
 Sum of total UMP2 truncation errors ...   0.0348171415 Eh
  | Pair screening ...   0.0118063666 Eh
  | PNO truncation ...   0.0230107750 Eh
 Timing for NEV-PNO construction (sec.)
  | Intermediate construction  ..           49.120
  | Amplitude construction     ..           64.222
  | Total time                 ..          113.342
 Making pair pair interaction lists ...      ok
 Total size for 2-ext PNO integrals ...     10.8 MB
Checking the number of SOMO/SOMO doubles PNOs ... 
 #Truncate: (72, 72)[169] -> [85] .. 
 #Truncate: (73, 73)[170] -> [85] .. 
 #Truncate: (74, 74)[170] -> [85] .. 
 #Truncate: (75, 75)[171] -> [85] .. 
 #Truncate: (76, 76)[171] -> [85] .. 

--------------------------------
LOCAL RI TRANSFORMATION (VABPAO)
--------------------------------

Number of PAOs:    1030
Basis functions:   1025 (343 shells)
Aux. functions:    2424 (644 shells)

Processing maps (0.0 sec)
Average map sizes:
   Aux shells -> PAOs           1030.0
   PAOs       -> AO shells       343.0

Calculating integrals (219.0 sec, 37370.165 MB)
Finished
-----------------------------
LOCAL RI TRANSFORMATION (IJV)
-----------------------------

Orbital window:      29 to 76
Basis functions:   1025 (343 shells)
Aux. functions:    2424 (644 shells)

Processing maps (0.0 sec)
Average map sizes:
   Aux shells -> MOs(i)           46.6
   Aux shells -> MOs(j)           48.0
   MOs        -> AO shells       340.2

Calculating integrals (26.8 sec, 41.499 MB)
Sorting integrals (0.5 sec, 41.471 MB)
Total time for the integral transformation: 27.4 sec


-------------------------------------
Pair Pair Term precalculation with     
RI-(ij|mn) and (im|jn) transformation  
ON THE FLY                             
-------------------------------------

   IBatch   1 (of   2)              ... done ( 1233.764 sec)
   IBatch   2 (of   2)              ... done ( 1165.337 sec)
Total EXT                           ...        2399.101 sec

---------------------
RI-PNO TRANSFORMATION
---------------------

Total Number of PNOs                   ... 33729
Total Number of IJ-PNOs                ... 29595
Total Number of IP-PNOs                ...  3181
Total Number of PQ-PNOs                ...   953
Total Number of IJ-pairs               ...   941
Total Number of PI-pairs               ...   117
Total Number of PQ-pairs               ...    25
Average number of PNOs per pair        ...    31
Maximal number of PNOs per pair        ...    85
>> Statistics for ij-pairs..
   #pairs with  1 -  5 PNOs   :    0
   #pairs with  6 - 10 PNOs   :    0
   #pairs with 11 - 15 PNOs   :   72
   #pairs with 16 - 20 PNOs   :  216
   #pairs with 21 - 25 PNOs   :  160
   #pairs with 26 - 30 PNOs   :  140
   #pairs with 31 - 35 PNOs   :   60
   #pairs with 36 - 40 PNOs   :   56
   #pairs with 41 - 45 PNOs   :   42
   #pairs with 46 - 50 PNOs   :   26
   #pairs with 51 - 55 PNOs   :   33
   #pairs with 56 - 60 PNOs   :   60
   #pairs with 61 - 65 PNOs   :   71
   #pairs with 66 - 70 PNOs   :    2
   #pairs with 71 - 75 PNOs   :    1
   #pairs with 81 - 85 PNOs   :    2
>> Statistics for ip-pairs..
   #pairs with  1 -  5 PNOs   :    0
   #pairs with  6 - 10 PNOs   :    3
   #pairs with 11 - 15 PNOs   :   14
   #pairs with 16 - 20 PNOs   :    4
   #pairs with 21 - 25 PNOs   :   28
   #pairs with 26 - 30 PNOs   :   11
   #pairs with 31 - 35 PNOs   :   43
   #pairs with 36 - 40 PNOs   :   13
   #pairs with 41 - 45 PNOs   :    1
   #pairs with 46 - 50 PNOs   :    0
>> Statistics for pq-pairs..
   #pairs with  1 -  5 PNOs   :    0
   #pairs with  6 - 10 PNOs   :    0
   #pairs with 11 - 15 PNOs   :    0
   #pairs with 16 - 20 PNOs   :    0
   #pairs with 21 - 25 PNOs   :   10
   #pairs with 26 - 30 PNOs   :   10
   #pairs with 31 - 35 PNOs   :    0
   #pairs with 36 - 40 PNOs   :    0
   #pairs with 41 - 45 PNOs   :    0
   #pairs with 46 - 50 PNOs   :    0
   #pairs with 81 - 85 PNOs   :    5

Generation of (ij|ab)[P] integrals            ... on
Generation of (ia|bc)[P],(ja|bc)[P] integrals ... on
Storage of 3 and 4 external integrals         ... on
Generation of ALL (ka|bc)[P] integrals        ... on
Keep RI integrals in memory                   ... off

Ibatch:  1 (of  1)
Starting 2-4 index PNO integral generation ... done

Timings:
Total PNO integral transformation time     ...       2226.589 sec
Size of the 3-external file                ...       283 MB
Size of the 4-external file                ...      1928 MB
Size of the IKJL file                      ...        17 MB
Size of the all 3-external file            ...      6810 MB
Size of the 1-external file                ...        21 MB

Size of the PAO/PNO coefficient matrices   ...     215.3 MB

Making pair/pair overlap matrices          ... done (  352.600 sec)
Size of the pair overlap file              ...    2363.0 MB
Total # unrestricted pairs ...       2083
  # of alpha-alpha pairs   ...        576
  # of alpha-beta pairs    ...       1058
  # of beta-beta pairs     ...        449
Constructing the guess amplitudes          ... done (    0.707 sec)

-------------------------
FINAL STARTUP INFORMATION
-------------------------

E(0)                                       ...  -3028.451324070
E(SL-UMP2 in NEV-PNO space)                ...     -2.684939239
Initial E(tot)                             ...  -3031.136263308
<T|T>                                      ...      0.534114040
Number of unrestricted pairs included      ... 2083
Total number of pairs                      ... 4095
----------------------------------------------------------
                     OPEN-SHELL COUPLED CLUSTER ITERATIONS
----------------------------------------------------------

Number of PNO amplitudes to be optimized        ...          2077116
Number of canonical amplitudes for strong pairs ...       1881369580
Untruncated number of canonical amplitudes      ...       3698645738

Iter       E(tot)           E(Corr)          Delta-E          Residual     Time
  0  -3031.143467691     -2.656349056      0.028590183      0.020786952 1949.16
                           *** Turning on DIIS ***
  1  -3031.257819559     -2.770700924     -0.114351868      0.009470447 1934.75
  2  -3031.322562972     -2.835444337     -0.064743413      0.008307676 1934.57
  3  -3031.344248425     -2.857129790     -0.021685453      0.003218778 1928.10
  4  -3031.351733060     -2.864614425     -0.007484635      0.002640438 1957.28
  5  -3031.355817566     -2.868698931     -0.004084505      0.001518683 1967.99
  6  -3031.357319512     -2.870200877     -0.001501946      0.000793593 1962.82
  7  -3031.357970710     -2.870852075     -0.000651198      0.000495553 1967.08
  8  -3031.358111579     -2.870992944     -0.000140869      0.000240071 1949.56
  9  -3031.358170312     -2.871051677     -0.000058734      0.000154431 1940.25
 10  -3031.358169766     -2.871051131      0.000000546      0.000100290 1667.72
 11  -3031.358182397     -2.871063762     -0.000012631      0.000062138 1656.71
 12  -3031.358186982     -2.871068347     -0.000004585      0.000030548 1657.30
 13  -3031.358189287     -2.871070652     -0.000002305      0.000017560 1697.55
 14  -3031.358190832     -2.871072197     -0.000001546      0.000007853 1714.81
               --- The CCSD iterations have converged ---

E(0)                                       ...  -3028.451324070
E(CORR)(strong-pairs)                      ...     -2.871072197
E(CORR)(weak-pairs)                        ...     -0.035794565
E(CORR)(corrected)                         ...     -2.906866762
E(TOT)                                     ...  -3031.358190832
Singles norm <S|S>**1/2                    ...      0.194341326 ( 0.064837409, 0.129503917)  
T1 diagnostic                              ...      0.020372507                              
<S**2>(linearized)                         ...      8.7508193 (ideal value:      8.7500000)

----------------------
LARGEST PNO AMPLITUDES
----------------------
  46a-> 78a  46b-> 78b       0.054694
  51b-> 76b  -1b-> -1b       0.054391
  49b-> 72b  -1b-> -1b       0.053956
  52b-> 76b  -1b-> -1b       0.053659
  49b-> 75b  -1b-> -1b       0.047116
  49b-> 74b  -1b-> -1b       0.046235
  62a-> 77a  62b-> 77b       0.044332
  55a-> 77a  55b-> 77b       0.044241
  70a-> 77a  70b-> 77b       0.044135
  38b-> 73b  -1b-> -1b       0.043407
  56a-> 78a  56b-> 78b       0.043293
  58a-> 77a  58b-> 77b       0.043190
  64a-> 77a  64b-> 77b       0.043047
  43a-> 77a  43b-> 77b       0.042551
  69a-> 77a  69b-> 77b       0.042501
  46a-> 77a  46b-> 77b       0.042481

Total # unrestricted pairs ...       1198
  # of alpha-alpha pairs   ...        328
  # of alpha-beta pairs    ...        599
  # of beta-beta pairs     ...        271

-------------------------------------------
DLPNO BASED TRIPLES CORRECTION
-------------------------------------------

Singles multiplier          ...  1.000000
Fragment selection                          .... not used
TCutTNO                     ... 1.000e-09
TCutMP2Pairs                ... 1.000e-05
TCutDOStrong                ... 2.000e-02
TCutMKNStrong               ... 1.000e-02
TCutDOWeak                  ... 4.000e-02
TCutMKNWeak                 ... 1.000e-01
NTCutTNO                    ... 1

Number of Triples that are to be computed         ...     33138

 . . . . . . . . .
10% done  
20% done  
30% done  
40% done  
50% done  
60% done  
70% done  
80% done  
90% done  
          Batch   1   done (  13398.316 sec)

Triples-Correction TCutTNO=   1.000e-09 (NWeakPairs = 0  1  2  3)  -0.117039778919   -0.001890777182    0.000000000000    0.000000000000
Triples-Correction  -0.118930556100

Triples timings:
Total time                      ... 13966.221 sec

Triples List generation         ...     0.000 sec
TNO generation                  ...   567.662 sec
Pair density generation         ...     0.086 sec
Look up tables                  ...     0.104 sec
Generating 3-index integrals    ...  8208.909 sec
Make 4-ind.int. from 3-ind.int  ...     3.134 sec
Projecting amplitudes (D + S)   ...  4955.479 sec
Sorting integrals for spin cases...    47.330 sec
Calculate W0/W1                 ...   148.458 sec
Energy contr. (sum over a,b,c)  ...    34.882 sec

Everything after 3-index        ...  5301.324 sec

Energy contribution AAA         ...    22.163 sec
Energy contribution AAB         ...   102.129 sec
Energy contribution ABB         ...    93.936 sec
Energy contribution BBB         ...    12.475 sec
prep                ...     2.881 sec
makeTTNO            ...  4904.740 sec
copyij              ...     0.118 sec
copyil              ...     3.694 sec
transposeij         ...     0.070 sec
newMatInDoubleProj  ...    46.013 sec
BlasInDoubleProj    ...  2658.394 sec
ProjSingles         ...    41.714 sec
ProjDoubles         ...  4913.765 sec
overall Doubles for projection      ... 2957108
used Doubles for projection         ... 2957108


Number of Triples   (0, 1, 2, 3 weak pairs; overall):  15279   12146       0       0  ( 27425)
Number of Atoms     (0, 1, 2, 3 weak pairs; overall):   19.3    13.8     0.0     0.0  (    29)
Number of PAOs      (0, 1, 2, 3 weak pairs; overall):  755.7   561.5     0.0     0.0  (  1025)
Number of AuxFcns   (0, 1, 2, 3 weak pairs; overall):  872.1   572.9     0.0     0.0  (  2424)
Number of TNOs (0, 1, 2, 3 weak pairs         ):   79.2    55.7     0.0     0.0
Aver. Number of NTNO, Atoms, PAOs, AuxFcns / Triples:  27425    68.8    16.9   669.7   739.6

Triples Correction (T)                     ...     -0.118930556
    alpha-alpha-alpha ... -0.003834507 (  3.2%)
    alpha-alpha-beta  ... -0.055854509 ( 47.0%)
    alpha-beta -beta  ... -0.055161754 ( 46.4%)
    beta -beta -beta  ... -0.004079786 (  3.4%)
Final correlation energy                   ...     -3.025797319
E(CCSD)                                    ...  -3031.358190832
E(CCSD(T))                                 ...  -3031.477121388

----------------------------
STATISTICS FOR PAIR-ENERGIES
----------------------------
Minimum, maximum and average ratios of UMP and CCSD pair-energies ... 0.32, 1.45, 1.02


------------------------------------------------------------------------------- 
                                     TIMINGS                                   
------------------------------------------------------------------------------- 


Total execution time                   ...    50643.385 sec

Localization of occupied MO's          ...       10.725 sec (  0.0%)
Fock Matrix Formation                  ...     1413.876 sec (  2.8%)
Differential overlap integrals         ...        2.061 sec (  0.0%)
Organizing maps                        ...        1.845 sec (  0.0%)
RI 3-index integral generations        ...      321.753 sec (  0.6%)
RI-PNO integral transformation         ...     5012.166 sec (  9.9%)
Initial Guess                          ...     1966.502 sec (  3.9%)
DIIS Solver                            ...       15.420 sec (  0.0%)
State Vector Update                    ...        0.714 sec (  0.0%)
Sigma-vector construction              ...    27885.640 sec ( 55.1%)
  <0|H|D>                              ...        0.030 sec (  0.0% of sigma)
  <D|H|D>(0-ext)                       ...     5124.695 sec ( 18.4% of sigma)
  <D|H|D>(2-ext Fock)                  ...        1.399 sec (  0.0% of sigma)
  <D|H|D>(2-ext)                       ...     3919.403 sec ( 14.1% of sigma)
  <D|H|D>(4-ext)                       ...      162.830 sec (  0.6% of sigma)
  <D|H|D>(4-ext-corr)                  ...     1006.494 sec (  3.6% of sigma)
  CCSD doubles correction              ...      453.807 sec (  1.6% of sigma)
  <S|H|S>                              ...      663.675 sec (  2.4% of sigma)
  <S|H|D>(1-ext)                       ...      243.770 sec (  0.9% of sigma)
  <D|H|S>(1-ext)                       ...        0.828 sec (  0.0% of sigma)
  <S|H|D>(3-ext)                       ...       21.113 sec (  0.1% of sigma)
  CCSD singles correction              ...        0.004 sec (  0.0% of sigma)
  Fock-dressing                        ...     8068.671 sec ( 28.9% of sigma)
  Singles amplitudes                   ...      105.697 sec (  0.4% of sigma)
  (ik|jl)-dressing                     ...     6463.700 sec ( 23.2% of sigma)
  (ij|ab),(ia|jb)-dressing             ...     1406.184 sec (  5.0% of sigma)
  Pair energies                        ...        0.111 sec (  0.0% of sigma)
Total Time for computing (T)           ...    14395.818 sec ( 28.4% of ALL)


-------------------------   --------------------
FINAL SINGLE POINT ENERGY     -3031.477121388220
-------------------------   --------------------


                            ***************************************
                            *     ORCA property calculations      *
                            ***************************************

                                    ---------------------
                                    Active property flags
                                    ---------------------
   (+) Dipole Moment


------------------------------------------------------------------------------
                       ORCA ELECTRIC PROPERTIES CALCULATION
------------------------------------------------------------------------------

Dipole Moment Calculation                       ... on
Quadrupole Moment Calculation                   ... off
Polarizability Calculation                      ... off
GBWName                                         ... simple-grid-240-275-b3lyp_d3bj-631gd-gas-singlepoint-DLPNO_CCSD_T1-NormalPNO-augtz-gas.gbw
Electron density file                           ... simple-grid-240-275-b3lyp_d3bj-631gd-gas-singlepoint-DLPNO_CCSD_T1-NormalPNO-augtz-gas.scfp.tmp
The origin for moment calculation is the CENTER OF MASS  = ( 0.311501,  0.038549  0.013906)

-------------
DIPOLE MOMENT
-------------
                                X             Y             Z
Electronic contribution:     42.74592       4.60088       1.46877
Nuclear contribution   :    -46.41368      -5.74380      -2.07198
                        -----------------------------------------
Total Dipole Moment    :     -3.66777      -1.14291      -0.60321
                        -----------------------------------------
Magnitude (a.u.)       :      3.88878
Magnitude (Debye)      :      9.88449



--------------------
Rotational spectrum 
--------------------
 
Rotational constants in cm-1:     0.019018     0.010953     0.010306 
Rotational constants in MHz :   570.150269   328.364010   308.961954 

 Dipole components along the rotational axes: 
x,y,z [a.u.] :    -3.661497     1.140095    -0.645160 
x,y,z [Debye]:    -9.306786     2.897890    -1.639867 

 

Timings for individual modules:

Sum of individual times         ...    67137.026 sec (=1118.950 min)
GTO integral calculation        ...       11.869 sec (=   0.198 min)   0.0 %
SCF iterations                  ...    16464.131 sec (= 274.402 min)  24.5 %
MDCI module                     ...    50661.026 sec (= 844.350 min)  75.5 %
                             ****ORCA TERMINATED NORMALLY****
TOTAL RUN TIME: 0 days 18 hours 38 minutes 59 seconds 515 msec
