
                                 *****************
                                 * O   R   C   A *
                                 *****************

           --- An Ab Initio, DFT and Semiempirical electronic structure package ---

                  #######################################################
                  #                        -***-                        #
                  #          Department of theory and spectroscopy      #
                  #               Directorship: Frank Neese             #
                  #        Max Planck Institute fuer Kohlenforschung    #
                  #                Kaiser Wilhelm Platz 1               #
                  #                 D-45470 Muelheim/Ruhr               #
                  #                      Germany                        #
                  #                                                     #
                  #                  All rights reserved                #
                  #                        -***-                        #
                  #######################################################


                         Program Version 4.1.2  - RELEASE  -


 With contributions from (in alphabetic order):
   Daniel Aravena         : Magnetic Properties
   Michael Atanasov       : Ab Initio Ligand Field Theory
   Alexander A. Auer      : GIAO ZORA
   Ute Becker             : Parallelization
   Giovanni Bistoni       : ED, Open-shell LED
   Martin Brehm           : Molecular dynamics
   Dmytro Bykov           : SCF Hessian
   Vijay G. Chilkuri      : MRCI spin determinant printing
   Dipayan Datta          : RHF DLPNO-CCSD density
   Achintya Kumar Dutta   : EOM-CC, STEOM-CC
   Dmitry Ganyushin       : Spin-Orbit,Spin-Spin,Magnetic field MRCI
   Miquel Garcia          : C-PCM Hessian
   Yang Guo               : DLPNO-NEVPT2, CIM, IAO-localization
   Andreas Hansen         : Spin unrestricted coupled pair/coupled cluster methods
   Benjamin Helmich-Paris : CASSCF linear response (MC-RPA)
   Lee Huntington         : MR-EOM, pCC
   Robert Izsak           : Overlap fitted RIJCOSX, COSX-SCS-MP3, EOM
   Christian Kollmar      : KDIIS, OOCD, Brueckner-CCSD(T), CCSD density
   Simone Kossmann        : Meta GGA functionals, TD-DFT gradient, OOMP2, MP2 Hessian
   Martin Krupicka        : AUTO-CI
   Lucas Lang             : DCDCAS
   Dagmar Lenk            : GEPOL surface, SMD
   Dimitrios Liakos       : Extrapolation schemes; parallel MDCI
   Dimitrios Manganas     : ROCIS; embedding schemes
   Dimitrios Pantazis     : SARC Basis sets
   Taras Petrenko         : DFT Hessian,TD-DFT gradient, ASA, ECA, R-Raman, ABS, FL, XAS/XES, NRVS
   Peter Pinski           : DLPNO-MP2, DLPNO-MP2 Gradient
   Christoph Reimann      : Effective Core Potentials
   Marius Retegan         : Local ZFS, SOC
   Christoph Riplinger    : Optimizer, TS searches, QM/MM, DLPNO-CCSD(T), (RO)-DLPNO pert. Triples
   Tobias Risthaus        : Range-separated hybrids, TD-DFT gradient, RPA, STAB
   Michael Roemelt        : Restricted open shell CIS
   Masaaki Saitow         : Open-shell DLPNO
   Barbara Sandhoefer     : DKH picture change effects
   Avijit Sen             : IP-ROCIS
   Kantharuban Sivalingam : CASSCF convergence, NEVPT2, FIC-MRCI
   Bernardo de Souza      : ESD, SOC TD-DFT
   Georgi Stoychev        : AutoAux, RI-MP2 NMR
   Willem Van den Heuvel  : Paramagnetic NMR
   Boris Wezisla          : Elementary symmetry handling
   Frank Wennmohs         : Technical directorship


 We gratefully acknowledge several colleagues who have allowed us to
 interface, adapt or use parts of their codes:
   Stefan Grimme, W. Hujo, H. Kruse,             : VdW corrections, initial TS optimization,
                  C. Bannwarth                     DFT functionals, gCP, sTDA/sTD-DF
   Ed Valeev                                     : LibInt (2-el integral package), F12 methods
   Garnet Chan, S. Sharma, J. Yang, R. Olivares  : DMRG
   Ulf Ekstrom                                   : XCFun DFT Library
   Mihaly Kallay                                 : mrcc  (arbitrary order and MRCC methods)
   Andreas Klamt, Michael Diedenhofen            : otool_cosmo (COSMO solvation model)
   Jiri Pittner, Ondrej Demel                    : Mk-CCSD
   Frank Weinhold                                : gennbo (NPA and NBO analysis)
   Christopher J. Cramer and Donald G. Truhlar   : smd solvation model
   Lars Goerigk                                  : TD-DFT with DH, B97 family of functionals
   V. Asgeirsson, H. Jonsson                     : NEB implementation
   FAccTs GmbH                                   : IRC, NEB, NEB-TS, Multilevel


 Your calculation uses the libint2 library for the computation of 2-el integrals
 For citations please refer to: http://libint.valeyev.net

 This ORCA versions uses:
   CBLAS   interface :  Fast vector & matrix operations
   LAPACKE interface :  Fast linear algebra routines
   SCALAPACK package :  Parallel linear algebra routines


----- Orbital basis set information -----
Your calculation utilizes the basis: aug-cc-pVTZ 
    H, B-Ne : Obtained from the ccRepo (grant-hill.group.shef.ac.uk/ccrepo) Feb. 2017
              R. A. Kendall, T. H. Dunning, Jr., R. J. Harrison, J. Chem. Phys. 96, 6796 (1992)
         He : Obtained from the ccRepo (grant-hill.group.shef.ac.uk/ccrepo) Feb. 2017
              D. E. Woon, T. H. Dunning, Jr., J. Chem. Phys. 100, 2975 (1994)
  Li-Be, Na : Obtained from the ccRepo (grant-hill.group.shef.ac.uk/ccrepo) Feb. 2017
              B. P. Prascher, D. E. Woon, K. A. Peterson, T. H. Dunning, Jr., A. K. Wilson, Theor. Chem. Acc. 128, 69 (2011)
         Mg : Obtained from the Peterson Research Group Website (tyr0.chem.wsu.edu/~kipeters) Feb. 2017
              B. P. Prascher, D. E. Woon, K. A. Peterson, T. H. Dunning, Jr., A. K. Wilson, Theor. Chem. Acc. 128, 69 (2011)
      Al-Ar : Obtained from the ccRepo (grant-hill.group.shef.ac.uk/ccrepo) Feb. 2017
              D. E. Woon, T. H. Dunning, Jr., J. Chem. Phys. 98, 1358 (1993)
      Sc-Zn : Obtained from the ccRepo (grant-hill.group.shef.ac.uk/ccrepo) Feb. 2017
              N. B. Balabanov, K. A. Peterson, J. Chem. Phys. 123, 064107 (2005)
              N. B. Balabanov, K. A. Peterson, J. Chem. Phys. 125, 074110 (2006)
      Ga-Kr : Obtained from the ccRepo (grant-hill.group.shef.ac.uk/ccrepo) Feb. 2017
              A. K. Wilson, D. E. Woon, K. A. Peterson, T. H. Dunning, Jr., J. Chem. Phys. 110, 7667 (1999)
     Ag, Au : Obtained from the Peterson Research Group Website (tyr0.chem.wsu.edu/~kipeters) Feb. 2017
              K. A. Peterson, C. Puzzarini, Theor. Chem. Acc. 114, 283 (2005)

----- AuxJ basis set information -----
Your calculation utilizes the AutoAux generation procedure.
  G. L. Stoychev, A. A. Auer, F. Neese, J. Chem. Theory Comput. 13, 554 (2017)

----- AuxC basis set information -----
Your calculation utilizes the auxiliary basis: aug-cc-pVTZ/C 
  H-He, B-F, Al-Ar, Ga-Kr : Obtained from the EMSL Basis Set Exchange (bse.pnl.gov) Feb. 2017
                            F. Weigend, A. Kohn, C. Hattig, J. Chem. Phys. 116, 3175 (2002)
                   Be, Mg : Obtained from the TURBOMOLE 7.0 basis set library
                            C. Haettig, Phys. Chem. Chem. Phys. 7, 59 (2005)
                       Ne : Obtained from the EMSL Basis Set Exchange (bse.pnl.gov) Feb. 2017
                            C. Haettig, Phys. Chem. Chem. Phys. 7, 59 (2005)
                            F. Weigend, A. Kohn, C. Hattig, J. Chem. Phys. 116, 3175 (2002)
                    Sc-Zn : Obtained from the EMSL Basis Set Exchange (bse.pnl.gov) Feb. 2017
                            J. G. Hill, J. A. Platts, J. Chem. Phys. 128, 044104 (2008)

----- AuxJK basis set information -----
Your calculation utilizes the AutoAux generation procedure.
  G. L. Stoychev, A. A. Auer, F. Neese, J. Chem. Theory Comput. 13, 554 (2017)

================================================================================
                                        WARNINGS
                       Please study these warnings very carefully!
================================================================================


WARNING: your system is open-shell and RHF/RKS was chosen
  ===> : WILL SWITCH to UHF/UKS


WARNING: MDCI localization with Augmented Hessian Foster-Boys
  ===> : Switching off randomization!

WARNING: Post HF methods need fully converged wavefunctions
  ===> : Setting SCFConvForced true
         You can overwrite this default with %scf ConvForced false 


INFO   : the flag for use of LIBINT has been found!

================================================================================
                                       INPUT FILE
================================================================================
NAME = simple-grid-180-250-b3lyp_d3bj-631gd-gas-singlepoint-DLPNO_CCSD_T1-NormalPNO-augtz-gas.inp
|  1> ! aug-cc-pVTZ aug-cc-pVTZ/C DLPNO-CCSD(T1) TightSCF NormalPNO UNO MiniPrint AutoAux
|  2> %pal nproc 10 end
|  3> %maxcore 20000
|  4> %mdci
|  5>      density none
|  6> end
|  7> 
|  8> * xyz 0 6
|  9>  O     -0.31415100     -0.21763900     -0.70798100
| 10>  C     -1.29309300     -1.12945700     -0.52596100
| 11>  C     -2.66350400     -0.34464100      0.33777500
| 12>  C     -2.42432500      0.98125500     -0.10814800
| 13>  C     -2.89079600      1.46332700     -1.42757400
| 14> Fe      1.38422600      0.11182900     -0.03239600
| 15> Cl      1.82315100      2.14885600     -0.77016500
| 16>  C     -1.62510500      1.93348400      0.68621800
| 17> Cl      2.72080000     -1.48966800     -0.72540800
| 18> Cl      1.16502500      0.10207000      2.19722300
| 19>  H     -3.52150400     -0.80575000     -0.15301600
| 20>  H     -2.34932800      2.53879700      1.25977700
| 21>  H     -0.96317800      1.45131900      1.40549300
| 22>  H     -1.05461400      2.61575900      0.04967800
| 23>  H     -3.23775500      2.50033000     -1.34828100
| 24>  H     -2.00418000      1.49179000     -2.08039400
| 25>  H     -3.66239600      0.84050300     -1.88060800
| 26>  C     -2.63486600     -0.60326500      1.84247900
| 27>  H     -3.40257600     -0.00003200      2.34003600
| 28>  H     -2.85650600     -1.65226500      2.04703700
| 29>  H     -1.66834200     -0.36835400      2.29238700
| 30>  C     -0.88470500     -2.31543700      0.34221900
| 31>  H     -1.70387200     -3.02424600      0.49089500
| 32>  H     -0.07854900     -2.82228800     -0.20187800
| 33>  H     -0.48259700     -2.00112600      1.30519800
| 34>  C     -1.85734600     -1.60001200     -1.86687100
| 35>  H     -1.04718700     -2.12828500     -2.38046700
| 36>  H     -2.69968600     -2.28684800     -1.74136100
| 37>  H     -2.15456100     -0.76866300     -2.50723600
| 38> *
| 39> 
| 40> 
| 41>                          ****END OF INPUT****
================================================================================

                       ****************************
                       * Single Point Calculation *
                       ****************************

---------------------------------
CARTESIAN COORDINATES (ANGSTROEM)
---------------------------------
  O     -0.314151   -0.217639   -0.707981
  C     -1.293093   -1.129457   -0.525961
  C     -2.663504   -0.344641    0.337775
  C     -2.424325    0.981255   -0.108148
  C     -2.890796    1.463327   -1.427574
  Fe     1.384226    0.111829   -0.032396
  Cl     1.823151    2.148856   -0.770165
  C     -1.625105    1.933484    0.686218
  Cl     2.720800   -1.489668   -0.725408
  Cl     1.165025    0.102070    2.197223
  H     -3.521504   -0.805750   -0.153016
  H     -2.349328    2.538797    1.259777
  H     -0.963178    1.451319    1.405493
  H     -1.054614    2.615759    0.049678
  H     -3.237755    2.500330   -1.348281
  H     -2.004180    1.491790   -2.080394
  H     -3.662396    0.840503   -1.880608
  C     -2.634866   -0.603265    1.842479
  H     -3.402576   -0.000032    2.340036
  H     -2.856506   -1.652265    2.047037
  H     -1.668342   -0.368354    2.292387
  C     -0.884705   -2.315437    0.342219
  H     -1.703872   -3.024246    0.490895
  H     -0.078549   -2.822288   -0.201878
  H     -0.482597   -2.001126    1.305198
  C     -1.857346   -1.600012   -1.866871
  H     -1.047187   -2.128285   -2.380467
  H     -2.699686   -2.286848   -1.741361
  H     -2.154561   -0.768663   -2.507236

----------------------------
CARTESIAN COORDINATES (A.U.)
----------------------------
  NO LB      ZA    FRAG     MASS         X           Y           Z
   0 O     8.0000    0    15.999   -0.593659   -0.411278   -1.337890
   1 C     6.0000    0    12.011   -2.443592   -2.134364   -0.993922
   2 C     6.0000    0    12.011   -5.033293   -0.651277    0.638302
   3 C     6.0000    0    12.011   -4.581310    1.854303   -0.204370
   4 C     6.0000    0    12.011   -5.462813    2.765287   -2.697724
   5 Fe   26.0000    0    55.850    2.615808    0.211326   -0.061220
   6 Cl   17.0000    0    35.453    3.445256    4.060749   -1.455401
   7 C     6.0000    0    12.011   -3.071003    3.653755    1.296764
   8 Cl   17.0000    0    35.453    5.141567   -2.815065   -1.370822
   9 Cl   17.0000    0    35.453    2.201578    0.192884    4.152150
  10 H     1.0000    0     1.008   -6.654678   -1.522647   -0.289158
  11 H     1.0000    0     1.008   -4.439587    4.797631    2.380634
  12 H     1.0000    0     1.008   -1.820143    2.742595    2.655997
  13 H     1.0000    0     1.008   -1.992932    4.943068    0.093878
  14 H     1.0000    0     1.008   -6.118470    4.724939   -2.547882
  15 H     1.0000    0     1.008   -3.787351    2.819075   -3.931375
  16 H     1.0000    0     1.008   -6.920925    1.588320   -3.553834
  17 C     6.0000    0    12.011   -4.979175   -1.140006    3.481781
  18 H     1.0000    0     1.008   -6.429937   -0.000060    4.422027
  19 H     1.0000    0     1.008   -5.398014   -3.122328    3.868339
  20 H     1.0000    0     1.008   -3.152709   -0.696088    4.331984
  21 C     6.0000    0    12.011   -1.671850   -4.375542    0.646700
  22 H     1.0000    0     1.008   -3.219851   -5.714997    0.927657
  23 H     1.0000    0     1.008   -0.148436   -5.333351   -0.381494
  24 H     1.0000    0     1.008   -0.911976   -3.781580    2.466467
  25 C     6.0000    0    12.011   -3.509875   -3.023584   -3.527875
  26 H     1.0000    0     1.008   -1.978897   -4.021876   -4.498431
  27 H     1.0000    0     1.008   -5.101667   -4.321516   -3.290695
  28 H     1.0000    0     1.008   -4.071530   -1.452563   -4.737989



           ************************************************************
           *        Program running with 10 parallel MPI-processes    *
           *              working on a common directory               *
           ************************************************************


           ************************************************************
           *        Program running with 10 parallel MPI-processes    *
           *              working on a common directory               *
           ************************************************************

Diagonalization of the overlap matrix:
Smallest eigenvalue                        ... 6.048e-07
Time for diagonalization                   ...    0.355 sec
Threshold for overlap eigenvalues          ... 1.000e-08
Number of eigenvalues below threshold      ... 0
Time for construction of square roots      ...    0.292 sec
Total time needed                          ...    0.651 sec

-------------------
DFT GRID GENERATION
-------------------

General Integration Accuracy     IntAcc      ...  4.340
Radial Grid Type                 RadialGrid  ... Gauss-Chebyshev
Angular Grid (max. acc.)         AngularGrid ... Lebedev-110
Angular grid pruning method      GridPruning ... 3 (G Style)
Weight generation scheme         WeightScheme... Becke
Basis function cutoff            BFCut       ...    1.0000e-11
Integration weight cutoff        WCut        ...    1.0000e-14
Grids for H and He will be reduced by one unit

# of grid points (after initial pruning)     ...  36112 (   0.0 sec)
# of grid points (after weights+screening)   ...  32262 (   0.1 sec)
nearest neighbour list constructed           ...    0.0 sec
Grid point re-assignment to atoms done       ...    0.0 sec
Grid point division into batches done        ...    0.0 sec
Reduced shell lists constructed in    0.3 sec

Total number of grid points                  ...    32262
Total number of batches                      ...      522
Average number of points per batch           ...       61
Average number of grid points per atom       ...     1112
Average number of shells per batch           ...   293.89 (85.68%)
Average number of basis functions per batch  ...   874.30 (85.30%)
Average number of large shells per batch     ...   242.44 (82.50%)
Average number of large basis fcns per batch ...   721.85 (82.56%)
Maximum spatial batch extension              ...   3.38,  4.03,  3.38 au
Average spatial batch extension              ...   0.17,  0.17,  0.17 au

Time for grid setup =    0.389 sec

Loading Hartree-Fock densities                     ... done
Calculating cut-offs                               ... done
Setting up the integral package                    ... done
Initializing the effective Hamiltonian             ... done
Starting the Coulomb interaction                   ... done (   1.1 sec)
Reading the grid                                   ... done
Mapping shells                                     ... done
Starting the XC term evaluation                    ... done (   0.9 sec)
Transforming the Hamiltonian                       ... done (   0.2 sec)
Diagonalizing the Hamiltonian                      ... done (   0.4 sec)
Back transforming the eigenvectors                 ... done (   0.1 sec)
Now organizing SCF variables                       ... done
--------------
SCF ITERATIONS
--------------
ITER       Energy         Delta-E        Max-DP      RMS-DP      [F,P]     Damp
               ***  Starting incremental Fock matrix formation  ***
  0  -3027.5705548674   0.000000000000 0.39616306  0.00125068  0.2984455 0.7000
  1  -3027.8204906137  -0.249935746300 0.29208886  0.00096804  0.1711287 0.7000
                               ***Turning on DIIS***
  2  -3027.9876639508  -0.167173337113 0.20598964  0.00070969  0.1096512 0.7000
  3  -3029.6806269188  -1.692962968063 0.46996626  0.00176905  0.0825794 0.0000
  4  -3028.2954151136   1.385211805199 0.04750489  0.00022422  0.0193676 0.0000
  5  -3028.4137009416  -0.118285828015 0.04021417  0.00017126  0.0116919 0.0000
  6  -3028.4410119595  -0.027311017828 0.02047158  0.00006921  0.0053546 0.0000
  7  -3028.4545086143  -0.013496654801 0.00925848  0.00003196  0.0032611 0.0000
  8  -3028.4511507465   0.003357867751 0.00592277  0.00001867  0.0013991 0.0000
  9  -3028.4423213970   0.008829349489 0.00236756  0.00001103  0.0006905 0.0000
 10  -3028.4320396381   0.010281758968 0.00084755  0.00000343  0.0003930 0.0000
 11  -3028.4376051462  -0.005565508141 0.00048674  0.00000193  0.0000904 0.0000
 12  -3028.4346858862   0.002919260059 0.00016993  0.00000103  0.0000269 0.0000
 13  -3028.4348509529  -0.000165066715 0.00074157  0.00000120  0.0000106 0.0000
 14  -3028.4349530226  -0.000102069702 0.00047085  0.00000226  0.0000054 0.0000
 15  -3028.4348664361   0.000086586480 0.00097971  0.00000246  0.0000030 0.0000
 16  -3028.4349031050  -0.000036668887 0.00078434  0.00000224  0.0000026 0.0000
 17  -3028.4349206270  -0.000017522050 0.00137583  0.00000247  0.0000013 0.0000
                            ***DIIS convergence achieved***

               *****************************************************
               *                     SUCCESS                       *
               *           SCF CONVERGED AFTER  18 CYCLES          *
               *****************************************************

Total Energy       :        -3028.43489944 Eh          -82407.90315 eV
  Last Energy change         ...    2.1187e-05  Tolerance :   1.0000e-08
  Last MAX-Density change    ...    1.4747e-03  Tolerance :   1.0000e-07
             **** THE GBW FILE WAS UPDATED (simple-grid-180-250-b3lyp_d3bj-631gd-gas-singlepoint-DLPNO_CCSD_T1-NormalPNO-augtz-gas.gbw) ****
             **** DENSITY FILE WAS UPDATED (simple-grid-180-250-b3lyp_d3bj-631gd-gas-singlepoint-DLPNO_CCSD_T1-NormalPNO-augtz-gas.scfp.tmp) ****
             **** ENERGY FILE WAS UPDATED (simple-grid-180-250-b3lyp_d3bj-631gd-gas-singlepoint-DLPNO_CCSD_T1-NormalPNO-augtz-gas.en.tmp) ****
----------------------
UHF SPIN CONTAMINATION
----------------------

Expectation value of <S**2>     :     8.764254
Ideal value S*(S+1) for S=2.5   :     8.750000
Deviation                       :     0.014254

----------------
ORBITAL ENERGIES
----------------
                 SPIN UP ORBITALS
  NO   OCC          E(Eh)            E(eV) 
   0   1.0000    -261.544475     -7116.9870 
   1   1.0000    -104.774371     -2851.0556 
   2   1.0000    -104.770480     -2850.9497 
   3   1.0000    -104.767817     -2850.8772 
   4   1.0000     -32.212384      -876.5435 
   5   1.0000     -27.688306      -753.4371 
   6   1.0000     -27.688083      -753.4310 
   7   1.0000     -27.687844      -753.4245 
   8   1.0000     -20.540584      -558.9377 
   9   1.0000     -11.393551      -310.0343 
  10   1.0000     -11.361740      -309.1687 
  11   1.0000     -11.293127      -307.3016 
  12   1.0000     -11.286527      -307.1220 
  13   1.0000     -11.275057      -306.8099 
  14   1.0000     -11.255960      -306.2902 
  15   1.0000     -11.245716      -306.0115 
  16   1.0000     -11.236644      -305.7646 
  17   1.0000     -10.500939      -285.7451 
  18   1.0000     -10.497024      -285.6386 
  19   1.0000     -10.494389      -285.5669 
  20   1.0000      -7.967848      -216.8162 
  21   1.0000      -7.966938      -216.7914 
  22   1.0000      -7.966900      -216.7904 
  23   1.0000      -7.963852      -216.7074 
  24   1.0000      -7.963121      -216.6875 
  25   1.0000      -7.963025      -216.6849 
  26   1.0000      -7.961205      -216.6354 
  27   1.0000      -7.960501      -216.6162 
  28   1.0000      -7.960417      -216.6140 
  29   1.0000      -4.567823      -124.2968 
  30   1.0000      -3.180324       -86.5410 
  31   1.0000      -3.179930       -86.5303 
  32   1.0000      -3.179512       -86.5189 
  33   1.0000      -1.373558       -37.3764 
  34   1.0000      -1.193308       -32.4716 
  35   1.0000      -1.086032       -29.5524 
  36   1.0000      -1.044731       -28.4286 
  37   1.0000      -1.043325       -28.3903 
  38   1.0000      -1.037924       -28.2433 
  39   1.0000      -1.034852       -28.1597 
  40   1.0000      -1.014340       -27.6016 
  41   1.0000      -0.971486       -26.4355 
  42   1.0000      -0.934200       -25.4209 
  43   1.0000      -0.908943       -24.7336 
  44   1.0000      -0.897416       -24.4199 
  45   1.0000      -0.897266       -24.4159 
  46   1.0000      -0.889409       -24.2020 
  47   1.0000      -0.888613       -24.1804 
  48   1.0000      -0.792351       -21.5610 
  49   1.0000      -0.765491       -20.8301 
  50   1.0000      -0.709092       -19.2954 
  51   1.0000      -0.691822       -18.8254 
  52   1.0000      -0.675783       -18.3890 
  53   1.0000      -0.648029       -17.6338 
  54   1.0000      -0.641843       -17.4654 
  55   1.0000      -0.629200       -17.1214 
  56   1.0000      -0.605021       -16.4635 
  57   1.0000      -0.595987       -16.2176 
  58   1.0000      -0.594475       -16.1765 
  59   1.0000      -0.583105       -15.8671 
  60   1.0000      -0.576412       -15.6850 
  61   1.0000      -0.558915       -15.2088 
  62   1.0000      -0.557076       -15.1588 
  63   1.0000      -0.541581       -14.7372 
  64   1.0000      -0.532654       -14.4943 
  65   1.0000      -0.527477       -14.3534 
  66   1.0000      -0.506605       -13.7854 
  67   1.0000      -0.467751       -12.7282 
  68   1.0000      -0.458993       -12.4898 
  69   1.0000      -0.446290       -12.1442 
  70   1.0000      -0.425154       -11.5690 
  71   1.0000      -0.422214       -11.4890 
  72   1.0000      -0.420244       -11.4354 
  73   1.0000      -0.411325       -11.1927 
  74   1.0000      -0.410413       -11.1679 
  75   1.0000      -0.408384       -11.1127 
  76   1.0000      -0.403632       -10.9834 
  77   0.0000       0.004775         0.1299 
  78   0.0000       0.007570         0.2060 
  79   0.0000       0.018996         0.5169 
  80   0.0000       0.019628         0.5341 
  81   0.0000       0.030226         0.8225 
  82   0.0000       0.037282         1.0145 
  83   0.0000       0.038720         1.0536 
  84   0.0000       0.044046         1.1985 
  85   0.0000       0.045402         1.2354 
  86   0.0000       0.047346         1.2883 
  87   0.0000       0.056916         1.5488 
  88   0.0000       0.059179         1.6103 
  89   0.0000       0.061485         1.6731 
  90   0.0000       0.064275         1.7490 
  91   0.0000       0.065987         1.7956 
  92   0.0000       0.070335         1.9139 
  93   0.0000       0.074417         2.0250 
  94   0.0000       0.077462         2.1079 
  95   0.0000       0.087909         2.3921 
  96   0.0000       0.089335         2.4309 
  97   0.0000       0.093853         2.5539 
  98   0.0000       0.095338         2.5943 
  99   0.0000       0.098153         2.6709 
 100   0.0000       0.099645         2.7115 
 101   0.0000       0.109455         2.9784 
 102   0.0000       0.113430         3.0866 
 103   0.0000       0.119980         3.2648 
 104   0.0000       0.121628         3.3097 
 105   0.0000       0.125525         3.4157 
 106   0.0000       0.127707         3.4751 
 107   0.0000       0.130768         3.5584 
 108   0.0000       0.131342         3.5740 
 109   0.0000       0.133216         3.6250 
 110   0.0000       0.138215         3.7610 
 111   0.0000       0.138779         3.7764 
 112   0.0000       0.143352         3.9008 
 113   0.0000       0.146633         3.9901 
 114   0.0000       0.151215         4.1148 
 115   0.0000       0.155092         4.2203 
 116   0.0000       0.157677         4.2906 
 117   0.0000       0.164394         4.4734 
 118   0.0000       0.165285         4.4976 
 119   0.0000       0.167690         4.5631 
 120   0.0000       0.169467         4.6114 
 121   0.0000       0.171674         4.6715 
 122   0.0000       0.174450         4.7470 
 123   0.0000       0.178313         4.8521 
 124   0.0000       0.181264         4.9324 
 125   0.0000       0.188228         5.1219 
 126   0.0000       0.189049         5.1443 
 127   0.0000       0.195038         5.3072 
 128   0.0000       0.198478         5.4009 
 129   0.0000       0.201150         5.4736 
 130   0.0000       0.203555         5.5390 
 131   0.0000       0.207843         5.6557 
 132   0.0000       0.208765         5.6808 
 133   0.0000       0.213455         5.8084 
 134   0.0000       0.217997         5.9320 
 135   0.0000       0.222106         6.0438 
 136   0.0000       0.224701         6.1144 
 137   0.0000       0.226880         6.1737 
 138   0.0000       0.228496         6.2177 
 139   0.0000       0.231937         6.3113 
 140   0.0000       0.232929         6.3383 
 141   0.0000       0.240398         6.5416 
 142   0.0000       0.242393         6.5958 
 143   0.0000       0.244522         6.6538 
 144   0.0000       0.247706         6.7404 
 145   0.0000       0.251037         6.8311 
 146   0.0000       0.253133         6.8881 
 147   0.0000       0.258821         7.0429 
 148   0.0000       0.260794         7.0966 
 149   0.0000       0.264587         7.1998 
 150   0.0000       0.270107         7.3500 
 151   0.0000       0.273191         7.4339 
 152   0.0000       0.275913         7.5080 
 153   0.0000       0.281396         7.6572 
 154   0.0000       0.283083         7.7031 
 155   0.0000       0.288321         7.8456 
 156   0.0000       0.290615         7.9080 
 157   0.0000       0.292496         7.9592 
 158   0.0000       0.300481         8.1765 
 159   0.0000       0.301528         8.2050 
 160   0.0000       0.306828         8.3492 
 161   0.0000       0.315558         8.5868 
 162   0.0000       0.319208         8.6861 
 163   0.0000       0.321978         8.7615 
 164   0.0000       0.325021         8.8443 
 165   0.0000       0.329101         8.9553 
 166   0.0000       0.331843         9.0299 
 167   0.0000       0.337717         9.1897 
 168   0.0000       0.341633         9.2963 
 169   0.0000       0.343312         9.3420 
 170   0.0000       0.345744         9.4082 
 171   0.0000       0.352999         9.6056 
 172   0.0000       0.355834         9.6827 
 173   0.0000       0.359381         9.7793 
 174   0.0000       0.360353         9.8057 
 175   0.0000       0.365365         9.9421 
 176   0.0000       0.370287        10.0760 
 177   0.0000       0.371924        10.1206 
 178   0.0000       0.377611        10.2753 
 179   0.0000       0.378627        10.3030 
 180   0.0000       0.383157        10.4262 
 181   0.0000       0.384132        10.4528 
 182   0.0000       0.385415        10.4877 
 183   0.0000       0.389157        10.5895 
 184   0.0000       0.391933        10.6650 
 185   0.0000       0.394980        10.7480 
 186   0.0000       0.395764        10.7693 
 187   0.0000       0.401158        10.9161 
 188   0.0000       0.404502        11.0071 
 189   0.0000       0.411114        11.1870 
 190   0.0000       0.416579        11.3357 
 191   0.0000       0.417350        11.3567 
 192   0.0000       0.422722        11.5029 
 193   0.0000       0.424553        11.5527 
 194   0.0000       0.427513        11.6332 
 195   0.0000       0.432342        11.7646 
 196   0.0000       0.435834        11.8597 
 197   0.0000       0.439272        11.9532 
 198   0.0000       0.443059        12.0563 
 199   0.0000       0.449293        12.2259 
 200   0.0000       0.451750        12.2927 
 201   0.0000       0.454892        12.3782 
 202   0.0000       0.455717        12.4007 
 203   0.0000       0.459599        12.5063 
 204   0.0000       0.465284        12.6610 
 205   0.0000       0.470258        12.7964 
 206   0.0000       0.472646        12.8614 
 207   0.0000       0.477125        12.9832 
 208   0.0000       0.481608        13.1052 
 209   0.0000       0.484847        13.1934 
 210   0.0000       0.486320        13.2335 
 211   0.0000       0.490043        13.3348 
 212   0.0000       0.490848        13.3566 
 213   0.0000       0.491917        13.3857 
 214   0.0000       0.493850        13.4383 
 215   0.0000       0.496076        13.4989 
 216   0.0000       0.498680        13.5698 
 217   0.0000       0.504886        13.7386 
 218   0.0000       0.505969        13.7681 
 219   0.0000       0.512902        13.9568 
 220   0.0000       0.517212        14.0740 
 221   0.0000       0.518650        14.1132 
 222   0.0000       0.520893        14.1742 
 223   0.0000       0.524364        14.2687 
 224   0.0000       0.527960        14.3665 
 225   0.0000       0.534287        14.5387 
 226   0.0000       0.537088        14.6149 
 227   0.0000       0.541810        14.7434 
 228   0.0000       0.543482        14.7889 
 229   0.0000       0.548367        14.9218 
 230   0.0000       0.551025        14.9941 
 231   0.0000       0.558250        15.1908 
 232   0.0000       0.560149        15.2424 
 233   0.0000       0.561804        15.2875 
 234   0.0000       0.566871        15.4253 
 235   0.0000       0.571002        15.5378 
 236   0.0000       0.571771        15.5587 
 237   0.0000       0.574226        15.6255 
 238   0.0000       0.577627        15.7180 
 239   0.0000       0.583594        15.8804 
 240   0.0000       0.590464        16.0673 
 241   0.0000       0.592248        16.1159 
 242   0.0000       0.592894        16.1335 
 243   0.0000       0.599137        16.3033 
 244   0.0000       0.603835        16.4312 
 245   0.0000       0.604545        16.4505 
 246   0.0000       0.610467        16.6116 
 247   0.0000       0.614740        16.7279 
 248   0.0000       0.617315        16.7980 
 249   0.0000       0.624276        16.9874 
 250   0.0000       0.625631        17.0243 
 251   0.0000       0.627292        17.0695 
 252   0.0000       0.633368        17.2348 
 253   0.0000       0.639930        17.4134 
 254   0.0000       0.640456        17.4277 
 255   0.0000       0.643741        17.5171 
 256   0.0000       0.648470        17.6458 
 257   0.0000       0.651510        17.7285 
 258   0.0000       0.657160        17.8822 
 259   0.0000       0.661631        18.0039 
 260   0.0000       0.665654        18.1134 
 261   0.0000       0.666912        18.1476 
 262   0.0000       0.676275        18.4024 
 263   0.0000       0.680754        18.5243 
 264   0.0000       0.685379        18.6501 
 265   0.0000       0.688778        18.7426 
 266   0.0000       0.692396        18.8410 
 267   0.0000       0.694294        18.8927 
 268   0.0000       0.699347        19.0302 
 269   0.0000       0.701529        19.0896 
 270   0.0000       0.707070        19.2404 
 271   0.0000       0.712455        19.3869 
 272   0.0000       0.713624        19.4187 
 273   0.0000       0.719901        19.5895 
 274   0.0000       0.727527        19.7970 
 275   0.0000       0.729124        19.8405 
 276   0.0000       0.734653        19.9909 
 277   0.0000       0.738964        20.1082 
 278   0.0000       0.742466        20.2035 
 279   0.0000       0.748010        20.3544 
 280   0.0000       0.753533        20.5047 
 281   0.0000       0.757216        20.6049 
 282   0.0000       0.763709        20.7816 
 283   0.0000       0.767344        20.8805 
 284   0.0000       0.778629        21.1876 
 285   0.0000       0.787338        21.4245 
 286   0.0000       0.791824        21.5466 
 287   0.0000       0.796254        21.6672 
 288   0.0000       0.801939        21.8219 
 289   0.0000       0.802622        21.8404 
 290   0.0000       0.810478        22.0542 
 291   0.0000       0.814387        22.1606 
 292   0.0000       0.823976        22.4215 
 293   0.0000       0.825892        22.4737 
 294   0.0000       0.830333        22.5945 
 295   0.0000       0.838626        22.8202 
 296   0.0000       0.842410        22.9231 
 297   0.0000       0.847270        23.0554 
 298   0.0000       0.850766        23.1505 
 299   0.0000       0.854245        23.2452 
 300   0.0000       0.863634        23.5007 
 301   0.0000       0.866456        23.5775 
 302   0.0000       0.867803        23.6141 
 303   0.0000       0.879169        23.9234 
 304   0.0000       0.881658        23.9911 
 305   0.0000       0.887632        24.1537 
 306   0.0000       0.889945        24.2166 
 307   0.0000       0.895114        24.3573 
 308   0.0000       0.902766        24.5655 
 309   0.0000       0.905622        24.6432 
 310   0.0000       0.909374        24.7453 
 311   0.0000       0.909643        24.7526 
 312   0.0000       0.918895        25.0044 
 313   0.0000       0.921822        25.0841 
 314   0.0000       0.925704        25.1897 
 315   0.0000       0.929584        25.2953 
 316   0.0000       0.930084        25.3089 
 317   0.0000       0.934428        25.4271 
 318   0.0000       0.941205        25.6115 
 319   0.0000       0.945939        25.7403 
 320   0.0000       0.949164        25.8281 
 321   0.0000       0.954021        25.9602 
 322   0.0000       0.959073        26.0977 
 323   0.0000       0.961855        26.1734 
 324   0.0000       0.963837        26.2273 
 325   0.0000       0.967752        26.3339 
 326   0.0000       0.971771        26.4432 
 327   0.0000       0.975378        26.5414 
 328   0.0000       0.978325        26.6216 
 329   0.0000       0.982680        26.7401 
 330   0.0000       0.984255        26.7829 
 331   0.0000       0.987458        26.8701 
 332   0.0000       0.990317        26.9479 
 333   0.0000       0.997750        27.1502 
 334   0.0000       1.001256        27.2456 
 335   0.0000       1.004589        27.3363 
 336   0.0000       1.009483        27.4694 
 337   0.0000       1.012179        27.5428 
 338   0.0000       1.018807        27.7232 
 339   0.0000       1.025720        27.9113 
 340   0.0000       1.027543        27.9609 
 341   0.0000       1.030234        28.0341 
 342   0.0000       1.033552        28.1244 
 343   0.0000       1.038268        28.2527 
 344   0.0000       1.042979        28.3809 
 345   0.0000       1.044336        28.4178 
 346   0.0000       1.047030        28.4911 
 347   0.0000       1.052766        28.6472 
 348   0.0000       1.052917        28.6513 
 349   0.0000       1.055375        28.7182 
 350   0.0000       1.059468        28.8296 
 351   0.0000       1.061745        28.8915 
 352   0.0000       1.067939        29.0601 
 353   0.0000       1.071735        29.1634 
 354   0.0000       1.076563        29.2948 
 355   0.0000       1.080246        29.3950 
 356   0.0000       1.085027        29.5251 
 357   0.0000       1.091238        29.6941 
 358   0.0000       1.091436        29.6995 
 359   0.0000       1.096259        29.8307 
 360   0.0000       1.097543        29.8657 
 361   0.0000       1.106220        30.1018 
 362   0.0000       1.109568        30.1929 
 363   0.0000       1.114473        30.3264 
 364   0.0000       1.117495        30.4086 
 365   0.0000       1.122464        30.5438 
 366   0.0000       1.123622        30.5753 
 367   0.0000       1.132650        30.8210 
 368   0.0000       1.135784        30.9063 
 369   0.0000       1.138890        30.9908 
 370   0.0000       1.145927        31.1823 
 371   0.0000       1.146836        31.2070 
 372   0.0000       1.152096        31.3501 
 373   0.0000       1.156005        31.4565 
 374   0.0000       1.159685        31.5566 
 375   0.0000       1.166260        31.7355 
 376   0.0000       1.168948        31.8087 
 377   0.0000       1.170222        31.8434 
 378   0.0000       1.173918        31.9439 
 379   0.0000       1.181747        32.1570 
 380   0.0000       1.186645        32.2903 
 381   0.0000       1.192759        32.4566 
 382   0.0000       1.202652        32.7258 
 383   0.0000       1.205502        32.8034 
 384   0.0000       1.208724        32.8911 
 385   0.0000       1.213947        33.0332 
 386   0.0000       1.220107        33.2008 
 387   0.0000       1.223203        33.2851 
 388   0.0000       1.224975        33.3333 
 389   0.0000       1.231496        33.5107 
 390   0.0000       1.237134        33.6641 
 391   0.0000       1.238987        33.7146 
 392   0.0000       1.241815        33.7915 
 393   0.0000       1.250101        34.0170 
 394   0.0000       1.252118        34.0719 
 395   0.0000       1.261080        34.3157 
 396   0.0000       1.265748        34.4428 
 397   0.0000       1.269670        34.5495 
 398   0.0000       1.275045        34.6957 
 399   0.0000       1.278610        34.7928 
 400   0.0000       1.282451        34.8973 
 401   0.0000       1.288786        35.0697 
 402   0.0000       1.291645        35.1474 
 403   0.0000       1.294390        35.2222 
 404   0.0000       1.297040        35.2943 
 405   0.0000       1.309244        35.6263 
 406   0.0000       1.316117        35.8134 
 407   0.0000       1.317503        35.8511 
 408   0.0000       1.323866        36.0242 
 409   0.0000       1.328711        36.1561 
 410   0.0000       1.339720        36.4556 
 411   0.0000       1.340711        36.4826 
 412   0.0000       1.342093        36.5202 
 413   0.0000       1.348348        36.6904 
 414   0.0000       1.351202        36.7681 
 415   0.0000       1.353643        36.8345 
 416   0.0000       1.363946        37.1149 
 417   0.0000       1.367989        37.2249 
 418   0.0000       1.378543        37.5121 
 419   0.0000       1.382648        37.6238 
 420   0.0000       1.386423        37.7265 
 421   0.0000       1.388501        37.7830 
 422   0.0000       1.404992        38.2318 
 423   0.0000       1.407579        38.3022 
 424   0.0000       1.410415        38.3793 
 425   0.0000       1.419406        38.6240 
 426   0.0000       1.425486        38.7894 
 427   0.0000       1.429414        38.8963 
 428   0.0000       1.431378        38.9498 
 429   0.0000       1.435276        39.0558 
 430   0.0000       1.439157        39.1614 
 431   0.0000       1.446272        39.3550 
 432   0.0000       1.455830        39.6151 
 433   0.0000       1.460516        39.7427 
 434   0.0000       1.465454        39.8770 
 435   0.0000       1.471208        40.0336 
 436   0.0000       1.478244        40.2251 
 437   0.0000       1.482985        40.3541 
 438   0.0000       1.484491        40.3950 
 439   0.0000       1.487263        40.4705 
 440   0.0000       1.495260        40.6881 
 441   0.0000       1.504511        40.9398 
 442   0.0000       1.505309        40.9615 
 443   0.0000       1.511851        41.1396 
 444   0.0000       1.521311        41.3970 
 445   0.0000       1.524361        41.4800 
 446   0.0000       1.527355        41.5614 
 447   0.0000       1.531923        41.6857 
 448   0.0000       1.534236        41.7487 
 449   0.0000       1.543212        41.9929 
 450   0.0000       1.546615        42.0855 
 451   0.0000       1.552823        42.2545 
 452   0.0000       1.556210        42.3466 
 453   0.0000       1.562072        42.5061 
 454   0.0000       1.568870        42.6911 
 455   0.0000       1.572244        42.7829 
 456   0.0000       1.577024        42.9130 
 457   0.0000       1.585166        43.1345 
 458   0.0000       1.586286        43.1650 
 459   0.0000       1.591031        43.2942 
 460   0.0000       1.596296        43.4374 
 461   0.0000       1.603006        43.6200 
 462   0.0000       1.607899        43.7532 
 463   0.0000       1.610650        43.8280 
 464   0.0000       1.616380        43.9839 
 465   0.0000       1.620062        44.0841 
 466   0.0000       1.627946        44.2987 
 467   0.0000       1.638460        44.5848 
 468   0.0000       1.639994        44.6265 
 469   0.0000       1.641816        44.6761 
 470   0.0000       1.644348        44.7450 
 471   0.0000       1.658349        45.1260 
 472   0.0000       1.663532        45.2670 
 473   0.0000       1.671768        45.4911 
 474   0.0000       1.675582        45.5949 
 475   0.0000       1.681166        45.7469 
 476   0.0000       1.684302        45.8322 
 477   0.0000       1.689148        45.9640 
 478   0.0000       1.692319        46.0503 
 479   0.0000       1.694654        46.1139 
 480   0.0000       1.700232        46.2657 
 481   0.0000       1.707914        46.4747 
 482   0.0000       1.718366        46.7591 
 483   0.0000       1.719424        46.7879 
 484   0.0000       1.723957        46.9113 
 485   0.0000       1.737399        47.2770 
 486   0.0000       1.738730        47.3133 
 487   0.0000       1.741433        47.3868 
 488   0.0000       1.750645        47.6375 
 489   0.0000       1.755695        47.7749 
 490   0.0000       1.757944        47.8361 
 491   0.0000       1.762278        47.9540 
 492   0.0000       1.766580        48.0711 
 493   0.0000       1.773520        48.2599 
 494   0.0000       1.780370        48.4463 
 495   0.0000       1.782341        48.5000 
 496   0.0000       1.786821        48.6219 
 497   0.0000       1.795736        48.8645 
 498   0.0000       1.802474        49.0478 
 499   0.0000       1.807711        49.1903 
 500   0.0000       1.815774        49.4097 
 501   0.0000       1.822171        49.5838 
 502   0.0000       1.823199        49.6118 
 503   0.0000       1.831809        49.8461 
 504   0.0000       1.838174        50.0193 
 505   0.0000       1.838381        50.0249 
 506   0.0000       1.842105        50.1262 
 507   0.0000       1.849529        50.3282 
 508   0.0000       1.853439        50.4346 
 509   0.0000       1.859449        50.5982 
 510   0.0000       1.860351        50.6227 
 511   0.0000       1.868527        50.8452 
 512   0.0000       1.872259        50.9468 
 513   0.0000       1.877768        51.0967 
 514   0.0000       1.879185        51.1352 
 515   0.0000       1.885711        51.3128 
 516   0.0000       1.891678        51.4752 
 517   0.0000       1.898624        51.6642 
 518   0.0000       1.904119        51.8137 
 519   0.0000       1.908656        51.9372 
 520   0.0000       1.910860        51.9972 
 521   0.0000       1.917944        52.1899 
 522   0.0000       1.921165        52.2775 
 523   0.0000       1.928774        52.4846 
 524   0.0000       1.933241        52.6062 
 525   0.0000       1.939040        52.7640 
 526   0.0000       1.949247        53.0417 
 527   0.0000       1.954176        53.1758 
 528   0.0000       1.959502        53.3207 
 529   0.0000       1.963998        53.4431 
 530   0.0000       1.971825        53.6561 
 531   0.0000       1.973582        53.7039 
 532   0.0000       1.976303        53.7779 
 533   0.0000       1.979664        53.8694 
 534   0.0000       1.983757        53.9808 
 535   0.0000       1.996786        54.3353 
 536   0.0000       2.001413        54.4612 
 537   0.0000       2.007516        54.6273 
 538   0.0000       2.012291        54.7572 
 539   0.0000       2.019481        54.9529 
 540   0.0000       2.025475        55.1160 
 541   0.0000       2.035592        55.3913 
 542   0.0000       2.044855        55.6433 
 543   0.0000       2.047396        55.7125 
 544   0.0000       2.053614        55.8817 
 545   0.0000       2.067125        56.2493 
 546   0.0000       2.073922        56.4343 
 547   0.0000       2.078433        56.5570 
 548   0.0000       2.083748        56.7017 
 549   0.0000       2.091433        56.9108 
 550   0.0000       2.107519        57.3485 
 551   0.0000       2.111619        57.4601 
 552   0.0000       2.113591        57.5137 
 553   0.0000       2.117615        57.6232 
 554   0.0000       2.121405        57.7264 
 555   0.0000       2.124020        57.7975 
 556   0.0000       2.131549        58.0024 
 557   0.0000       2.139507        58.2189 
 558   0.0000       2.151784        58.5530 
 559   0.0000       2.160055        58.7781 
 560   0.0000       2.161555        58.8189 
 561   0.0000       2.170315        59.0573 
 562   0.0000       2.174976        59.1841 
 563   0.0000       2.182438        59.3872 
 564   0.0000       2.192084        59.6496 
 565   0.0000       2.196466        59.7689 
 566   0.0000       2.204863        59.9974 
 567   0.0000       2.212023        60.1922 
 568   0.0000       2.218726        60.3746 
 569   0.0000       2.231194        60.7139 
 570   0.0000       2.231837        60.7314 
 571   0.0000       2.246331        61.1258 
 572   0.0000       2.247591        61.1601 
 573   0.0000       2.252175        61.2848 
 574   0.0000       2.262248        61.5589 
 575   0.0000       2.268524        61.7297 
 576   0.0000       2.270925        61.7950 
 577   0.0000       2.282677        62.1148 
 578   0.0000       2.295226        62.4563 
 579   0.0000       2.303771        62.6888 
 580   0.0000       2.311413        62.8968 
 581   0.0000       2.315616        63.0111 
 582   0.0000       2.325988        63.2934 
 583   0.0000       2.331090        63.4322 
 584   0.0000       2.341538        63.7165 
 585   0.0000       2.346939        63.8635 
 586   0.0000       2.356530        64.1244 
 587   0.0000       2.361640        64.2635 
 588   0.0000       2.367345        64.4187 
 589   0.0000       2.377371        64.6916 
 590   0.0000       2.381702        64.8094 
 591   0.0000       2.387071        64.9555 
 592   0.0000       2.394484        65.1572 
 593   0.0000       2.397491        65.2390 
 594   0.0000       2.400680        65.3258 
 595   0.0000       2.408975        65.5515 
 596   0.0000       2.416891        65.7669 
 597   0.0000       2.429509        66.1103 
 598   0.0000       2.437151        66.3183 
 599   0.0000       2.439465        66.3812 
 600   0.0000       2.459681        66.9313 
 601   0.0000       2.463915        67.0465 
 602   0.0000       2.474460        67.3335 
 603   0.0000       2.479788        67.4785 
 604   0.0000       2.493416        67.8493 
 605   0.0000       2.504623        68.1543 
 606   0.0000       2.517883        68.5151 
 607   0.0000       2.526756        68.7565 
 608   0.0000       2.534490        68.9670 
 609   0.0000       2.538424        69.0740 
 610   0.0000       2.552981        69.4702 
 611   0.0000       2.562895        69.7399 
 612   0.0000       2.573847        70.0379 
 613   0.0000       2.589942        70.4759 
 614   0.0000       2.604780        70.8797 
 615   0.0000       2.620134        71.2975 
 616   0.0000       2.623084        71.3777 
 617   0.0000       2.638113        71.7867 
 618   0.0000       2.652008        72.1648 
 619   0.0000       2.653921        72.2169 
 620   0.0000       2.662061        72.4384 
 621   0.0000       2.669208        72.6328 
 622   0.0000       2.678684        72.8907 
 623   0.0000       2.691481        73.2389 
 624   0.0000       2.703016        73.5528 
 625   0.0000       2.710809        73.7649 
 626   0.0000       2.717248        73.9401 
 627   0.0000       2.725305        74.1593 
 628   0.0000       2.734842        74.4188 
 629   0.0000       2.747336        74.7588 
 630   0.0000       2.761058        75.1322 
 631   0.0000       2.765602        75.2559 
 632   0.0000       2.769163        75.3528 
 633   0.0000       2.779702        75.6395 
 634   0.0000       2.798315        76.1460 
 635   0.0000       2.808933        76.4349 
 636   0.0000       2.821584        76.7792 
 637   0.0000       2.829561        76.9963 
 638   0.0000       2.837986        77.2255 
 639   0.0000       2.861707        77.8710 
 640   0.0000       2.870488        78.1100 
 641   0.0000       2.879926        78.3668 
 642   0.0000       2.888786        78.6079 
 643   0.0000       2.899182        78.8908 
 644   0.0000       2.914472        79.3068 
 645   0.0000       2.926836        79.6433 
 646   0.0000       2.933403        79.8220 
 647   0.0000       2.938570        79.9626 
 648   0.0000       2.958789        80.5127 
 649   0.0000       2.971844        80.8680 
 650   0.0000       2.989914        81.3597 
 651   0.0000       3.001861        81.6848 
 652   0.0000       3.041918        82.7748 
 653   0.0000       3.050597        83.0110 
 654   0.0000       3.075471        83.6878 
 655   0.0000       3.078516        83.7707 
 656   0.0000       3.092107        84.1405 
 657   0.0000       3.099409        84.3392 
 658   0.0000       3.123137        84.9849 
 659   0.0000       3.143126        85.5288 
 660   0.0000       3.151860        85.7665 
 661   0.0000       3.165532        86.1385 
 662   0.0000       3.181423        86.5709 
 663   0.0000       3.183068        86.6157 
 664   0.0000       3.190473        86.8172 
 665   0.0000       3.208782        87.3154 
 666   0.0000       3.220617        87.6374 
 667   0.0000       3.228544        87.8531 
 668   0.0000       3.231027        87.9207 
 669   0.0000       3.249987        88.4367 
 670   0.0000       3.255884        88.5971 
 671   0.0000       3.262303        88.7718 
 672   0.0000       3.266072        88.8743 
 673   0.0000       3.279124        89.2295 
 674   0.0000       3.293556        89.6222 
 675   0.0000       3.306454        89.9732 
 676   0.0000       3.309818        90.0647 
 677   0.0000       3.316288        90.2408 
 678   0.0000       3.329278        90.5943 
 679   0.0000       3.336118        90.7804 
 680   0.0000       3.347051        91.0779 
 681   0.0000       3.350823        91.1805 
 682   0.0000       3.355539        91.3089 
 683   0.0000       3.358848        91.3989 
 684   0.0000       3.375257        91.8454 
 685   0.0000       3.385881        92.1345 
 686   0.0000       3.397644        92.4546 
 687   0.0000       3.403416        92.6116 
 688   0.0000       3.427850        93.2765 
 689   0.0000       3.439669        93.5982 
 690   0.0000       3.447260        93.8047 
 691   0.0000       3.452412        93.9449 
 692   0.0000       3.457923        94.0949 
 693   0.0000       3.467675        94.3602 
 694   0.0000       3.473330        94.5141 
 695   0.0000       3.482177        94.7549 
 696   0.0000       3.495558        95.1190 
 697   0.0000       3.497629        95.1753 
 698   0.0000       3.511674        95.5575 
 699   0.0000       3.518430        95.7413 
 700   0.0000       3.524050        95.8943 
 701   0.0000       3.532907        96.1353 
 702   0.0000       3.546690        96.5103 
 703   0.0000       3.550902        96.6250 
 704   0.0000       3.558814        96.8402 
 705   0.0000       3.573031        97.2271 
 706   0.0000       3.582797        97.4929 
 707   0.0000       3.586032        97.5809 
 708   0.0000       3.597989        97.9063 
 709   0.0000       3.600138        97.9647 
 710   0.0000       3.614075        98.3440 
 711   0.0000       3.623913        98.6117 
 712   0.0000       3.629484        98.7633 
 713   0.0000       3.640396        99.0602 
 714   0.0000       3.649995        99.3214 
 715   0.0000       3.663432        99.6870 
 716   0.0000       3.665298        99.7378 
 717   0.0000       3.669348        99.8480 
 718   0.0000       3.677931       100.0816 
 719   0.0000       3.688126       100.3590 
 720   0.0000       3.697846       100.6235 
 721   0.0000       3.701698       100.7283 
 722   0.0000       3.707756       100.8932 
 723   0.0000       3.718016       101.1724 
 724   0.0000       3.718469       101.1847 
 725   0.0000       3.731730       101.5455 
 726   0.0000       3.744090       101.8819 
 727   0.0000       3.747900       101.9855 
 728   0.0000       3.759824       102.3100 
 729   0.0000       3.761020       102.3426 
 730   0.0000       3.765445       102.4630 
 731   0.0000       3.770711       102.6063 
 732   0.0000       3.791562       103.1737 
 733   0.0000       3.793787       103.2342 
 734   0.0000       3.799122       103.3794 
 735   0.0000       3.807433       103.6055 
 736   0.0000       3.822150       104.0060 
 737   0.0000       3.826859       104.1341 
 738   0.0000       3.837922       104.4352 
 739   0.0000       3.841024       104.5196 
 740   0.0000       3.850035       104.7648 
 741   0.0000       3.851276       104.7986 
 742   0.0000       3.854192       104.8779 
 743   0.0000       3.856583       104.9430 
 744   0.0000       3.867700       105.2455 
 745   0.0000       3.881132       105.6110 
 746   0.0000       3.886830       105.7660 
 747   0.0000       3.892836       105.9295 
 748   0.0000       3.902343       106.1881 
 749   0.0000       3.907906       106.3395 
 750   0.0000       3.910155       106.4007 
 751   0.0000       3.920658       106.6865 
 752   0.0000       3.929549       106.9285 
 753   0.0000       3.930636       106.9580 
 754   0.0000       3.934227       107.0558 
 755   0.0000       3.939592       107.2018 
 756   0.0000       3.952183       107.5444 
 757   0.0000       3.957089       107.6779 
 758   0.0000       3.961912       107.8091 
 759   0.0000       3.971080       108.0586 
 760   0.0000       3.980514       108.3153 
 761   0.0000       3.984028       108.4109 
 762   0.0000       3.995763       108.7302 
 763   0.0000       4.002347       108.9094 
 764   0.0000       4.010098       109.1203 
 765   0.0000       4.013635       109.2165 
 766   0.0000       4.021231       109.4233 
 767   0.0000       4.030538       109.6765 
 768   0.0000       4.031987       109.7159 
 769   0.0000       4.045584       110.0859 
 770   0.0000       4.048707       110.1709 
 771   0.0000       4.061078       110.5076 
 772   0.0000       4.067218       110.6746 
 773   0.0000       4.072965       110.8310 
 774   0.0000       4.078341       110.9773 
 775   0.0000       4.088613       111.2568 
 776   0.0000       4.095895       111.4550 
 777   0.0000       4.108001       111.7844 
 778   0.0000       4.112376       111.9034 
 779   0.0000       4.122170       112.1699 
 780   0.0000       4.133110       112.4676 
 781   0.0000       4.139998       112.6551 
 782   0.0000       4.140647       112.6727 
 783   0.0000       4.150210       112.9329 
 784   0.0000       4.159772       113.1932 
 785   0.0000       4.177413       113.6732 
 786   0.0000       4.183653       113.8430 
 787   0.0000       4.188271       113.9687 
 788   0.0000       4.196402       114.1899 
 789   0.0000       4.214858       114.6921 
 790   0.0000       4.219439       114.8168 
 791   0.0000       4.227931       115.0478 
 792   0.0000       4.239054       115.3505 
 793   0.0000       4.250609       115.6649 
 794   0.0000       4.256432       115.8234 
 795   0.0000       4.261774       115.9688 
 796   0.0000       4.274883       116.3255 
 797   0.0000       4.278711       116.4297 
 798   0.0000       4.284590       116.5896 
 799   0.0000       4.287514       116.6692 
 800   0.0000       4.292953       116.8172 
 801   0.0000       4.304556       117.1329 
 802   0.0000       4.319155       117.5302 
 803   0.0000       4.324716       117.6815 
 804   0.0000       4.340202       118.1029 
 805   0.0000       4.348418       118.3265 
 806   0.0000       4.352001       118.4240 
 807   0.0000       4.373078       118.9975 
 808   0.0000       4.379026       119.1594 
 809   0.0000       4.382963       119.2665 
 810   0.0000       4.394766       119.5877 
 811   0.0000       4.406194       119.8986 
 812   0.0000       4.413677       120.1022 
 813   0.0000       4.423299       120.3641 
 814   0.0000       4.431598       120.5899 
 815   0.0000       4.433300       120.6362 
 816   0.0000       4.447186       121.0141 
 817   0.0000       4.456807       121.2759 
 818   0.0000       4.468129       121.5840 
 819   0.0000       4.481328       121.9431 
 820   0.0000       4.488545       122.1395 
 821   0.0000       4.495296       122.3232 
 822   0.0000       4.500798       122.4729 
 823   0.0000       4.509045       122.6973 
 824   0.0000       4.512956       122.8038 
 825   0.0000       4.519795       122.9899 
 826   0.0000       4.537976       123.4846 
 827   0.0000       4.550195       123.8171 
 828   0.0000       4.554314       123.9292 
 829   0.0000       4.559188       124.0618 
 830   0.0000       4.565301       124.2282 
 831   0.0000       4.582395       124.6933 
 832   0.0000       4.598496       125.1314 
 833   0.0000       4.608000       125.3901 
 834   0.0000       4.631618       126.0327 
 835   0.0000       4.636868       126.1756 
 836   0.0000       4.652257       126.5943 
 837   0.0000       4.657496       126.7369 
 838   0.0000       4.672460       127.1441 
 839   0.0000       4.681827       127.3990 
 840   0.0000       4.690982       127.6481 
 841   0.0000       4.696581       127.8005 
 842   0.0000       4.704004       128.0025 
 843   0.0000       4.713942       128.2729 
 844   0.0000       4.728229       128.6617 
 845   0.0000       4.748955       129.2256 
 846   0.0000       4.765842       129.6852 
 847   0.0000       4.771801       129.8473 
 848   0.0000       4.774821       129.9295 
 849   0.0000       4.791925       130.3949 
 850   0.0000       4.804211       130.7292 
 851   0.0000       4.813005       130.9685 
 852   0.0000       4.831731       131.4781 
 853   0.0000       4.835110       131.5700 
 854   0.0000       4.847369       131.9036 
 855   0.0000       4.860206       132.2529 
 856   0.0000       4.869099       132.4949 
 857   0.0000       4.872416       132.5852 
 858   0.0000       4.890759       133.0843 
 859   0.0000       4.905661       133.4898 
 860   0.0000       4.912469       133.6751 
 861   0.0000       4.914844       133.7397 
 862   0.0000       4.940098       134.4269 
 863   0.0000       4.950274       134.7038 
 864   0.0000       4.953003       134.7781 
 865   0.0000       4.961622       135.0126 
 866   0.0000       4.973785       135.3436 
 867   0.0000       4.989351       135.7671 
 868   0.0000       4.994907       135.9183 
 869   0.0000       5.007876       136.2712 
 870   0.0000       5.020564       136.6165 
 871   0.0000       5.029187       136.8511 
 872   0.0000       5.043464       137.2396 
 873   0.0000       5.055520       137.5677 
 874   0.0000       5.065312       137.8341 
 875   0.0000       5.095684       138.6606 
 876   0.0000       5.099344       138.7602 
 877   0.0000       5.105184       138.9191 
 878   0.0000       5.111760       139.0981 
 879   0.0000       5.123715       139.4234 
 880   0.0000       5.148062       140.0859 
 881   0.0000       5.155735       140.2947 
 882   0.0000       5.169792       140.6772 
 883   0.0000       5.179569       140.9432 
 884   0.0000       5.192874       141.3053 
 885   0.0000       5.217122       141.9651 
 886   0.0000       5.227503       142.2476 
 887   0.0000       5.239741       142.5806 
 888   0.0000       5.251189       142.8921 
 889   0.0000       5.255879       143.0197 
 890   0.0000       5.264599       143.2570 
 891   0.0000       5.280589       143.6921 
 892   0.0000       5.287569       143.8821 
 893   0.0000       5.299405       144.2041 
 894   0.0000       5.311317       144.5283 
 895   0.0000       5.331150       145.0680 
 896   0.0000       5.343749       145.4108 
 897   0.0000       5.346464       145.4847 
 898   0.0000       5.373615       146.2235 
 899   0.0000       5.386729       146.5803 
 900   0.0000       5.391383       146.7070 
 901   0.0000       5.401998       146.9958 
 902   0.0000       5.408928       147.1844 
 903   0.0000       5.420783       147.5070 
 904   0.0000       5.430620       147.7747 
 905   0.0000       5.447282       148.2281 
 906   0.0000       5.453706       148.4029 
 907   0.0000       5.460155       148.5784 
 908   0.0000       5.476220       149.0155 
 909   0.0000       5.489426       149.3749 
 910   0.0000       5.499567       149.6508 
 911   0.0000       5.508786       149.9017 
 912   0.0000       5.530378       150.4892 
 913   0.0000       5.550069       151.0251 
 914   0.0000       5.560024       151.2959 
 915   0.0000       5.576874       151.7545 
 916   0.0000       5.589239       152.0909 
 917   0.0000       5.596250       152.2817 
 918   0.0000       5.608915       152.6263 
 919   0.0000       5.618623       152.8905 
 920   0.0000       5.621766       152.9760 
 921   0.0000       5.640934       153.4976 
 922   0.0000       5.648463       153.7025 
 923   0.0000       5.654992       153.8802 
 924   0.0000       5.670125       154.2920 
 925   0.0000       5.679906       154.5581 
 926   0.0000       5.700118       155.1081 
 927   0.0000       5.712362       155.4413 
 928   0.0000       5.724087       155.7603 
 929   0.0000       5.727850       155.8627 
 930   0.0000       5.745221       156.3354 
 931   0.0000       5.753769       156.5680 
 932   0.0000       5.761529       156.7792 
 933   0.0000       5.770805       157.0316 
 934   0.0000       5.780625       157.2988 
 935   0.0000       5.799065       157.8006 
 936   0.0000       5.812293       158.1605 
 937   0.0000       5.830635       158.6596 
 938   0.0000       5.833201       158.7295 
 939   0.0000       5.835372       158.7886 
 940   0.0000       5.858098       159.4070 
 941   0.0000       5.881625       160.0471 
 942   0.0000       5.904701       160.6751 
 943   0.0000       5.910783       160.8406 
 944   0.0000       5.918789       161.0584 
 945   0.0000       5.979223       162.7029 
 946   0.0000       6.072171       165.2322 
 947   0.0000       6.088970       165.6893 
 948   0.0000       6.100408       166.0006 
 949   0.0000       6.115382       166.4080 
 950   0.0000       6.143966       167.1858 
 951   0.0000       6.159403       167.6059 
 952   0.0000       6.198080       168.6583 
 953   0.0000       6.204442       168.8314 
 954   0.0000       6.218877       169.2242 
 955   0.0000       6.220861       169.2782 
 956   0.0000       6.228546       169.4874 
 957   0.0000       6.260685       170.3619 
 958   0.0000       6.282985       170.9687 
 959   0.0000       6.313113       171.7885 
 960   0.0000       6.319655       171.9665 
 961   0.0000       6.340674       172.5385 
 962   0.0000       6.353597       172.8902 
 963   0.0000       6.374598       173.4616 
 964   0.0000       6.398788       174.1199 
 965   0.0000       6.410623       174.4419 
 966   0.0000       6.429740       174.9621 
 967   0.0000       6.457670       175.7221 
 968   0.0000       6.475367       176.2037 
 969   0.0000       6.489893       176.5990 
 970   0.0000       6.626423       180.3141 
 971   0.0000       6.742701       183.4782 
 972   0.0000       6.825729       185.7375 
 973   0.0000       6.859043       186.6441 
 974   0.0000       6.893264       187.5752 
 975   0.0000       6.923319       188.3931 
 976   0.0000       6.931553       188.6171 
 977   0.0000       6.967110       189.5847 
 978   0.0000       6.982686       190.0085 
 979   0.0000       6.986661       190.1167 
 980   0.0000       6.993950       190.3151 
 981   0.0000       7.042685       191.6412 
 982   0.0000       7.086095       192.8224 
 983   0.0000       7.094117       193.0407 
 984   0.0000       7.137643       194.2251 
 985   0.0000       7.196580       195.8289 
 986   0.0000       7.325648       199.3410 
 987   0.0000       7.368281       200.5011 
 988   0.0000       7.473437       203.3626 
 989   0.0000       7.540138       205.1776 
 990   0.0000       7.560580       205.7338 
 991   0.0000       7.683063       209.0668 
 992   0.0000       7.700315       209.5362 
 993   0.0000       7.787605       211.9115 
 994   0.0000       7.840945       213.3630 
 995   0.0000       7.886579       214.6047 
 996   0.0000       8.066775       219.5081 
 997   0.0000       8.120142       220.9603 
 998   0.0000       8.394283       228.4200 
 999   0.0000       9.442388       256.9404 
 1000   0.0000       9.458063       257.3670 
 1001   0.0000       9.483340       258.0548 
 1002   0.0000       9.490882       258.2600 
 1003   0.0000       9.499340       258.4902 
 1004   0.0000       9.540708       259.6159 
 1005   0.0000       9.787245       266.3245 
 1006   0.0000      10.109947       275.1056 
 1007   0.0000      10.136212       275.8204 
 1008   0.0000      10.154529       276.3188 
 1009   0.0000      10.222858       278.1781 
 1010   0.0000      10.236175       278.5405 
 1011   0.0000      10.254253       279.0324 
 1012   0.0000      10.416842       283.4567 
 1013   0.0000      10.450715       284.3784 
 1014   0.0000      10.585806       288.0544 
 1015   0.0000      15.530002       422.5929 
 1016   0.0000      17.733664       482.5575 
 1017   0.0000      18.202071       495.3035 
 1018   0.0000      18.486506       503.0434 
 1019   0.0000      18.684563       508.4328 
 1020   0.0000      19.001167       517.0480 
 1021   0.0000      19.145338       520.9711 
 1022   0.0000      20.074926       546.2665 
 1023   0.0000      20.277080       551.7674 
 1024   0.0000      21.912886       596.2799 

                 SPIN DOWN ORBITALS
  NO   OCC          E(Eh)            E(eV) 
   0   1.0000    -261.540933     -7116.8906 
   1   1.0000    -104.773083     -2851.0205 
   2   1.0000    -104.769155     -2850.9136 
   3   1.0000    -104.766391     -2850.8384 
   4   1.0000     -32.050311      -872.1333 
   5   1.0000     -27.528434      -749.0868 
   6   1.0000     -27.528247      -749.0817 
   7   1.0000     -27.527674      -749.0661 
   8   1.0000     -20.534692      -558.7774 
   9   1.0000     -11.393546      -310.0342 
  10   1.0000     -11.361638      -309.1659 
  11   1.0000     -11.293126      -307.3016 
  12   1.0000     -11.286347      -307.1171 
  13   1.0000     -11.275086      -306.8107 
  14   1.0000     -11.255977      -306.2907 
  15   1.0000     -11.245602      -306.0084 
  16   1.0000     -11.236603      -305.7635 
  17   1.0000     -10.499547      -285.7072 
  18   1.0000     -10.495603      -285.5999 
  19   1.0000     -10.492863      -285.5253 
  20   1.0000      -7.965373      -216.7488 
  21   1.0000      -7.964989      -216.7384 
  22   1.0000      -7.964910      -216.7362 
  23   1.0000      -7.961572      -216.6454 
  24   1.0000      -7.960942      -216.6283 
  25   1.0000      -7.960850      -216.6257 
  26   1.0000      -7.958834      -216.5709 
  27   1.0000      -7.958106      -216.5511 
  28   1.0000      -7.958031      -216.5490 
  29   1.0000      -4.125551      -112.2620 
  30   1.0000      -2.647484       -72.0417 
  31   1.0000      -2.647311       -72.0370 
  32   1.0000      -2.646451       -72.0136 
  33   1.0000      -1.358307       -36.9614 
  34   1.0000      -1.192358       -32.4457 
  35   1.0000      -1.083487       -29.4832 
  36   1.0000      -1.042720       -28.3738 
  37   1.0000      -1.030017       -28.0282 
  38   1.0000      -1.018748       -27.7215 
  39   1.0000      -1.015170       -27.6242 
  40   1.0000      -1.013410       -27.5763 
  41   1.0000      -0.970650       -26.4127 
  42   1.0000      -0.933132       -25.3918 
  43   1.0000      -0.798281       -21.7223 
  44   1.0000      -0.772175       -21.0120 
  45   1.0000      -0.709651       -19.3106 
  46   1.0000      -0.691005       -18.8032 
  47   1.0000      -0.676495       -18.4084 
  48   1.0000      -0.650112       -17.6904 
  49   1.0000      -0.641056       -17.4440 
  50   1.0000      -0.627871       -17.0852 
  51   1.0000      -0.605167       -16.4674 
  52   1.0000      -0.595831       -16.2134 
  53   1.0000      -0.593485       -16.1495 
  54   1.0000      -0.583361       -15.8740 
  55   1.0000      -0.575199       -15.6519 
  56   1.0000      -0.557883       -15.1808 
  57   1.0000      -0.556889       -15.1537 
  58   1.0000      -0.540774       -14.7152 
  59   1.0000      -0.527342       -14.3497 
  60   1.0000      -0.526312       -14.3217 
  61   1.0000      -0.499180       -13.5834 
  62   1.0000      -0.467382       -12.7181 
  63   1.0000      -0.462002       -12.5717 
  64   1.0000      -0.453300       -12.3349 
  65   1.0000      -0.434196       -11.8151 
  66   1.0000      -0.431527       -11.7424 
  67   1.0000      -0.428937       -11.6720 
  68   1.0000      -0.425076       -11.5669 
  69   1.0000      -0.408343       -11.1116 
  70   1.0000      -0.396899       -10.8002 
  71   1.0000      -0.393287       -10.7019 
  72   0.0000       0.004765         0.1297 
  73   0.0000       0.007442         0.2025 
  74   0.0000       0.018997         0.5169 
  75   0.0000       0.019612         0.5337 
  76   0.0000       0.030251         0.8232 
  77   0.0000       0.037275         1.0143 
  78   0.0000       0.038719         1.0536 
  79   0.0000       0.043935         1.1955 
  80   0.0000       0.045303         1.2328 
  81   0.0000       0.047405         1.2900 
  82   0.0000       0.056919         1.5488 
  83   0.0000       0.059109         1.6084 
  84   0.0000       0.061453         1.6722 
  85   0.0000       0.064226         1.7477 
  86   0.0000       0.065970         1.7951 
  87   0.0000       0.070311         1.9133 
  88   0.0000       0.074303         2.0219 
  89   0.0000       0.077338         2.1045 
  90   0.0000       0.087771         2.3884 
  91   0.0000       0.089116         2.4250 
  92   0.0000       0.093813         2.5528 
  93   0.0000       0.095320         2.5938 
  94   0.0000       0.098144         2.6706 
  95   0.0000       0.099650         2.7116 
  96   0.0000       0.109153         2.9702 
  97   0.0000       0.113353         3.0845 
  98   0.0000       0.120015         3.2658 
  99   0.0000       0.121563         3.3079 
 100   0.0000       0.125156         3.4057 
 101   0.0000       0.125426         3.4130 
 102   0.0000       0.127922         3.4809 
 103   0.0000       0.129387         3.5208 
 104   0.0000       0.131401         3.5756 
 105   0.0000       0.131682         3.5832 
 106   0.0000       0.132473         3.6048 
 107   0.0000       0.137165         3.7324 
 108   0.0000       0.139300         3.7906 
 109   0.0000       0.139561         3.7977 
 110   0.0000       0.141519         3.8509 
 111   0.0000       0.143626         3.9083 
 112   0.0000       0.148271         4.0347 
 113   0.0000       0.149767         4.0754 
 114   0.0000       0.152617         4.1529 
 115   0.0000       0.156464         4.2576 
 116   0.0000       0.159415         4.3379 
 117   0.0000       0.164949         4.4885 
 118   0.0000       0.165621         4.5068 
 119   0.0000       0.168574         4.5871 
 120   0.0000       0.169959         4.6248 
 121   0.0000       0.174868         4.7584 
 122   0.0000       0.175531         4.7764 
 123   0.0000       0.179428         4.8825 
 124   0.0000       0.183843         5.0026 
 125   0.0000       0.189577         5.1586 
 126   0.0000       0.190459         5.1827 
 127   0.0000       0.197111         5.3637 
 128   0.0000       0.198919         5.4129 
 129   0.0000       0.201821         5.4918 
 130   0.0000       0.207210         5.6385 
 131   0.0000       0.210021         5.7150 
 132   0.0000       0.210413         5.7256 
 133   0.0000       0.216206         5.8833 
 134   0.0000       0.221003         6.0138 
 135   0.0000       0.223681         6.0867 
 136   0.0000       0.227791         6.1985 
 137   0.0000       0.230022         6.2592 
 138   0.0000       0.231775         6.3069 
 139   0.0000       0.233498         6.3538 
 140   0.0000       0.237686         6.4678 
 141   0.0000       0.243699         6.6314 
 142   0.0000       0.245563         6.6821 
 143   0.0000       0.248052         6.7498 
 144   0.0000       0.250159         6.8072 
 145   0.0000       0.253633         6.9017 
 146   0.0000       0.256039         6.9672 
 147   0.0000       0.261896         7.1265 
 148   0.0000       0.263441         7.1686 
 149   0.0000       0.272467         7.4142 
 150   0.0000       0.277609         7.5541 
 151   0.0000       0.278572         7.5803 
 152   0.0000       0.281756         7.6670 
 153   0.0000       0.286353         7.7921 
 154   0.0000       0.289313         7.8726 
 155   0.0000       0.291699         7.9375 
 156   0.0000       0.297377         8.0920 
 157   0.0000       0.301927         8.2158 
 158   0.0000       0.303981         8.2717 
 159   0.0000       0.307702         8.3730 
 160   0.0000       0.308531         8.3956 
 161   0.0000       0.316986         8.6256 
 162   0.0000       0.323988         8.8162 
 163   0.0000       0.327023         8.8987 
 164   0.0000       0.331416         9.0183 
 165   0.0000       0.331957         9.0330 
 166   0.0000       0.336355         9.1527 
 167   0.0000       0.341790         9.3006 
 168   0.0000       0.344168         9.3653 
 169   0.0000       0.346897         9.4395 
 170   0.0000       0.351782         9.5725 
 171   0.0000       0.356152         9.6914 
 172   0.0000       0.358614         9.7584 
 173   0.0000       0.362181         9.8555 
 174   0.0000       0.363126         9.8812 
 175   0.0000       0.370371        10.0783 
 176   0.0000       0.371882        10.1194 
 177   0.0000       0.375608        10.2208 
 178   0.0000       0.379162        10.3175 
 179   0.0000       0.384915        10.4741 
 180   0.0000       0.388604        10.5744 
 181   0.0000       0.389351        10.5948 
 182   0.0000       0.392853        10.6901 
 183   0.0000       0.393725        10.7138 
 184   0.0000       0.397065        10.8047 
 185   0.0000       0.399718        10.8769 
 186   0.0000       0.402915        10.9639 
 187   0.0000       0.404036        10.9944 
 188   0.0000       0.406792        11.0694 
 189   0.0000       0.414527        11.2798 
 190   0.0000       0.418431        11.3861 
 191   0.0000       0.420578        11.4445 
 192   0.0000       0.427477        11.6322 
 193   0.0000       0.428619        11.6633 
 194   0.0000       0.431780        11.7493 
 195   0.0000       0.435423        11.8485 
 196   0.0000       0.438207        11.9242 
 197   0.0000       0.443360        12.0644 
 198   0.0000       0.446970        12.1627 
 199   0.0000       0.450978        12.2717 
 200   0.0000       0.452667        12.3177 
 201   0.0000       0.456618        12.4252 
 202   0.0000       0.462697        12.5906 
 203   0.0000       0.468729        12.7548 
 204   0.0000       0.472344        12.8531 
 205   0.0000       0.473538        12.8856 
 206   0.0000       0.477215        12.9857 
 207   0.0000       0.480707        13.0807 
 208   0.0000       0.485614        13.2142 
 209   0.0000       0.488169        13.2838 
 210   0.0000       0.489551        13.3214 
 211   0.0000       0.491683        13.3794 
 212   0.0000       0.492913        13.4128 
 213   0.0000       0.496067        13.4987 
 214   0.0000       0.498212        13.5570 
 215   0.0000       0.501054        13.6344 
 216   0.0000       0.501918        13.6579 
 217   0.0000       0.508061        13.8250 
 218   0.0000       0.512166        13.9367 
 219   0.0000       0.516840        14.0639 
 220   0.0000       0.519512        14.1366 
 221   0.0000       0.524887        14.2829 
 222   0.0000       0.527256        14.3474 
 223   0.0000       0.528522        14.3818 
 224   0.0000       0.530563        14.4374 
 225   0.0000       0.537969        14.6389 
 226   0.0000       0.540349        14.7036 
 227   0.0000       0.542988        14.7755 
 228   0.0000       0.547388        14.8952 
 229   0.0000       0.551415        15.0048 
 230   0.0000       0.554314        15.0836 
 231   0.0000       0.560405        15.2494 
 232   0.0000       0.561134        15.2692 
 233   0.0000       0.564585        15.3631 
 234   0.0000       0.568778        15.4772 
 235   0.0000       0.572547        15.5798 
 236   0.0000       0.574212        15.6251 
 237   0.0000       0.577018        15.7015 
 238   0.0000       0.579031        15.7562 
 239   0.0000       0.586250        15.9527 
 240   0.0000       0.592781        16.1304 
 241   0.0000       0.593113        16.1394 
 242   0.0000       0.595007        16.1910 
 243   0.0000       0.600946        16.3526 
 244   0.0000       0.605702        16.4820 
 245   0.0000       0.609070        16.5736 
 246   0.0000       0.611865        16.6497 
 247   0.0000       0.615919        16.7600 
 248   0.0000       0.620005        16.8712 
 249   0.0000       0.626236        17.0407 
 250   0.0000       0.627362        17.0714 
 251   0.0000       0.630752        17.1636 
 252   0.0000       0.635993        17.3063 
 253   0.0000       0.642756        17.4903 
 254   0.0000       0.643545        17.5118 
 255   0.0000       0.645951        17.5772 
 256   0.0000       0.650040        17.6885 
 257   0.0000       0.653723        17.7887 
 258   0.0000       0.659581        17.9481 
 259   0.0000       0.664947        18.0941 
 260   0.0000       0.667262        18.1571 
 261   0.0000       0.671534        18.2734 
 262   0.0000       0.677491        18.4355 
 263   0.0000       0.683155        18.5896 
 264   0.0000       0.687319        18.7029 
 265   0.0000       0.691781        18.8243 
 266   0.0000       0.695106        18.9148 
 267   0.0000       0.697711        18.9857 
 268   0.0000       0.701877        19.0991 
 269   0.0000       0.705815        19.2062 
 270   0.0000       0.710501        19.3337 
 271   0.0000       0.715491        19.4695 
 272   0.0000       0.718631        19.5550 
 273   0.0000       0.726918        19.7805 
 274   0.0000       0.730916        19.8892 
 275   0.0000       0.733434        19.9577 
 276   0.0000       0.739106        20.1121 
 277   0.0000       0.742605        20.2073 
 278   0.0000       0.746722        20.3193 
 279   0.0000       0.753056        20.4917 
 280   0.0000       0.756842        20.5947 
 281   0.0000       0.760253        20.6875 
 282   0.0000       0.767150        20.8752 
 283   0.0000       0.774097        21.0643 
 284   0.0000       0.781687        21.2708 
[...]
  | sigma^2 in % of trace(Dij) retained ...   8.93e+00
  | sigma^2 in % of trace(Dip) retained ...   1.74e+01
  | sigma^2 in % of trace(Dpq) retained ...   1.28e-01
  | Av. % of trace(Di) retained         ...  99.998505649572
  | Av. % of trace(Dp) retained         ...  99.999998573935
  | sigma^2 in % of trace(Di) retained  ...   7.69e-07
  | sigma^2 in % of trace(Dp) retained  ...   1.30e-12
 Distributions of % trace(Dij) recovered:
  |       >= 99.9  ...   105 ( 20.2 % of all IJ-pairs)
  |   [80.0, 90.0) ...    36 (  6.9 % of all IJ-pairs)
  |   [90.0, 99.0) ...   286 ( 55.1 % of all IJ-pairs)
  |   [99.0, 99.9) ...    92 ( 17.7 % of all IJ-pairs)
 Distributions of % trace(Dip) recovered:
  |   [70.0, 80.0) ...     2 (  1.7 % of all IP-pairs)
  |   [80.0, 90.0) ...     6 (  5.1 % of all IP-pairs)
  |   [90.0, 99.0) ...    68 ( 57.6 % of all IP-pairs)
  |   [99.0, 99.9) ...    42 ( 35.6 % of all IP-pairs)
 Distributions of % trace(Dpq) recovered:
  |       >= 99.9  ...     5 ( 33.3 % of all PQ-pairs)
  |   [99.0, 99.9) ...    10 ( 66.7 % of all PQ-pairs)
 Distributions of % trace(Di) recovered :
  |       >= 99.9  ...    43 (100.0 % of all I-pairs )
 Distributions of % trace(Dp) recovered :
  |       >= 99.9  ...     5 (100.0 % of all P-pairs )

                       ===========================
                       1138 OF 1706 PAIRS ARE KEPT
                       ===========================

 Initial PAO correlation energy (all pairs)    ...  -2.6922277422 Eh
 Energy constituents in PAO basis (Eh):
  | Vijab(+0) ...  -2.2624185892
  | Viab (-1) ...  -0.1755159199
  | Vab  (-2) ...  -0.0573668811
  | Va   (-1) ...  -0.0000411212
  | Vija (+1) ...  -0.0730517999
  | Vij  (+2) ...  -0.0154975275
  | Via  (+0) ...  -0.1081772575
  | Vi   (+1) ...  -0.0001586460
 Initial PNO correlation energy                ...  -2.6583651951 Eh
 Energy constituents in PNO basis (Eh):
  | Vijab(+0) ...  -2.2443235096 (err=  0.0180950796)
  | Viab (-1) ...  -0.1613988351 (err=  0.0141170849)
  | Vab  (-2) ...  -0.0569116496 (err=  0.0004552314)
  | Va   (-1) ...  -0.0000235301 (err=  0.0000175911)
  | Vija (+1) ...  -0.0720286708 (err=  0.0010231290)
  | Vij  (+2) ...  -0.0154428200 (err=  0.0000547075)
  | Via  (+0) ...  -0.1080778182 (err=  0.0000994393)
  | Vi   (+1) ...  -0.0001583616 (err=  0.0000002844)
 Sum of total truncation errors ...   0.0338625472 Eh
  | Pair screening ...   0.0108923027 Eh
  | PNO truncation ...   0.0229702445 Eh

 UMP2 correlation energy (PAO) ...  -2.6873925542
  | alpha-alpha ...  -0.3864469407 (NP_aa=  923)
  | alpha-beta  ...  -1.9940200475 (NP_ab= 1681)
  | beta -beta  ...  -0.3069255659 (NP_bb=  725)
 UMP2 correlation energy (PNO) ...  -2.6531634914
  | alpha-alpha ...  -0.3746015868 (err=  0.0118453539, NP_aa=  604)
  | alpha-beta  ...  -1.9755693686 (err=  0.0184506788, NP_ab= 1113)
  | beta -beta  ...  -0.3029925359 (err=  0.0039330300, NP_bb=  476)
 Sum of total UMP2 truncation errors ...   0.0342290627 Eh
  | Pair screening ...   0.0109096310 Eh
  | PNO truncation ...   0.0233194318 Eh
 Timing for NEV-PNO construction (sec.)
  | Intermediate construction  ..           47.812
  | Amplitude construction     ..           66.425
  | Total time                 ..          114.236
 Making pair pair interaction lists ...      ok
 Total size for 2-ext PNO integrals ...     11.0 MB
Checking the number of SOMO/SOMO doubles PNOs ... 
 #Truncate: (72, 72)[169] -> [84] .. 
 #Truncate: (73, 73)[170] -> [84] .. 
 #Truncate: (74, 74)[170] -> [84] .. 
 #Truncate: (75, 75)[169] -> [84] .. 
 #Truncate: (76, 76)[169] -> [84] .. 

--------------------------------
LOCAL RI TRANSFORMATION (VABPAO)
--------------------------------

Number of PAOs:    1030
Basis functions:   1025 (343 shells)
Aux. functions:    2424 (644 shells)

Processing maps (0.0 sec)
Average map sizes:
   Aux shells -> PAOs           1030.0
   PAOs       -> AO shells       343.0

Calculating integrals (218.4 sec, 37370.165 MB)
Finished
-----------------------------
LOCAL RI TRANSFORMATION (IJV)
-----------------------------

Orbital window:      29 to 76
Basis functions:   1025 (343 shells)
Aux. functions:    2424 (644 shells)

Processing maps (0.0 sec)
Average map sizes:
   Aux shells -> MOs(i)           46.9
   Aux shells -> MOs(j)           48.0
   MOs        -> AO shells       338.1

Calculating integrals (24.8 sec, 41.741 MB)
Sorting integrals (0.3 sec, 41.714 MB)
Total time for the integral transformation: 25.2 sec


-------------------------------------
Pair Pair Term precalculation with     
RI-(ij|mn) and (im|jn) transformation  
ON THE FLY                             
-------------------------------------

   IBatch   1 (of   2)              ... done ( 1546.852 sec)
   IBatch   2 (of   2)              ... done ( 1230.420 sec)
Total EXT                           ...        2777.272 sec

---------------------
RI-PNO TRANSFORMATION
---------------------

Total Number of PNOs                   ... 35153
Total Number of IJ-PNOs                ... 30959
Total Number of IP-PNOs                ...  3246
Total Number of PQ-PNOs                ...   948
Total Number of IJ-pairs               ...   995
Total Number of PI-pairs               ...   118
Total Number of PQ-pairs               ...    25
Average number of PNOs per pair        ...    30
Maximal number of PNOs per pair        ...    84
>> Statistics for ij-pairs..
   #pairs with  1 -  5 PNOs   :    0
   #pairs with  6 - 10 PNOs   :    0
   #pairs with 11 - 15 PNOs   :   62
   #pairs with 16 - 20 PNOs   :  250
   #pairs with 21 - 25 PNOs   :  172
   #pairs with 26 - 30 PNOs   :  150
   #pairs with 31 - 35 PNOs   :   68
   #pairs with 36 - 40 PNOs   :   54
   #pairs with 41 - 45 PNOs   :   50
   #pairs with 46 - 50 PNOs   :   17
   #pairs with 51 - 55 PNOs   :   37
   #pairs with 56 - 60 PNOs   :   55
   #pairs with 61 - 65 PNOs   :   71
   #pairs with 66 - 70 PNOs   :    6
   #pairs with 71 - 75 PNOs   :    3
>> Statistics for ip-pairs..
   #pairs with  1 -  5 PNOs   :    0
   #pairs with  6 - 10 PNOs   :    3
   #pairs with 11 - 15 PNOs   :   14
   #pairs with 16 - 20 PNOs   :    4
   #pairs with 21 - 25 PNOs   :   24
   #pairs with 26 - 30 PNOs   :   14
   #pairs with 31 - 35 PNOs   :   45
   #pairs with 36 - 40 PNOs   :   14
   #pairs with 41 - 45 PNOs   :    0
   #pairs with 46 - 50 PNOs   :    0
>> Statistics for pq-pairs..
   #pairs with  1 -  5 PNOs   :    0
   #pairs with  6 - 10 PNOs   :    0
   #pairs with 11 - 15 PNOs   :    0
   #pairs with 16 - 20 PNOs   :    0
   #pairs with 21 - 25 PNOs   :    8
   #pairs with 26 - 30 PNOs   :   12
   #pairs with 31 - 35 PNOs   :    0
   #pairs with 36 - 40 PNOs   :    0
   #pairs with 41 - 45 PNOs   :    0
   #pairs with 46 - 50 PNOs   :    0
   #pairs with 81 - 85 PNOs   :    5

Generation of (ij|ab)[P] integrals            ... on
Generation of (ia|bc)[P],(ja|bc)[P] integrals ... on
Storage of 3 and 4 external integrals         ... on
Generation of ALL (ka|bc)[P] integrals        ... on
Keep RI integrals in memory                   ... off

Ibatch:  1 (of  1)
Starting 2-4 index PNO integral generation ... done

Timings:
Total PNO integral transformation time     ...       2198.391 sec
Size of the 3-external file                ...       286 MB
Size of the 4-external file                ...      1928 MB
Size of the IKJL file                      ...        19 MB
Size of the all 3-external file            ...      6886 MB
Size of the 1-external file                ...        22 MB

Size of the PAO/PNO coefficient matrices   ...     228.5 MB

Making pair/pair overlap matrices          ... done (  398.204 sec)
Size of the pair overlap file              ...    2508.0 MB
Total # unrestricted pairs ...       2193
  # of alpha-alpha pairs   ...        604
  # of alpha-beta pairs    ...       1113
  # of beta-beta pairs     ...        476
Constructing the guess amplitudes          ... done (    0.603 sec)

-------------------------
FINAL STARTUP INFORMATION
-------------------------

E(0)                                       ...  -3028.426945532
E(SL-UMP2 in NEV-PNO space)                ...     -2.688385456
Initial E(tot)                             ...  -3031.115330989
<T|T>                                      ...      0.533601318
Number of unrestricted pairs included      ... 2193
Total number of pairs                      ... 4095
----------------------------------------------------------
                     OPEN-SHELL COUPLED CLUSTER ITERATIONS
----------------------------------------------------------

Number of PNO amplitudes to be optimized        ...          2138697
Number of canonical amplitudes for strong pairs ...       1980744355
Untruncated number of canonical amplitudes      ...       3698645738

Iter       E(tot)           E(Corr)          Delta-E          Residual     Time
  0  -3031.122454614     -2.660287117      0.028098339      0.021755372 2161.63
                           *** Turning on DIIS ***
  1  -3031.236132823     -2.773965326     -0.113678209      0.009085071 2217.38
  2  -3031.300057846     -2.837890349     -0.063925023      0.009307487 2190.93
  3  -3031.320821396     -2.858653898     -0.020763549      0.003537595 2193.41
  4  -3031.327780944     -2.865613447     -0.006959549      0.002994189 2210.41
  5  -3031.331346965     -2.869179468     -0.003566021      0.002136879 2222.91
  6  -3031.332676456     -2.870508959     -0.001329491      0.000918697 2231.00
  7  -3031.333474848     -2.871307351     -0.000798392      0.000525051 2217.25
  8  -3031.333622815     -2.871455318     -0.000147967      0.000179463 2208.43
  9  -3031.333667770     -2.871500273     -0.000044955      0.000103985 2212.71
 10  -3031.333663523     -2.871496026      0.000004247      0.000057383 2197.18
 11  -3031.333672640     -2.871505142     -0.000009116      0.000036746 2204.46
 12  -3031.333678072     -2.871510574     -0.000005432      0.000017211 2188.06
 13  -3031.333680265     -2.871512768     -0.000002193      0.000010414 2171.59
 14  -3031.333680752     -2.871513255     -0.000000488      0.000006267 2167.53
               --- The CCSD iterations have converged ---

E(0)                                       ...  -3028.426945532
E(CORR)(strong-pairs)                      ...     -2.871513255
E(CORR)(weak-pairs)                        ...     -0.035221965
E(CORR)(corrected)                         ...     -2.906735220
E(TOT)                                     ...  -3031.333680752
Singles norm <S|S>**1/2                    ...      0.188130995 ( 0.063525650, 0.124605345)  
T1 diagnostic                              ...      0.019721487                              
<S**2>(linearized)                         ...      8.7507147 (ideal value:      8.7500000)

----------------------
LARGEST PNO AMPLITUDES
----------------------
  51b-> 76b  -1b-> -1b       0.056296
  45a-> 78a  45b-> 78b       0.051983
  30b-> 76b  -1b-> -1b       0.051871
  45a-> 77a  45b-> 77b       0.051125
  49b-> 74b  -1b-> -1b       0.048116
  52b-> 76b  -1b-> -1b       0.045214
  49b-> 72b  -1b-> -1b       0.044635
  63a-> 77a  63b-> 77b       0.044530
  67a-> 77a  67b-> 77b       0.043851
  49b-> 75b  -1b-> -1b       0.043110
  69a-> 77a  69b-> 77b       0.042857
  71a-> 77a  71b-> 77b       0.042841
  59a-> 77a  59b-> 77b       0.042809
  62a-> 77a  62b-> 77b       0.042378
  56a-> 78a  56b-> 78b       0.042056
  44a-> 78a  44b-> 78b       0.042014

Total # unrestricted pairs ...       1136
  # of alpha-alpha pairs   ...        319
  # of alpha-beta pairs    ...        568
  # of beta-beta pairs     ...        249

-------------------------------------------
DLPNO BASED TRIPLES CORRECTION
-------------------------------------------

Singles multiplier          ...  1.000000
Fragment selection                          .... not used
TCutTNO                     ... 1.000e-09
TCutMP2Pairs                ... 1.000e-05
TCutDOStrong                ... 2.000e-02
TCutMKNStrong               ... 1.000e-02
TCutDOWeak                  ... 4.000e-02
TCutMKNWeak                 ... 1.000e-01
NTCutTNO                    ... 1

Number of Triples that are to be computed         ...     35710

 . . . . . . . . .
10% done  
20% done  
30% done  
40% done  
50% done  
60% done  
70% done  
80% done  
90% done  
          Batch   1   done (  18084.383 sec)

Triples-Correction TCutTNO=   1.000e-09 (NWeakPairs = 0  1  2  3)  -0.116760184345   -0.001797704716    0.000000000000    0.000000000000
Triples-Correction  -0.118557889061

Triples timings:
Total time                      ... 18849.576 sec

Triples List generation         ...     0.000 sec
TNO generation                  ...   746.541 sec
Pair density generation         ...     0.104 sec
Look up tables                  ...     0.129 sec
Generating 3-index integrals    ... 11776.304 sec
Make 4-ind.int. from 3-ind.int  ...     3.966 sec
Projecting amplitudes (D + S)   ...  6040.242 sec
Sorting integrals for spin cases...    57.995 sec
Calculate W0/W1                 ...   181.193 sec
Energy contr. (sum over a,b,c)  ...    42.802 sec

Everything after 3-index        ...  6473.499 sec

Energy contribution AAA         ...    28.103 sec
Energy contribution AAB         ...   125.089 sec
Energy contribution ABB         ...   113.550 sec
Energy contribution BBB         ...    15.301 sec
prep                ...     3.430 sec
makeTTNO            ...  5979.287 sec
copyij              ...     0.136 sec
copyil              ...     4.372 sec
transposeij         ...     0.082 sec
newMatInDoubleProj  ...    56.369 sec
BlasInDoubleProj    ...  3261.218 sec
ProjSingles         ...    50.162 sec
ProjDoubles         ...  5990.079 sec
overall Doubles for projection      ... 3227307
used Doubles for projection         ... 3227307


Number of Triples   (0, 1, 2, 3 weak pairs; overall):  17477   12114       0       0  ( 29591)
Number of Atoms     (0, 1, 2, 3 weak pairs; overall):   20.3    14.9     0.0     0.0  (    29)
Number of PAOs      (0, 1, 2, 3 weak pairs; overall):  784.5   603.8     0.0     0.0  (  1025)
Number of AuxFcns   (0, 1, 2, 3 weak pairs; overall):  961.4   591.5     0.0     0.0  (  2424)
Number of TNOs (0, 1, 2, 3 weak pairs         ):   78.7    55.7     0.0     0.0
Aver. Number of NTNO, Atoms, PAOs, AuxFcns / Triples:  29591    69.3    18.1   710.5   810.0

Triples Correction (T)                     ...     -0.118557889
    alpha-alpha-alpha ... -0.003913366 (  3.3%)
    alpha-alpha-beta  ... -0.055670011 ( 47.0%)
    alpha-beta -beta  ... -0.054865539 ( 46.3%)
    beta -beta -beta  ... -0.004108973 (  3.5%)
Final correlation energy                   ...     -3.025293109
E(CCSD)                                    ...  -3031.333680752
E(CCSD(T))                                 ...  -3031.452238641

----------------------------
STATISTICS FOR PAIR-ENERGIES
----------------------------
Minimum, maximum and average ratios of UMP and CCSD pair-energies ... 0.55, 1.42, 1.02


------------------------------------------------------------------------------- 
                                     TIMINGS                                   
------------------------------------------------------------------------------- 


Total execution time                   ...    65291.726 sec

Localization of occupied MO's          ...       19.133 sec (  0.0%)
Fock Matrix Formation                  ...     1394.528 sec (  2.1%)
Differential overlap integrals         ...        1.355 sec (  0.0%)
Organizing maps                        ...        1.686 sec (  0.0%)
RI 3-index integral generations        ...      332.310 sec (  0.5%)
RI-PNO integral transformation         ...     6302.991 sec (  9.7%)
Initial Guess                          ...     4295.214 sec (  6.6%)
DIIS Solver                            ...       19.613 sec (  0.0%)
State Vector Update                    ...        0.801 sec (  0.0%)
Sigma-vector construction              ...    32994.880 sec ( 50.5%)
  <0|H|D>                              ...        0.034 sec (  0.0% of sigma)
  <D|H|D>(0-ext)                       ...     6028.665 sec ( 18.3% of sigma)
  <D|H|D>(2-ext Fock)                  ...        1.682 sec (  0.0% of sigma)
  <D|H|D>(2-ext)                       ...     4256.697 sec ( 12.9% of sigma)
  <D|H|D>(4-ext)                       ...      177.184 sec (  0.5% of sigma)
  <D|H|D>(4-ext-corr)                  ...     1100.558 sec (  3.3% of sigma)
  CCSD doubles correction              ...      578.637 sec (  1.8% of sigma)
  <S|H|S>                              ...      871.435 sec (  2.6% of sigma)
  <S|H|D>(1-ext)                       ...      295.137 sec (  0.9% of sigma)
  <D|H|S>(1-ext)                       ...        1.119 sec (  0.0% of sigma)
  <S|H|D>(3-ext)                       ...       24.604 sec (  0.1% of sigma)
  CCSD singles correction              ...        0.004 sec (  0.0% of sigma)
  Fock-dressing                        ...    10447.977 sec ( 31.7% of sigma)
  Singles amplitudes                   ...      122.007 sec (  0.4% of sigma)
  (ik|jl)-dressing                     ...     7172.348 sec ( 21.7% of sigma)
  (ij|ab),(ia|jb)-dressing             ...     1808.614 sec (  5.5% of sigma)
  Pair energies                        ...        0.145 sec (  0.0% of sigma)
Total Time for computing (T)           ...    20329.919 sec ( 31.1% of ALL)


-------------------------   --------------------
FINAL SINGLE POINT ENERGY     -3031.452238641464
-------------------------   --------------------


                            ***************************************
                            *     ORCA property calculations      *
                            ***************************************

                                    ---------------------
                                    Active property flags
                                    ---------------------
   (+) Dipole Moment


------------------------------------------------------------------------------
                       ORCA ELECTRIC PROPERTIES CALCULATION
------------------------------------------------------------------------------

Dipole Moment Calculation                       ... on
Quadrupole Moment Calculation                   ... off
Polarizability Calculation                      ... off
GBWName                                         ... simple-grid-180-250-b3lyp_d3bj-631gd-gas-singlepoint-DLPNO_CCSD_T1-NormalPNO-augtz-gas.gbw
Electron density file                           ... simple-grid-180-250-b3lyp_d3bj-631gd-gas-singlepoint-DLPNO_CCSD_T1-NormalPNO-augtz-gas.scfp.tmp
The origin for moment calculation is the CENTER OF MASS  = ( 0.299764,  0.038410  0.012893)

-------------
DIPOLE MOMENT
-------------
                                X             Y             Z
Electronic contribution:     39.53147       5.92942       1.53487
Nuclear contribution   :    -44.66483      -5.72313      -1.92107
                        -----------------------------------------
Total Dipole Moment    :     -5.13336       0.20629      -0.38620
                        -----------------------------------------
Magnitude (a.u.)       :      5.15200
Magnitude (Debye)      :     13.09534



--------------------
Rotational spectrum 
--------------------
 
Rotational constants in cm-1:     0.019028     0.011686     0.010794 
Rotational constants in MHz :   570.441575   350.329850   323.587621 

 Dipole components along the rotational axes: 
x,y,z [a.u.] :    -5.129500    -0.204799    -0.435200 
x,y,z [Debye]:   -13.038152    -0.520558    -1.106191 

 

Timings for individual modules:

Sum of individual times         ...    81641.979 sec (=1360.700 min)
GTO integral calculation        ...       12.597 sec (=   0.210 min)   0.0 %
SCF iterations                  ...    16318.142 sec (= 271.969 min)  20.0 %
MDCI module                     ...    65311.241 sec (=1088.521 min)  80.0 %
                             ****ORCA TERMINATED NORMALLY****
TOTAL RUN TIME: 0 days 22 hours 40 minutes 47 seconds 496 msec
