
                                 *****************
                                 * O   R   C   A *
                                 *****************

           --- An Ab Initio, DFT and Semiempirical electronic structure package ---

                  #######################################################
                  #                        -***-                        #
                  #          Department of theory and spectroscopy      #
                  #               Directorship: Frank Neese             #
                  #        Max Planck Institute fuer Kohlenforschung    #
                  #                Kaiser Wilhelm Platz 1               #
                  #                 D-45470 Muelheim/Ruhr               #
                  #                      Germany                        #
                  #                                                     #
                  #                  All rights reserved                #
                  #                        -***-                        #
                  #######################################################


                         Program Version 4.1.2  - RELEASE  -


 With contributions from (in alphabetic order):
   Daniel Aravena         : Magnetic Properties
   Michael Atanasov       : Ab Initio Ligand Field Theory
   Alexander A. Auer      : GIAO ZORA
   Ute Becker             : Parallelization
   Giovanni Bistoni       : ED, Open-shell LED
   Martin Brehm           : Molecular dynamics
   Dmytro Bykov           : SCF Hessian
   Vijay G. Chilkuri      : MRCI spin determinant printing
   Dipayan Datta          : RHF DLPNO-CCSD density
   Achintya Kumar Dutta   : EOM-CC, STEOM-CC
   Dmitry Ganyushin       : Spin-Orbit,Spin-Spin,Magnetic field MRCI
   Miquel Garcia          : C-PCM Hessian
   Yang Guo               : DLPNO-NEVPT2, CIM, IAO-localization
   Andreas Hansen         : Spin unrestricted coupled pair/coupled cluster methods
   Benjamin Helmich-Paris : CASSCF linear response (MC-RPA)
   Lee Huntington         : MR-EOM, pCC
   Robert Izsak           : Overlap fitted RIJCOSX, COSX-SCS-MP3, EOM
   Christian Kollmar      : KDIIS, OOCD, Brueckner-CCSD(T), CCSD density
   Simone Kossmann        : Meta GGA functionals, TD-DFT gradient, OOMP2, MP2 Hessian
   Martin Krupicka        : AUTO-CI
   Lucas Lang             : DCDCAS
   Dagmar Lenk            : GEPOL surface, SMD
   Dimitrios Liakos       : Extrapolation schemes; parallel MDCI
   Dimitrios Manganas     : ROCIS; embedding schemes
   Dimitrios Pantazis     : SARC Basis sets
   Taras Petrenko         : DFT Hessian,TD-DFT gradient, ASA, ECA, R-Raman, ABS, FL, XAS/XES, NRVS
   Peter Pinski           : DLPNO-MP2, DLPNO-MP2 Gradient
   Christoph Reimann      : Effective Core Potentials
   Marius Retegan         : Local ZFS, SOC
   Christoph Riplinger    : Optimizer, TS searches, QM/MM, DLPNO-CCSD(T), (RO)-DLPNO pert. Triples
   Tobias Risthaus        : Range-separated hybrids, TD-DFT gradient, RPA, STAB
   Michael Roemelt        : Restricted open shell CIS
   Masaaki Saitow         : Open-shell DLPNO
   Barbara Sandhoefer     : DKH picture change effects
   Avijit Sen             : IP-ROCIS
   Kantharuban Sivalingam : CASSCF convergence, NEVPT2, FIC-MRCI
   Bernardo de Souza      : ESD, SOC TD-DFT
   Georgi Stoychev        : AutoAux, RI-MP2 NMR
   Willem Van den Heuvel  : Paramagnetic NMR
   Boris Wezisla          : Elementary symmetry handling
   Frank Wennmohs         : Technical directorship


 We gratefully acknowledge several colleagues who have allowed us to
 interface, adapt or use parts of their codes:
   Stefan Grimme, W. Hujo, H. Kruse,             : VdW corrections, initial TS optimization,
                  C. Bannwarth                     DFT functionals, gCP, sTDA/sTD-DF
   Ed Valeev                                     : LibInt (2-el integral package), F12 methods
   Garnet Chan, S. Sharma, J. Yang, R. Olivares  : DMRG
   Ulf Ekstrom                                   : XCFun DFT Library
   Mihaly Kallay                                 : mrcc  (arbitrary order and MRCC methods)
   Andreas Klamt, Michael Diedenhofen            : otool_cosmo (COSMO solvation model)
   Jiri Pittner, Ondrej Demel                    : Mk-CCSD
   Frank Weinhold                                : gennbo (NPA and NBO analysis)
   Christopher J. Cramer and Donald G. Truhlar   : smd solvation model
   Lars Goerigk                                  : TD-DFT with DH, B97 family of functionals
   V. Asgeirsson, H. Jonsson                     : NEB implementation
   FAccTs GmbH                                   : IRC, NEB, NEB-TS, Multilevel


 Your calculation uses the libint2 library for the computation of 2-el integrals
 For citations please refer to: http://libint.valeyev.net

 This ORCA versions uses:
   CBLAS   interface :  Fast vector & matrix operations
   LAPACKE interface :  Fast linear algebra routines
   SCALAPACK package :  Parallel linear algebra routines


----- Orbital basis set information -----
Your calculation utilizes the basis: aug-cc-pVTZ 
    H, B-Ne : Obtained from the ccRepo (grant-hill.group.shef.ac.uk/ccrepo) Feb. 2017
              R. A. Kendall, T. H. Dunning, Jr., R. J. Harrison, J. Chem. Phys. 96, 6796 (1992)
         He : Obtained from the ccRepo (grant-hill.group.shef.ac.uk/ccrepo) Feb. 2017
              D. E. Woon, T. H. Dunning, Jr., J. Chem. Phys. 100, 2975 (1994)
  Li-Be, Na : Obtained from the ccRepo (grant-hill.group.shef.ac.uk/ccrepo) Feb. 2017
              B. P. Prascher, D. E. Woon, K. A. Peterson, T. H. Dunning, Jr., A. K. Wilson, Theor. Chem. Acc. 128, 69 (2011)
         Mg : Obtained from the Peterson Research Group Website (tyr0.chem.wsu.edu/~kipeters) Feb. 2017
              B. P. Prascher, D. E. Woon, K. A. Peterson, T. H. Dunning, Jr., A. K. Wilson, Theor. Chem. Acc. 128, 69 (2011)
      Al-Ar : Obtained from the ccRepo (grant-hill.group.shef.ac.uk/ccrepo) Feb. 2017
              D. E. Woon, T. H. Dunning, Jr., J. Chem. Phys. 98, 1358 (1993)
      Sc-Zn : Obtained from the ccRepo (grant-hill.group.shef.ac.uk/ccrepo) Feb. 2017
              N. B. Balabanov, K. A. Peterson, J. Chem. Phys. 123, 064107 (2005)
              N. B. Balabanov, K. A. Peterson, J. Chem. Phys. 125, 074110 (2006)
      Ga-Kr : Obtained from the ccRepo (grant-hill.group.shef.ac.uk/ccrepo) Feb. 2017
              A. K. Wilson, D. E. Woon, K. A. Peterson, T. H. Dunning, Jr., J. Chem. Phys. 110, 7667 (1999)
     Ag, Au : Obtained from the Peterson Research Group Website (tyr0.chem.wsu.edu/~kipeters) Feb. 2017
              K. A. Peterson, C. Puzzarini, Theor. Chem. Acc. 114, 283 (2005)

----- AuxJ basis set information -----
Your calculation utilizes the AutoAux generation procedure.
  G. L. Stoychev, A. A. Auer, F. Neese, J. Chem. Theory Comput. 13, 554 (2017)

----- AuxC basis set information -----
Your calculation utilizes the auxiliary basis: aug-cc-pVTZ/C 
  H-He, B-F, Al-Ar, Ga-Kr : Obtained from the EMSL Basis Set Exchange (bse.pnl.gov) Feb. 2017
                            F. Weigend, A. Kohn, C. Hattig, J. Chem. Phys. 116, 3175 (2002)
                   Be, Mg : Obtained from the TURBOMOLE 7.0 basis set library
                            C. Haettig, Phys. Chem. Chem. Phys. 7, 59 (2005)
                       Ne : Obtained from the EMSL Basis Set Exchange (bse.pnl.gov) Feb. 2017
                            C. Haettig, Phys. Chem. Chem. Phys. 7, 59 (2005)
                            F. Weigend, A. Kohn, C. Hattig, J. Chem. Phys. 116, 3175 (2002)
                    Sc-Zn : Obtained from the EMSL Basis Set Exchange (bse.pnl.gov) Feb. 2017
                            J. G. Hill, J. A. Platts, J. Chem. Phys. 128, 044104 (2008)

----- AuxJK basis set information -----
Your calculation utilizes the AutoAux generation procedure.
  G. L. Stoychev, A. A. Auer, F. Neese, J. Chem. Theory Comput. 13, 554 (2017)

================================================================================
                                        WARNINGS
                       Please study these warnings very carefully!
================================================================================


WARNING: your system is open-shell and RHF/RKS was chosen
  ===> : WILL SWITCH to UHF/UKS


WARNING: MDCI localization with Augmented Hessian Foster-Boys
  ===> : Switching off randomization!

WARNING: Post HF methods need fully converged wavefunctions
  ===> : Setting SCFConvForced true
         You can overwrite this default with %scf ConvForced false 


INFO   : the flag for use of LIBINT has been found!

================================================================================
                                       INPUT FILE
================================================================================
NAME = simple-grid-180-280-b3lyp_d3bj-631gd-gas-singlepoint-DLPNO_CCSD_T1-NormalPNO-augtz-gas.inp
|  1> ! aug-cc-pVTZ aug-cc-pVTZ/C DLPNO-CCSD(T1) TightSCF NormalPNO UNO MiniPrint AutoAux
|  2> %pal nproc 10 end
|  3> %maxcore 20000
|  4> %mdci
|  5>      density none
|  6> end
|  7> 
|  8> * xyz 0 6
|  9>  O     -0.32568800     -0.10699400     -0.41967900
| 10>  C     -1.22767200     -1.06973200     -0.24049600
| 11>  C     -2.55490600     -0.37527500      0.75759500
| 12>  C     -2.98030700      0.70369600     -0.05120000
| 13>  C     -4.08635300      0.55119700     -1.03272300
| 14> Fe      1.50185000      0.17357100     -0.08905500
| 15> Cl      1.80283600      2.20494600     -0.88320800
| 16>  C     -2.23336500      1.96301600     -0.03948400
| 17> Cl      2.53406700     -1.45513900     -1.14944300
| 18> Cl      1.81181200      0.08397200      2.10070000
| 19>  H     -3.26907800     -1.20081700      0.76840200
| 20>  H     -2.66626800      2.74386800     -0.66635800
| 21>  H     -2.02707800      2.33425000      0.96862500
| 22>  H     -1.23108700      1.67083600     -0.43596400
| 23>  H     -4.91813900      1.18798400     -0.69412900
| 24>  H     -3.79743700      0.93419200     -2.01921100
| 25>  H     -4.45021100     -0.47361700     -1.11838600
| 26>  C     -1.97161600     -0.04391900      2.13156700
| 27>  H     -2.63251100      0.64614700      2.66658300
| 28>  H     -1.88186200     -0.94855000      2.73442600
| 29>  H     -0.98069400      0.40840500      2.05651000
| 30>  C     -0.74146200     -2.23591800      0.62961700
| 31>  H     -1.55000500     -2.92957200      0.87687100
| 32>  H      0.01005800     -2.76875400      0.03602000
| 33>  H     -0.25429100     -1.88820800      1.54018000
| 34>  C     -1.80105400     -1.56758300     -1.56744100
| 35>  H     -1.00865300     -2.13368100     -2.06761700
| 36>  H     -2.66285900     -2.22830500     -1.43023600
| 37>  H     -2.07021600     -0.73821400     -2.22429500
| 38> *
| 39> 
| 40> 
| 41>                          ****END OF INPUT****
================================================================================

                       ****************************
                       * Single Point Calculation *
                       ****************************

---------------------------------
CARTESIAN COORDINATES (ANGSTROEM)
---------------------------------
  O     -0.325688   -0.106994   -0.419679
  C     -1.227672   -1.069732   -0.240496
  C     -2.554906   -0.375275    0.757595
  C     -2.980307    0.703696   -0.051200
  C     -4.086353    0.551197   -1.032723
  Fe     1.501850    0.173571   -0.089055
  Cl     1.802836    2.204946   -0.883208
  C     -2.233365    1.963016   -0.039484
  Cl     2.534067   -1.455139   -1.149443
  Cl     1.811812    0.083972    2.100700
  H     -3.269078   -1.200817    0.768402
  H     -2.666268    2.743868   -0.666358
  H     -2.027078    2.334250    0.968625
  H     -1.231087    1.670836   -0.435964
  H     -4.918139    1.187984   -0.694129
  H     -3.797437    0.934192   -2.019211
  H     -4.450211   -0.473617   -1.118386
  C     -1.971616   -0.043919    2.131567
  H     -2.632511    0.646147    2.666583
  H     -1.881862   -0.948550    2.734426
  H     -0.980694    0.408405    2.056510
  C     -0.741462   -2.235918    0.629617
  H     -1.550005   -2.929572    0.876871
  H      0.010058   -2.768754    0.036020
  H     -0.254291   -1.888208    1.540180
  C     -1.801054   -1.567583   -1.567441
  H     -1.008653   -2.133681   -2.067617
  H     -2.662859   -2.228305   -1.430236
  H     -2.070216   -0.738214   -2.224295

----------------------------
CARTESIAN COORDINATES (A.U.)
----------------------------
  NO LB      ZA    FRAG     MASS         X           Y           Z
   0 O     8.0000    0    15.999   -0.615461   -0.202189   -0.793078
   1 C     6.0000    0    12.011   -2.319964   -2.021501   -0.454472
   2 C     6.0000    0    12.011   -4.828073   -0.709167    1.431647
   3 C     6.0000    0    12.011   -5.631964    1.329793   -0.096754
   4 C     6.0000    0    12.011   -7.722088    1.041611   -1.951564
   5 Fe   26.0000    0    55.850    2.838085    0.328002   -0.168290
   6 Cl   17.0000    0    35.453    3.406866    4.166744   -1.669021
   7 C     6.0000    0    12.011   -4.220448    3.709563   -0.074614
   8 Cl   17.0000    0    35.453    4.788693   -2.749814   -2.172132
   9 Cl   17.0000    0    35.453    3.423828    0.158684    3.969748
  10 H     1.0000    0     1.008   -6.177662   -2.269215    1.452069
  11 H     1.0000    0     1.008   -5.038516    5.185159   -1.259234
  12 H     1.0000    0     1.008   -3.830622    4.411093    1.830436
  13 H     1.0000    0     1.008   -2.326417    3.157422   -0.823853
  14 H     1.0000    0     1.008   -9.293936    2.244964   -1.311714
  15 H     1.0000    0     1.008   -7.176116    1.765367   -3.815756
  16 H     1.0000    0     1.008   -8.409680   -0.895006   -2.113443
  17 C     6.0000    0    12.011   -3.725814   -0.082995    4.028078
  18 H     1.0000    0     1.008   -4.974725    1.221041    5.039112
  19 H     1.0000    0     1.008   -3.556204   -1.792500    5.167316
  20 H     1.0000    0     1.008   -1.853243    0.771774    3.886241
  21 C     6.0000    0    12.011   -1.401160   -4.225273    1.189804
  22 H     1.0000    0     1.008   -2.929085   -5.536089    1.657046
  23 H     1.0000    0     1.008    0.019007   -5.232187    0.068068
  24 H     1.0000    0     1.008   -0.480540   -3.568196    2.910518
  25 C     6.0000    0    12.011   -3.403499   -2.962303   -2.962034
  26 H     1.0000    0     1.008   -1.906078   -4.032073   -3.907230
  27 H     1.0000    0     1.008   -5.032074   -4.210886   -2.702754
  28 H     1.0000    0     1.008   -3.912141   -1.395022   -4.203308



           ************************************************************
           *        Program running with 10 parallel MPI-processes    *
           *              working on a common directory               *
           ************************************************************


           ************************************************************
           *        Program running with 10 parallel MPI-processes    *
           *              working on a common directory               *
           ************************************************************

Diagonalization of the overlap matrix:
Smallest eigenvalue                        ... 6.140e-07
Time for diagonalization                   ...    0.389 sec
Threshold for overlap eigenvalues          ... 1.000e-08
Number of eigenvalues below threshold      ... 0
Time for construction of square roots      ...    0.322 sec
Total time needed                          ...    0.718 sec

-------------------
DFT GRID GENERATION
-------------------

General Integration Accuracy     IntAcc      ...  4.340
Radial Grid Type                 RadialGrid  ... Gauss-Chebyshev
Angular Grid (max. acc.)         AngularGrid ... Lebedev-110
Angular grid pruning method      GridPruning ... 3 (G Style)
Weight generation scheme         WeightScheme... Becke
Basis function cutoff            BFCut       ...    1.0000e-11
Integration weight cutoff        WCut        ...    1.0000e-14
Grids for H and He will be reduced by one unit

# of grid points (after initial pruning)     ...  36112 (   0.0 sec)
# of grid points (after weights+screening)   ...  32309 (   0.1 sec)
nearest neighbour list constructed           ...    0.0 sec
Grid point re-assignment to atoms done       ...    0.0 sec
Grid point division into batches done        ...    0.0 sec
Reduced shell lists constructed in    0.3 sec

Total number of grid points                  ...    32309
Total number of batches                      ...      523
Average number of points per batch           ...       61
Average number of grid points per atom       ...     1114
Average number of shells per batch           ...   293.83 (85.67%)
Average number of basis functions per batch  ...   873.06 (85.18%)
Average number of large shells per batch     ...   241.22 (82.09%)
Average number of large basis fcns per batch ...   716.33 (82.05%)
Maximum spatial batch extension              ...   2.91,  3.36,  3.49 au
Average spatial batch extension              ...   0.17,  0.17,  0.18 au

Time for grid setup =    0.401 sec

Loading Hartree-Fock densities                     ... done
Calculating cut-offs                               ... done
Setting up the integral package                    ... done
Initializing the effective Hamiltonian             ... done
Starting the Coulomb interaction                   ... done (   1.1 sec)
Reading the grid                                   ... done
Mapping shells                                     ... done
Starting the XC term evaluation                    ... done (   0.8 sec)
Transforming the Hamiltonian                       ... done (   0.2 sec)
Diagonalizing the Hamiltonian                      ... done (   0.4 sec)
Back transforming the eigenvectors                 ... done (   0.1 sec)
Now organizing SCF variables                       ... done
--------------
SCF ITERATIONS
--------------
ITER       Energy         Delta-E        Max-DP      RMS-DP      [F,P]     Damp
               ***  Starting incremental Fock matrix formation  ***
  0  -3027.5594469353   0.000000000000 0.35132374  0.00110935  0.2836998 0.7000
  1  -3027.8100104649  -0.250563529606 0.25797168  0.00087072  0.1644270 0.7000
                               ***Turning on DIIS***
  2  -3027.9781808205  -0.168170355517 0.17794726  0.00064036  0.1096871 0.7000
  3  -3029.6280325732  -1.649851752788 0.37196278  0.00159545  0.0823384 0.0000
  4  -3028.2894542571   1.338578316112 0.04776835  0.00022017  0.0198828 0.0000
  5  -3028.4051420442  -0.115687787094 0.03928844  0.00017008  0.0114963 0.0000
  6  -3028.4390704575  -0.033928413288 0.02085792  0.00007076  0.0053665 0.0000
  7  -3028.4566080811  -0.017537623615 0.00891160  0.00003390  0.0033587 0.0000
  8  -3028.4501894235   0.006418657584 0.00576902  0.00001951  0.0014775 0.0000
  9  -3028.4427662466   0.007423176919 0.00281753  0.00001204  0.0006926 0.0000
 10  -3028.4329320113   0.009834235347 0.00078204  0.00000374  0.0003490 0.0000
 11  -3028.4373251145  -0.004393103256 0.00039722  0.00000260  0.0001205 0.0000
 12  -3028.4338429450   0.003482169505 0.00032644  0.00000220  0.0000297 0.0000
 13  -3028.4343543793  -0.000511434281 0.00037915  0.00000184  0.0000137 0.0000
 14  -3028.4344741673  -0.000119787950 0.00179948  0.00000329  0.0000079 0.0000
 15  -3028.4343974674   0.000076699894 0.00073794  0.00000281  0.0000068 0.0000
 16  -3028.4344637291  -0.000066261725 0.00166763  0.00000344  0.0000057 0.0000
 17  -3028.4344254789   0.000038250230 0.00135585  0.00000377  0.0000047 0.0000
 18  -3028.4344339202  -0.000008441297 0.00279911  0.00000465  0.0000033 0.0000
 19  -3028.4344634278  -0.000029507692 0.00027176  0.00000199  0.0000019 0.0000
               *** Restarting incremental Fock matrix formation ***
                                   *** Resetting DIIS ***
                            ***DIIS convergence achieved***

               *****************************************************
               *                     SUCCESS                       *
               *           SCF CONVERGED AFTER  20 CYCLES          *
               *****************************************************

Total Energy       :        -3028.43447017 Eh          -82407.89147 eV
  Last Energy change         ...   -6.7410e-06  Tolerance :   1.0000e-08
  Last MAX-Density change    ...    8.7595e-03  Tolerance :   1.0000e-07
             **** THE GBW FILE WAS UPDATED (simple-grid-180-280-b3lyp_d3bj-631gd-gas-singlepoint-DLPNO_CCSD_T1-NormalPNO-augtz-gas.gbw) ****
             **** DENSITY FILE WAS UPDATED (simple-grid-180-280-b3lyp_d3bj-631gd-gas-singlepoint-DLPNO_CCSD_T1-NormalPNO-augtz-gas.scfp.tmp) ****
             **** ENERGY FILE WAS UPDATED (simple-grid-180-280-b3lyp_d3bj-631gd-gas-singlepoint-DLPNO_CCSD_T1-NormalPNO-augtz-gas.en.tmp) ****
----------------------
UHF SPIN CONTAMINATION
----------------------

Expectation value of <S**2>     :     8.764441
Ideal value S*(S+1) for S=2.5   :     8.750000
Deviation                       :     0.014441

----------------
ORBITAL ENERGIES
----------------
                 SPIN UP ORBITALS
  NO   OCC          E(Eh)            E(eV) 
   0   1.0000    -261.543157     -7116.9511 
   1   1.0000    -104.769960     -2850.9356 
   2   1.0000    -104.768329     -2850.8912 
   3   1.0000    -104.767054     -2850.8565 
   4   1.0000     -32.211074      -876.5079 
   5   1.0000     -27.687038      -753.4026 
   6   1.0000     -27.686721      -753.3940 
   7   1.0000     -27.686524      -753.3886 
   8   1.0000     -20.545696      -559.0768 
   9   1.0000     -11.384560      -309.7896 
  10   1.0000     -11.363933      -309.2283 
  11   1.0000     -11.300595      -307.5048 
  12   1.0000     -11.287712      -307.1543 
  13   1.0000     -11.273555      -306.7690 
  14   1.0000     -11.252910      -306.2073 
  15   1.0000     -11.249163      -306.1053 
  16   1.0000     -11.239925      -305.8539 
  17   1.0000     -10.496580      -285.6265 
  18   1.0000     -10.494911      -285.5810 
  19   1.0000     -10.493670      -285.5473 
  20   1.0000      -7.963451      -216.6965 
  21   1.0000      -7.962632      -216.6742 
  22   1.0000      -7.962581      -216.6728 
  23   1.0000      -7.961734      -216.6498 
  24   1.0000      -7.961020      -216.6304 
  25   1.0000      -7.960921      -216.6277 
  26   1.0000      -7.960519      -216.6167 
  27   1.0000      -7.959769      -216.5963 
  28   1.0000      -7.959688      -216.5941 
  29   1.0000      -4.566503      -124.2609 
  30   1.0000      -3.179104       -86.5078 
  31   1.0000      -3.178572       -86.4934 
  32   1.0000      -3.178075       -86.4798 
  33   1.0000      -1.382125       -37.6095 
  34   1.0000      -1.195360       -32.5274 
  35   1.0000      -1.083107       -29.4728 
  36   1.0000      -1.046539       -28.4778 
  37   1.0000      -1.041078       -28.3292 
  38   1.0000      -1.035811       -28.1859 
  39   1.0000      -1.033879       -28.1333 
  40   1.0000      -1.016543       -27.6615 
  41   1.0000      -0.972867       -26.4730 
  42   1.0000      -0.931368       -25.3438 
  43   1.0000      -0.909647       -24.7528 
  44   1.0000      -0.896008       -24.3816 
  45   1.0000      -0.895973       -24.3807 
  46   1.0000      -0.887211       -24.1422 
  47   1.0000      -0.886858       -24.1326 
  48   1.0000      -0.794501       -21.6195 
  49   1.0000      -0.769775       -20.9466 
  50   1.0000      -0.708170       -19.2703 
  51   1.0000      -0.695233       -18.9182 
  52   1.0000      -0.672325       -18.2949 
  53   1.0000      -0.655101       -17.8262 
  54   1.0000      -0.651110       -17.7176 
  55   1.0000      -0.633992       -17.2518 
  56   1.0000      -0.605417       -16.4742 
  57   1.0000      -0.601312       -16.3625 
  58   1.0000      -0.590814       -16.0769 
  59   1.0000      -0.583416       -15.8756 
  60   1.0000      -0.574747       -15.6397 
  61   1.0000      -0.563061       -15.3217 
  62   1.0000      -0.556860       -15.1529 
  63   1.0000      -0.537482       -14.6256 
  64   1.0000      -0.536895       -14.6096 
  65   1.0000      -0.518770       -14.1165 
  66   1.0000      -0.504400       -13.7254 
  67   1.0000      -0.466984       -12.7073 
  68   1.0000      -0.457933       -12.4610 
  69   1.0000      -0.443195       -12.0600 
  70   1.0000      -0.426108       -11.5950 
  71   1.0000      -0.420810       -11.4508 
  72   1.0000      -0.416800       -11.3417 
  73   1.0000      -0.409255       -11.1364 
  74   1.0000      -0.407185       -11.0801 
  75   1.0000      -0.406536       -11.0624 
  76   1.0000      -0.403371       -10.9763 
  77   0.0000       0.002720         0.0740 
  78   0.0000       0.004192         0.1141 
  79   0.0000       0.017719         0.4822 
  80   0.0000       0.018668         0.5080 
  81   0.0000       0.027698         0.7537 
  82   0.0000       0.037900         1.0313 
  83   0.0000       0.038310         1.0425 
  84   0.0000       0.040914         1.1133 
  85   0.0000       0.044277         1.2049 
  86   0.0000       0.048454         1.3185 
  87   0.0000       0.057489         1.5644 
  88   0.0000       0.058098         1.5809 
  89   0.0000       0.060289         1.6405 
  90   0.0000       0.062211         1.6928 
  91   0.0000       0.064065         1.7433 
  92   0.0000       0.073059         1.9880 
  93   0.0000       0.074218         2.0196 
  94   0.0000       0.080648         2.1946 
  95   0.0000       0.087126         2.3708 
  96   0.0000       0.090281         2.4567 
  97   0.0000       0.091956         2.5022 
  98   0.0000       0.093283         2.5384 
  99   0.0000       0.096777         2.6334 
 100   0.0000       0.100927         2.7464 
 101   0.0000       0.105664         2.8753 
 102   0.0000       0.113999         3.1021 
 103   0.0000       0.115139         3.1331 
 104   0.0000       0.120698         3.2844 
 105   0.0000       0.122924         3.3449 
 106   0.0000       0.127286         3.4636 
 107   0.0000       0.131672         3.5830 
 108   0.0000       0.132123         3.5952 
 109   0.0000       0.134384         3.6568 
 110   0.0000       0.138661         3.7731 
 111   0.0000       0.141974         3.8633 
 112   0.0000       0.145893         3.9699 
 113   0.0000       0.150288         4.0895 
 114   0.0000       0.152389         4.1467 
 115   0.0000       0.155767         4.2386 
 116   0.0000       0.158310         4.3078 
 117   0.0000       0.160175         4.3586 
 118   0.0000       0.160630         4.3710 
 119   0.0000       0.163161         4.4398 
 120   0.0000       0.164952         4.4886 
 121   0.0000       0.170413         4.6372 
 122   0.0000       0.174701         4.7539 
 123   0.0000       0.176379         4.7995 
 124   0.0000       0.179472         4.8837 
 125   0.0000       0.183437         4.9916 
 126   0.0000       0.187072         5.0905 
 127   0.0000       0.188981         5.1424 
 128   0.0000       0.195874         5.3300 
 129   0.0000       0.203759         5.5446 
 130   0.0000       0.204216         5.5570 
 131   0.0000       0.208642         5.6774 
 132   0.0000       0.213249         5.8028 
 133   0.0000       0.215917         5.8754 
 134   0.0000       0.217400         5.9158 
 135   0.0000       0.219845         5.9823 
 136   0.0000       0.222792         6.0625 
 137   0.0000       0.226076         6.1519 
 138   0.0000       0.227251         6.1838 
 139   0.0000       0.227749         6.1974 
 140   0.0000       0.234335         6.3766 
 141   0.0000       0.237900         6.4736 
 142   0.0000       0.241343         6.5673 
 143   0.0000       0.244142         6.6434 
 144   0.0000       0.247477         6.7342 
 145   0.0000       0.251232         6.8364 
 146   0.0000       0.254364         6.9216 
 147   0.0000       0.254620         6.9286 
 148   0.0000       0.260559         7.0902 
 149   0.0000       0.267038         7.2665 
 150   0.0000       0.270821         7.3694 
 151   0.0000       0.275514         7.4971 
 152   0.0000       0.278851         7.5879 
 153   0.0000       0.284494         7.7415 
 154   0.0000       0.284825         7.7505 
 155   0.0000       0.291187         7.9236 
 156   0.0000       0.294683         8.0187 
 157   0.0000       0.298351         8.1186 
 158   0.0000       0.301470         8.2034 
 159   0.0000       0.302372         8.2280 
 160   0.0000       0.309270         8.4157 
 161   0.0000       0.310394         8.4462 
 162   0.0000       0.314313         8.5529 
 163   0.0000       0.322023         8.7627 
 164   0.0000       0.324401         8.8274 
 165   0.0000       0.329666         8.9707 
 166   0.0000       0.332900         9.0587 
 167   0.0000       0.334610         9.1052 
 168   0.0000       0.336851         9.1662 
 169   0.0000       0.339574         9.2403 
 170   0.0000       0.344254         9.3676 
 171   0.0000       0.350576         9.5397 
 172   0.0000       0.353195         9.6109 
 173   0.0000       0.355562         9.6753 
 174   0.0000       0.359004         9.7690 
 175   0.0000       0.361259         9.8304 
 176   0.0000       0.363564         9.8931 
 177   0.0000       0.369198        10.0464 
 178   0.0000       0.370689        10.0870 
 179   0.0000       0.375858        10.2276 
 180   0.0000       0.380123        10.3437 
 181   0.0000       0.383400        10.4329 
 182   0.0000       0.385137        10.4801 
 183   0.0000       0.390334        10.6215 
 184   0.0000       0.391434        10.6515 
 185   0.0000       0.393688        10.7128 
 186   0.0000       0.397325        10.8118 
 187   0.0000       0.402387        10.9495 
 188   0.0000       0.404544        11.0082 
 189   0.0000       0.408238        11.1087 
 190   0.0000       0.412748        11.2314 
 191   0.0000       0.412894        11.2354 
 192   0.0000       0.416620        11.3368 
 193   0.0000       0.423218        11.5163 
 194   0.0000       0.427972        11.6457 
 195   0.0000       0.430848        11.7240 
 196   0.0000       0.436019        11.8647 
 197   0.0000       0.436898        11.8886 
 198   0.0000       0.440808        11.9950 
 199   0.0000       0.447738        12.1836 
 200   0.0000       0.448349        12.2002 
 201   0.0000       0.451795        12.2940 
 202   0.0000       0.453842        12.3497 
 203   0.0000       0.460726        12.5370 
 204   0.0000       0.464352        12.6356 
 205   0.0000       0.467683        12.7263 
 206   0.0000       0.469328        12.7711 
 207   0.0000       0.474582        12.9140 
 208   0.0000       0.476445        12.9647 
 209   0.0000       0.479921        13.0593 
 210   0.0000       0.481038        13.0897 
 211   0.0000       0.488650        13.2968 
 212   0.0000       0.492378        13.3983 
 213   0.0000       0.492701        13.4071 
 214   0.0000       0.497974        13.5506 
 215   0.0000       0.498485        13.5645 
 216   0.0000       0.502081        13.6623 
 217   0.0000       0.503823        13.7097 
 218   0.0000       0.507488        13.8094 
 219   0.0000       0.513035        13.9604 
 220   0.0000       0.514389        13.9972 
 221   0.0000       0.520046        14.1512 
 222   0.0000       0.523190        14.2367 
 223   0.0000       0.525170        14.2906 
 224   0.0000       0.527721        14.3600 
 225   0.0000       0.530218        14.4280 
 226   0.0000       0.535064        14.5598 
 227   0.0000       0.537634        14.6298 
 228   0.0000       0.540506        14.7079 
 229   0.0000       0.542578        14.7643 
 230   0.0000       0.546181        14.8623 
 231   0.0000       0.548639        14.9292 
 232   0.0000       0.553066        15.0497 
 233   0.0000       0.556611        15.1462 
 234   0.0000       0.560485        15.2516 
 235   0.0000       0.565185        15.3795 
 236   0.0000       0.571777        15.5588 
 237   0.0000       0.573537        15.6067 
 238   0.0000       0.576320        15.6825 
 239   0.0000       0.582835        15.8598 
 240   0.0000       0.583665        15.8823 
 241   0.0000       0.586671        15.9641 
 242   0.0000       0.590047        16.0560 
 243   0.0000       0.596346        16.2274 
 244   0.0000       0.599690        16.3184 
 245   0.0000       0.601585        16.3700 
 246   0.0000       0.605976        16.4894 
 247   0.0000       0.608563        16.5598 
 248   0.0000       0.614584        16.7237 
 249   0.0000       0.618467        16.8293 
 250   0.0000       0.620647        16.8887 
 251   0.0000       0.625073        17.0091 
 252   0.0000       0.628223        17.0948 
 253   0.0000       0.630347        17.1526 
 254   0.0000       0.632842        17.2205 
 255   0.0000       0.637815        17.3558 
 256   0.0000       0.647963        17.6320 
 257   0.0000       0.652798        17.7635 
 258   0.0000       0.655052        17.8249 
 259   0.0000       0.658763        17.9259 
 260   0.0000       0.662513        18.0279 
 261   0.0000       0.667499        18.1636 
 262   0.0000       0.675221        18.3737 
 263   0.0000       0.677408        18.4332 
 264   0.0000       0.681516        18.5450 
 265   0.0000       0.686492        18.6804 
 266   0.0000       0.689887        18.7728 
 267   0.0000       0.693179        18.8624 
 268   0.0000       0.696101        18.9419 
 269   0.0000       0.701425        19.0867 
 270   0.0000       0.705153        19.1882 
 271   0.0000       0.708491        19.2790 
 272   0.0000       0.710397        19.3309 
 273   0.0000       0.717426        19.5222 
 274   0.0000       0.721104        19.6222 
 275   0.0000       0.726502        19.7691 
 276   0.0000       0.728533        19.8244 
 277   0.0000       0.732547        19.9336 
 278   0.0000       0.740556        20.1516 
 279   0.0000       0.744730        20.2651 
 280   0.0000       0.751378        20.4460 
 281   0.0000       0.755805        20.5665 
 282   0.0000       0.761931        20.7332 
 283   0.0000       0.765067        20.8185 
 284   0.0000       0.768828        20.9209 
 285   0.0000       0.780337        21.2341 
 286   0.0000       0.785619        21.3778 
 287   0.0000       0.791403        21.5352 
 288   0.0000       0.796000        21.6603 
 289   0.0000       0.798466        21.7274 
 290   0.0000       0.803534        21.8653 
 291   0.0000       0.815388        22.1878 
 292   0.0000       0.822017        22.3682 
 293   0.0000       0.825450        22.4616 
 294   0.0000       0.834247        22.7010 
 295   0.0000       0.836625        22.7657 
 296   0.0000       0.842685        22.9306 
 297   0.0000       0.846578        23.0366 
 298   0.0000       0.850899        23.1541 
 299   0.0000       0.856405        23.3040 
 300   0.0000       0.857499        23.3337 
 301   0.0000       0.866185        23.5701 
 302   0.0000       0.869068        23.6485 
 303   0.0000       0.873929        23.7808 
 304   0.0000       0.880812        23.9681 
 305   0.0000       0.882863        24.0239 
 306   0.0000       0.889396        24.2017 
 307   0.0000       0.890349        24.2276 
 308   0.0000       0.896002        24.3815 
 309   0.0000       0.900538        24.5049 
 310   0.0000       0.903904        24.5965 
 311   0.0000       0.911301        24.7978 
 312   0.0000       0.914099        24.8739 
 313   0.0000       0.917663        24.9709 
 314   0.0000       0.924287        25.1511 
 315   0.0000       0.927504        25.2387 
 316   0.0000       0.936465        25.4825 
 317   0.0000       0.937220        25.5031 
 318   0.0000       0.941087        25.6083 
 319   0.0000       0.946434        25.7538 
 320   0.0000       0.950486        25.8641 
 321   0.0000       0.954812        25.9817 
 322   0.0000       0.955733        26.0068 
 323   0.0000       0.958550        26.0835 
 324   0.0000       0.960933        26.1483 
 325   0.0000       0.967680        26.3319 
 326   0.0000       0.975165        26.5356 
 327   0.0000       0.978030        26.6135 
 328   0.0000       0.980955        26.6931 
 329   0.0000       0.983183        26.7538 
 330   0.0000       0.987083        26.8599 
 331   0.0000       0.990690        26.9580 
 332   0.0000       0.993347        27.0303 
 333   0.0000       0.995565        27.0907 
 334   0.0000       1.000350        27.2209 
 335   0.0000       1.002021        27.2664 
 336   0.0000       1.009421        27.4677 
 337   0.0000       1.012689        27.5567 
 338   0.0000       1.014424        27.6039 
 339   0.0000       1.015637        27.6369 
 340   0.0000       1.024064        27.8662 
 341   0.0000       1.025212        27.8974 
 342   0.0000       1.029174        28.0052 
 343   0.0000       1.034324        28.1454 
 344   0.0000       1.040024        28.3005 
 345   0.0000       1.044327        28.4176 
 346   0.0000       1.047359        28.5001 
 347   0.0000       1.049796        28.5664 
 348   0.0000       1.051076        28.6012 
 349   0.0000       1.057103        28.7652 
 350   0.0000       1.061310        28.8797 
 351   0.0000       1.063921        28.9508 
 352   0.0000       1.068267        29.0690 
 353   0.0000       1.070707        29.1354 
 354   0.0000       1.075753        29.2727 
 355   0.0000       1.076444        29.2915 
 356   0.0000       1.084710        29.5165 
 357   0.0000       1.086638        29.5689 
 358   0.0000       1.090115        29.6635 
 359   0.0000       1.094599        29.7856 
 360   0.0000       1.099844        29.9283 
 361   0.0000       1.101052        29.9612 
 362   0.0000       1.105158        30.0729 
 363   0.0000       1.109184        30.1824 
 364   0.0000       1.116232        30.3742 
 365   0.0000       1.116344        30.3773 
 366   0.0000       1.120982        30.5035 
 367   0.0000       1.131674        30.7944 
 368   0.0000       1.132852        30.8265 
 369   0.0000       1.135542        30.8997 
 370   0.0000       1.139594        31.0099 
 371   0.0000       1.141480        31.0613 
 372   0.0000       1.144629        31.1469 
 373   0.0000       1.149757        31.2865 
 374   0.0000       1.157440        31.4955 
 375   0.0000       1.160217        31.5711 
 376   0.0000       1.167791        31.7772 
 377   0.0000       1.172994        31.9188 
 378   0.0000       1.175205        31.9790 
 379   0.0000       1.180079        32.1116 
 380   0.0000       1.185177        32.2503 
 381   0.0000       1.187861        32.3233 
 382   0.0000       1.197297        32.5801 
 383   0.0000       1.201152        32.6850 
 384   0.0000       1.204501        32.7762 
 385   0.0000       1.207820        32.8665 
 386   0.0000       1.212841        33.0031 
 387   0.0000       1.214994        33.0617 
 388   0.0000       1.219837        33.1935 
 389   0.0000       1.224261        33.3138 
 390   0.0000       1.230094        33.4726 
 391   0.0000       1.237744        33.6807 
 392   0.0000       1.240596        33.7583 
 393   0.0000       1.245012        33.8785 
 394   0.0000       1.250371        34.0243 
 395   0.0000       1.253055        34.0974 
 396   0.0000       1.257925        34.2299 
 397   0.0000       1.264259        34.4022 
 398   0.0000       1.266972        34.4761 
 399   0.0000       1.274396        34.6781 
 400   0.0000       1.281194        34.8631 
 401   0.0000       1.286654        35.0116 
 402   0.0000       1.290463        35.1153 
 403   0.0000       1.293974        35.2108 
 404   0.0000       1.298053        35.3218 
 405   0.0000       1.309033        35.6206 
 406   0.0000       1.310891        35.6712 
 407   0.0000       1.313029        35.7293 
 408   0.0000       1.315457        35.7954 
 409   0.0000       1.324001        36.0279 
 410   0.0000       1.325207        36.0607 
 411   0.0000       1.330172        36.1958 
 412   0.0000       1.335528        36.3416 
 413   0.0000       1.345748        36.6197 
 414   0.0000       1.349405        36.7192 
 415   0.0000       1.354396        36.8550 
 416   0.0000       1.360958        37.0335 
 417   0.0000       1.367406        37.2090 
 418   0.0000       1.372160        37.3384 
 419   0.0000       1.375404        37.4266 
 420   0.0000       1.378068        37.4991 
 421   0.0000       1.381977        37.6055 
 422   0.0000       1.391856        37.8743 
 423   0.0000       1.397204        38.0199 
 424   0.0000       1.407370        38.2965 
 425   0.0000       1.412423        38.4340 
 426   0.0000       1.417742        38.5787 
 427   0.0000       1.425994        38.8033 
 428   0.0000       1.433708        39.0132 
 429   0.0000       1.436852        39.0987 
 430   0.0000       1.441831        39.2342 
 431   0.0000       1.446938        39.3732 
 432   0.0000       1.452119        39.5142 
 433   0.0000       1.454438        39.5773 
 434   0.0000       1.456991        39.6467 
 435   0.0000       1.461915        39.7807 
 436   0.0000       1.462527        39.7974 
 437   0.0000       1.468652        39.9640 
 438   0.0000       1.474971        40.1360 
 439   0.0000       1.481313        40.3086 
 440   0.0000       1.490587        40.5609 
 441   0.0000       1.494541        40.6685 
 442   0.0000       1.500321        40.8258 
 443   0.0000       1.509029        41.0628 
 444   0.0000       1.511929        41.1417 
 445   0.0000       1.514547        41.2129 
 446   0.0000       1.522691        41.4345 
 447   0.0000       1.525255        41.5043 
 448   0.0000       1.528038        41.5800 
 449   0.0000       1.535050        41.7708 
 450   0.0000       1.541788        41.9542 
 451   0.0000       1.543567        42.0026 
 452   0.0000       1.552167        42.2366 
 453   0.0000       1.559889        42.4467 
 454   0.0000       1.560312        42.4582 
 455   0.0000       1.570601        42.7382 
 456   0.0000       1.575300        42.8661 
 457   0.0000       1.582141        43.0523 
 458   0.0000       1.585723        43.1497 
 459   0.0000       1.588956        43.2377 
 460   0.0000       1.595826        43.4246 
 461   0.0000       1.603279        43.6274 
 462   0.0000       1.606223        43.7076 
 463   0.0000       1.607894        43.7530 
 464   0.0000       1.610498        43.8239 
 465   0.0000       1.618769        44.0489 
 466   0.0000       1.619754        44.0758 
 467   0.0000       1.626421        44.2572 
 468   0.0000       1.632482        44.4221 
 469   0.0000       1.636730        44.5377 
 470   0.0000       1.640421        44.6381 
 471   0.0000       1.648723        44.8640 
 472   0.0000       1.656422        45.0735 
 473   0.0000       1.656906        45.0867 
 474   0.0000       1.667963        45.3876 
 475   0.0000       1.672886        45.5215 
 476   0.0000       1.681655        45.7602 
 477   0.0000       1.687128        45.9091 
 478   0.0000       1.692931        46.0670 
 479   0.0000       1.694508        46.1099 
 480   0.0000       1.697660        46.1957 
 481   0.0000       1.700665        46.2774 
 482   0.0000       1.701866        46.3101 
 483   0.0000       1.708882        46.5011 
 484   0.0000       1.711882        46.5827 
 485   0.0000       1.720126        46.8070 
 486   0.0000       1.726685        46.9855 
 487   0.0000       1.731346        47.1123 
 488   0.0000       1.732737        47.1502 
 489   0.0000       1.743731        47.4493 
 490   0.0000       1.750106        47.6228 
 491   0.0000       1.754377        47.7390 
 492   0.0000       1.759159        47.8691 
 493   0.0000       1.765647        48.0457 
 494   0.0000       1.766911        48.0801 
 495   0.0000       1.778851        48.4050 
 496   0.0000       1.780509        48.4501 
 497   0.0000       1.794734        48.8372 
 498   0.0000       1.797970        48.9253 
 499   0.0000       1.803079        49.0643 
 500   0.0000       1.809490        49.2387 
 501   0.0000       1.813701        49.3533 
 502   0.0000       1.822250        49.5859 
 503   0.0000       1.828539        49.7571 
 504   0.0000       1.831830        49.8466 
 505   0.0000       1.836733        49.9801 
 506   0.0000       1.844411        50.1890 
 507   0.0000       1.846070        50.2341 
 508   0.0000       1.853676        50.4411 
 509   0.0000       1.856911        50.5291 
 510   0.0000       1.859869        50.6096 
 511   0.0000       1.862815        50.6898 
 512   0.0000       1.864787        50.7434 
 513   0.0000       1.870864        50.9088 
 514   0.0000       1.875380        51.0317 
 515   0.0000       1.882190        51.2170 
 516   0.0000       1.887040        51.3490 
 517   0.0000       1.888476        51.3881 
 518   0.0000       1.892260        51.4910 
 519   0.0000       1.902063        51.7578 
 520   0.0000       1.905632        51.8549 
 521   0.0000       1.910396        51.9845 
 522   0.0000       1.914211        52.0883 
 523   0.0000       1.919636        52.2360 
 524   0.0000       1.923911        52.3523 
 525   0.0000       1.934302        52.6350 
 526   0.0000       1.935547        52.6689 
 527   0.0000       1.947677        52.9990 
 528   0.0000       1.948840        53.0306 
 529   0.0000       1.963552        53.4310 
 530   0.0000       1.965105        53.4732 
 531   0.0000       1.970922        53.6315 
 532   0.0000       1.972183        53.6658 
 533   0.0000       1.976030        53.7705 
 534   0.0000       1.979964        53.8776 
 535   0.0000       1.990634        54.1679 
 536   0.0000       1.995408        54.2978 
 537   0.0000       1.998376        54.3786 
 538   0.0000       2.002036        54.4782 
 539   0.0000       2.014496        54.8172 
 540   0.0000       2.024789        55.0973 
 541   0.0000       2.034075        55.3500 
 542   0.0000       2.037163        55.4340 
 543   0.0000       2.042548        55.5806 
 544   0.0000       2.051054        55.8120 
 545   0.0000       2.059818        56.0505 
 546   0.0000       2.064811        56.1864 
 547   0.0000       2.067606        56.2624 
 548   0.0000       2.074525        56.4507 
 549   0.0000       2.088130        56.8209 
 550   0.0000       2.090899        56.8963 
 551   0.0000       2.096769        57.0560 
 552   0.0000       2.098186        57.0946 
 553   0.0000       2.106133        57.3108 
 554   0.0000       2.112037        57.4714 
 555   0.0000       2.125799        57.8459 
 556   0.0000       2.137096        58.1533 
 557   0.0000       2.138807        58.1999 
 558   0.0000       2.145137        58.3721 
 559   0.0000       2.151475        58.5446 
 560   0.0000       2.157168        58.6995 
 561   0.0000       2.170178        59.0535 
 562   0.0000       2.175023        59.1854 
 563   0.0000       2.181371        59.3581 
 564   0.0000       2.187337        59.5205 
 565   0.0000       2.191358        59.6299 
 566   0.0000       2.202616        59.9362 
 567   0.0000       2.211242        60.1709 
 568   0.0000       2.218249        60.3616 
 569   0.0000       2.223842        60.5138 
 570   0.0000       2.225363        60.5552 
 571   0.0000       2.238418        60.9105 
 572   0.0000       2.240048        60.9548 
 573   0.0000       2.249208        61.2041 
 574   0.0000       2.256139        61.3927 
 575   0.0000       2.259056        61.4720 
 576   0.0000       2.272041        61.8254 
 577   0.0000       2.275144        61.9098 
 578   0.0000       2.280549        62.0569 
 579   0.0000       2.291233        62.3476 
 580   0.0000       2.303251        62.6747 
 581   0.0000       2.306387        62.7600 
 582   0.0000       2.314329        62.9761 
 583   0.0000       2.320695        63.1493 
 584   0.0000       2.329216        63.3812 
 585   0.0000       2.337642        63.6105 
 586   0.0000       2.342008        63.7293 
 587   0.0000       2.351449        63.9862 
 588   0.0000       2.352582        64.0170 
 589   0.0000       2.356895        64.1344 
 590   0.0000       2.369807        64.4857 
 591   0.0000       2.373401        64.5835 
 592   0.0000       2.391734        65.0824 
 593   0.0000       2.399947        65.3059 
 594   0.0000       2.404620        65.4330 
 595   0.0000       2.414762        65.7090 
 596   0.0000       2.425308        65.9960 
 597   0.0000       2.430368        66.1337 
 598   0.0000       2.437426        66.3257 
 599   0.0000       2.446179        66.5639 
 600   0.0000       2.451036        66.6961 
 601   0.0000       2.455506        66.8177 
 602   0.0000       2.474807        67.3429 
 603   0.0000       2.476919        67.4004 
 604   0.0000       2.484463        67.6057 
 605   0.0000       2.496547        67.9345 
 606   0.0000       2.506486        68.2050 
 607   0.0000       2.525881        68.7327 
 608   0.0000       2.535143        68.9847 
 609   0.0000       2.542540        69.1860 
 610   0.0000       2.573631        70.0321 
 611   0.0000       2.582018        70.2603 
 612   0.0000       2.586170        70.3733 
 613   0.0000       2.599679        70.7409 
 614   0.0000       2.614041        71.1317 
 615   0.0000       2.629519        71.5529 
 616   0.0000       2.632876        71.6442 
 617   0.0000       2.647102        72.0313 
 618   0.0000       2.652678        72.1830 
 619   0.0000       2.668697        72.6189 
 620   0.0000       2.670542        72.6691 
 621   0.0000       2.691033        73.2267 
 622   0.0000       2.695395        73.3454 
 623   0.0000       2.699973        73.4700 
 624   0.0000       2.706678        73.6525 
 625   0.0000       2.709703        73.7348 
 626   0.0000       2.717129        73.9368 
 627   0.0000       2.724402        74.1347 
 628   0.0000       2.740873        74.5829 
 629   0.0000       2.742330        74.6226 
 630   0.0000       2.746549        74.7374 
 631   0.0000       2.755239        74.9739 
 632   0.0000       2.759865        75.0997 
 633   0.0000       2.764211        75.2180 
 634   0.0000       2.778561        75.6085 
 635   0.0000       2.792230        75.9804 
 636   0.0000       2.796072        76.0850 
 637   0.0000       2.823973        76.8442 
 638   0.0000       2.843923        77.3871 
 639   0.0000       2.857991        77.7699 
 640   0.0000       2.863706        77.9254 
 641   0.0000       2.882659        78.4411 
 642   0.0000       2.889402        78.6246 
 643   0.0000       2.902756        78.9880 
 644   0.0000       2.911593        79.2285 
 645   0.0000       2.931265        79.7638 
 646   0.0000       2.931552        79.7716 
 647   0.0000       2.945612        80.1542 
 648   0.0000       2.966462        80.7215 
 649   0.0000       2.971009        80.8453 
 650   0.0000       2.994768        81.4918 
 651   0.0000       2.997116        81.5557 
 652   0.0000       3.001764        81.6821 
 653   0.0000       3.027235        82.3752 
 654   0.0000       3.041749        82.7702 
 655   0.0000       3.058356        83.2221 
 656   0.0000       3.079609        83.8004 
 657   0.0000       3.094053        84.1935 
 658   0.0000       3.106826        84.5410 
 659   0.0000       3.112506        84.6956 
 660   0.0000       3.130989        85.1985 
 661   0.0000       3.155107        85.8548 
 662   0.0000       3.164508        86.1106 
 663   0.0000       3.173796        86.3634 
 664   0.0000       3.182399        86.5975 
 665   0.0000       3.195331        86.9494 
 666   0.0000       3.202297        87.1389 
 667   0.0000       3.215701        87.5037 
 668   0.0000       3.235593        88.0450 
 669   0.0000       3.239653        88.1554 
 670   0.0000       3.247427        88.3670 
 671   0.0000       3.252344        88.5008 
 672   0.0000       3.259898        88.7063 
 673   0.0000       3.262356        88.7732 
 674   0.0000       3.279744        89.2464 
 675   0.0000       3.285901        89.4139 
 676   0.0000       3.297337        89.7251 
 677   0.0000       3.308946        90.0410 
 678   0.0000       3.318412        90.2986 
 679   0.0000       3.330388        90.6245 
 680   0.0000       3.338284        90.8393 
 681   0.0000       3.345108        91.0250 
 682   0.0000       3.348916        91.1286 
 683   0.0000       3.363001        91.5119 
 684   0.0000       3.367520        91.6349 
 685   0.0000       3.374702        91.8303 
 686   0.0000       3.385776        92.1316 
 687   0.0000       3.404150        92.6316 
 688   0.0000       3.410745        92.8111 
 689   0.0000       3.416901        92.9786 
 690   0.0000       3.430219        93.3410 
 691   0.0000       3.434942        93.4695 
 692   0.0000       3.448942        93.8505 
 693   0.0000       3.454630        94.0053 
 694   0.0000       3.459459        94.1367 
 695   0.0000       3.470726        94.4433 
 696   0.0000       3.481189        94.7280 
 697   0.0000       3.485341        94.8409 
 698   0.0000       3.497265        95.1654 
 699   0.0000       3.503323        95.3303 
 700   0.0000       3.505902        95.4004 
 701   0.0000       3.515884        95.6721 
 702   0.0000       3.525336        95.9293 
 703   0.0000       3.526356        95.9570 
 704   0.0000       3.540133        96.3319 
 705   0.0000       3.550434        96.6122 
 706   0.0000       3.562427        96.9386 
 707   0.0000       3.572823        97.2214 
 708   0.0000       3.578962        97.3885 
 709   0.0000       3.593532        97.7850 
 710   0.0000       3.602860        98.0388 
 711   0.0000       3.610876        98.2569 
 712   0.0000       3.613843        98.3377 
 713   0.0000       3.624022        98.6146 
 714   0.0000       3.626786        98.6899 
 715   0.0000       3.635368        98.9234 
 716   0.0000       3.645177        99.1903 
 717   0.0000       3.657385        99.5225 
 718   0.0000       3.663835        99.6980 
 719   0.0000       3.684459       100.2592 
 720   0.0000       3.690822       100.4324 
 721   0.0000       3.691359       100.4470 
 722   0.0000       3.706732       100.8653 
 723   0.0000       3.711149       100.9855 
 724   0.0000       3.712222       101.0147 
 725   0.0000       3.727512       101.4308 
 726   0.0000       3.728568       101.4595 
 727   0.0000       3.741301       101.8060 
 728   0.0000       3.745462       101.9192 
 729   0.0000       3.761148       102.3460 
 730   0.0000       3.763654       102.4142 
 731   0.0000       3.769846       102.5827 
 732   0.0000       3.776097       102.7528 
 733   0.0000       3.784567       102.9833 
 734   0.0000       3.785109       102.9980 
 735   0.0000       3.793003       103.2129 
 736   0.0000       3.802478       103.4707 
 737   0.0000       3.811966       103.7289 
 738   0.0000       3.824090       104.0588 
 739   0.0000       3.827113       104.1410 
 740   0.0000       3.830630       104.2367 
 741   0.0000       3.836037       104.3839 
 742   0.0000       3.848423       104.7209 
 743   0.0000       3.856757       104.9477 
 744   0.0000       3.858748       105.0019 
 745   0.0000       3.861986       105.0900 
 746   0.0000       3.867881       105.2504 
 747   0.0000       3.882462       105.6472 
 748   0.0000       3.887641       105.7881 
 749   0.0000       3.904263       106.2404 
 750   0.0000       3.906642       106.3051 
 751   0.0000       3.909835       106.3920 
 752   0.0000       3.926125       106.8353 
 753   0.0000       3.927330       106.8681 
 754   0.0000       3.932863       107.0186 
 755   0.0000       3.944875       107.3455 
 756   0.0000       3.945396       107.3597 
 757   0.0000       3.948463       107.4431 
 758   0.0000       3.957165       107.6799 
 759   0.0000       3.967474       107.9605 
 760   0.0000       3.981242       108.3351 
 761   0.0000       3.988002       108.5191 
 762   0.0000       3.993705       108.6742 
 763   0.0000       3.996841       108.7596 
 764   0.0000       4.003284       108.9349 
 765   0.0000       4.011601       109.1612 
 766   0.0000       4.021551       109.4320 
 767   0.0000       4.030109       109.6648 
 768   0.0000       4.039697       109.9257 
 769   0.0000       4.042838       110.0112 
 770   0.0000       4.046096       110.0999 
 771   0.0000       4.054170       110.3196 
 772   0.0000       4.065927       110.6395 
 773   0.0000       4.075587       110.9024 
 774   0.0000       4.082148       111.0809 
 775   0.0000       4.087554       111.2280 
 776   0.0000       4.091218       111.3277 
 777   0.0000       4.106960       111.7561 
 778   0.0000       4.109477       111.8246 
 779   0.0000       4.113489       111.9337 
 780   0.0000       4.119812       112.1058 
 781   0.0000       4.127745       112.3216 
 782   0.0000       4.132911       112.4622 
 783   0.0000       4.146372       112.8285 
 784   0.0000       4.159047       113.1734 
 785   0.0000       4.164697       113.3272 
 786   0.0000       4.178079       113.6913 
 787   0.0000       4.183605       113.8417 
 788   0.0000       4.193576       114.1130 
 789   0.0000       4.198012       114.2337 
 790   0.0000       4.210930       114.5852 
 791   0.0000       4.221649       114.8769 
 792   0.0000       4.227372       115.0326 
 793   0.0000       4.236074       115.2694 
 794   0.0000       4.244098       115.4878 
 795   0.0000       4.248319       115.6026 
 796   0.0000       4.255858       115.8078 
 797   0.0000       4.268108       116.1411 
 798   0.0000       4.273801       116.2960 
 799   0.0000       4.285570       116.6163 
 800   0.0000       4.291005       116.7642 
 801   0.0000       4.308130       117.2302 
 802   0.0000       4.314423       117.4014 
 803   0.0000       4.322917       117.6326 
 804   0.0000       4.341750       118.1450 
 805   0.0000       4.352617       118.4407 
 806   0.0000       4.357622       118.5769 
 807   0.0000       4.360864       118.6651 
 808   0.0000       4.367181       118.8370 
 809   0.0000       4.376608       119.0936 
 810   0.0000       4.382218       119.2462 
 811   0.0000       4.391356       119.4949 
 812   0.0000       4.404311       119.8474 
 813   0.0000       4.420146       120.2783 
 814   0.0000       4.432235       120.6073 
 815   0.0000       4.436913       120.7345 
 816   0.0000       4.444467       120.9401 
 817   0.0000       4.447900       121.0335 
 818   0.0000       4.460678       121.3812 
 819   0.0000       4.464161       121.4760 
 820   0.0000       4.468036       121.5814 
 821   0.0000       4.485746       122.0634 
 822   0.0000       4.499965       122.4503 
 823   0.0000       4.511171       122.7552 
 824   0.0000       4.516035       122.8876 
 825   0.0000       4.521795       123.0443 
 826   0.0000       4.527943       123.2116 
 827   0.0000       4.553488       123.9067 
 828   0.0000       4.558489       124.0428 
 829   0.0000       4.568432       124.3134 
 830   0.0000       4.572108       124.4134 
 831   0.0000       4.589024       124.8737 
 832   0.0000       4.597589       125.1068 
 833   0.0000       4.604519       125.2953 
 834   0.0000       4.619775       125.7105 
 835   0.0000       4.633551       126.0853 
 836   0.0000       4.646522       126.4383 
 837   0.0000       4.666066       126.9701 
 838   0.0000       4.669415       127.0613 
 839   0.0000       4.689399       127.6050 
 840   0.0000       4.697964       127.8381 
 841   0.0000       4.701928       127.9460 
 842   0.0000       4.708785       128.1326 
 843   0.0000       4.720398       128.4486 
 844   0.0000       4.738936       128.9530 
 845   0.0000       4.748457       129.2121 
 846   0.0000       4.760594       129.5423 
 847   0.0000       4.772658       129.8706 
 848   0.0000       4.780841       130.0933 
 849   0.0000       4.787630       130.2780 
 850   0.0000       4.796066       130.5076 
 851   0.0000       4.805759       130.7713 
 852   0.0000       4.813281       130.9760 
 853   0.0000       4.828095       131.3792 
 854   0.0000       4.843780       131.8060 
 855   0.0000       4.850309       131.9836 
 856   0.0000       4.869031       132.4931 
 857   0.0000       4.879453       132.7767 
 858   0.0000       4.890168       133.0682 
 859   0.0000       4.895591       133.2158 
 860   0.0000       4.911858       133.6584 
 861   0.0000       4.924133       133.9925 
 862   0.0000       4.933194       134.2390 
 863   0.0000       4.938633       134.3870 
 864   0.0000       4.953147       134.7820 
 865   0.0000       4.966772       135.1527 
 866   0.0000       4.973392       135.3329 
 867   0.0000       4.996110       135.9511 
 868   0.0000       5.001083       136.0864 
 869   0.0000       5.005348       136.2025 
 870   0.0000       5.025491       136.7506 
 871   0.0000       5.028190       136.8240 
 872   0.0000       5.041038       137.1736 
 873   0.0000       5.044637       137.2715 
 874   0.0000       5.056682       137.5993 
 875   0.0000       5.078395       138.1902 
 876   0.0000       5.092655       138.5782 
 877   0.0000       5.096614       138.6859 
 878   0.0000       5.105932       138.9395 
 879   0.0000       5.118125       139.2713 
 880   0.0000       5.138550       139.8270 
 881   0.0000       5.157312       140.3376 
 882   0.0000       5.165561       140.5621 
 883   0.0000       5.190009       141.2273 
 884   0.0000       5.190691       141.2459 
 885   0.0000       5.206870       141.6861 
 886   0.0000       5.213151       141.8570 
 887   0.0000       5.224539       142.1669 
 888   0.0000       5.231810       142.3648 
 889   0.0000       5.239645       142.5780 
 890   0.0000       5.253478       142.9544 
 891   0.0000       5.268042       143.3507 
 892   0.0000       5.295086       144.0866 
 893   0.0000       5.300975       144.2469 
 894   0.0000       5.313270       144.5814 
 895   0.0000       5.325194       144.9059 
 896   0.0000       5.329331       145.0185 
 897   0.0000       5.341180       145.3409 
 898   0.0000       5.346087       145.4744 
 899   0.0000       5.377141       146.3195 
 900   0.0000       5.383083       146.4811 
 901   0.0000       5.386143       146.5644 
 902   0.0000       5.398922       146.9121 
 903   0.0000       5.423552       147.5824 
 904   0.0000       5.438309       147.9839 
 905   0.0000       5.444905       148.1634 
 906   0.0000       5.456528       148.4797 
 907   0.0000       5.472891       148.9249 
 908   0.0000       5.486442       149.2937 
 909   0.0000       5.499346       149.6448 
 910   0.0000       5.503819       149.7665 
 911   0.0000       5.516286       150.1058 
 912   0.0000       5.523289       150.2963 
 913   0.0000       5.539138       150.7276 
 914   0.0000       5.552430       151.0893 
 915   0.0000       5.569474       151.5531 
 916   0.0000       5.577359       151.7676 
 917   0.0000       5.581854       151.8900 
 918   0.0000       5.586174       152.0075 
 919   0.0000       5.595606       152.2642 
 920   0.0000       5.604635       152.5099 
 921   0.0000       5.639199       153.4504 
 922   0.0000       5.645196       153.6136 
 923   0.0000       5.658929       153.9873 
 924   0.0000       5.670656       154.3064 
 925   0.0000       5.681371       154.5980 
 926   0.0000       5.688429       154.7900 
 927   0.0000       5.705243       155.2476 
 928   0.0000       5.716326       155.5492 
 929   0.0000       5.727099       155.8423 
 930   0.0000       5.738434       156.1507 
 931   0.0000       5.754677       156.5927 
 932   0.0000       5.764118       156.8496 
 933   0.0000       5.775237       157.1522 
 934   0.0000       5.792207       157.6140 
 935   0.0000       5.807104       158.0193 
 936   0.0000       5.816434       158.2732 
 937   0.0000       5.820384       158.3807 
 938   0.0000       5.844068       159.0252 
 939   0.0000       5.853289       159.2761 
 940   0.0000       5.869610       159.7202 
 941   0.0000       5.899113       160.5230 
 942   0.0000       5.907153       160.7418 
 943   0.0000       5.944404       161.7554 
 944   0.0000       5.961040       162.2081 
 945   0.0000       5.968277       162.4051 
 946   0.0000       5.986307       162.8957 
 947   0.0000       6.059797       164.8955 
 948   0.0000       6.104098       166.1009 
 949   0.0000       6.123258       166.6223 
 950   0.0000       6.150566       167.3654 
 951   0.0000       6.168307       167.8482 
 952   0.0000       6.193174       168.5248 
 953   0.0000       6.203294       168.8002 
 954   0.0000       6.219868       169.2512 
 955   0.0000       6.244053       169.9093 
 956   0.0000       6.258182       170.2938 
 957   0.0000       6.260389       170.3538 
 958   0.0000       6.281897       170.9391 
 959   0.0000       6.296602       171.3392 
 960   0.0000       6.299740       171.4246 
 961   0.0000       6.311660       171.7490 
 962   0.0000       6.340176       172.5250 
 963   0.0000       6.357841       173.0056 
 964   0.0000       6.372702       173.4100 
 965   0.0000       6.396517       174.0581 
 966   0.0000       6.420305       174.7054 
 967   0.0000       6.442520       175.3099 
 968   0.0000       6.461325       175.8216 
 969   0.0000       6.509308       177.1273 
 970   0.0000       6.557575       178.4407 
 971   0.0000       6.712155       182.6470 
 972   0.0000       6.801372       185.0747 
 973   0.0000       6.860763       186.6908 
 974   0.0000       6.882197       187.2741 
 975   0.0000       6.918151       188.2525 
 976   0.0000       6.935879       188.7349 
 977   0.0000       6.953949       189.2266 
 978   0.0000       6.971012       189.6909 
 979   0.0000       7.003538       190.5760 
 980   0.0000       7.013254       190.8403 
 981   0.0000       7.040793       191.5897 
 982   0.0000       7.077727       192.5947 
 983   0.0000       7.079924       192.6545 
 984   0.0000       7.168659       195.0691 
 985   0.0000       7.288253       198.3235 
 986   0.0000       7.312767       198.9905 
 987   0.0000       7.399412       201.3482 
 988   0.0000       7.424189       202.0224 
 989   0.0000       7.492889       203.8919 
 990   0.0000       7.565991       205.8811 
 991   0.0000       7.615161       207.2191 
 992   0.0000       7.683581       209.0809 
 993   0.0000       7.786599       211.8841 
 994   0.0000       7.811993       212.5751 
 995   0.0000       7.912242       215.3030 
 996   0.0000       8.063539       219.4200 
 997   0.0000       8.152910       221.8520 
 998   0.0000       8.357538       227.4202 
 999   0.0000       9.448286       257.1009 
 1000   0.0000       9.460401       257.4306 
 1001   0.0000       9.475182       257.8328 
 1002   0.0000       9.483386       258.0560 
 1003   0.0000       9.487482       258.1675 
 1004   0.0000       9.522393       259.1175 
 1005   0.0000       9.767761       265.7943 
 1006   0.0000      10.110303       275.1153 
 1007   0.0000      10.129118       275.6273 
 1008   0.0000      10.155117       276.3348 
 1009   0.0000      10.230666       278.3906 
 1010   0.0000      10.236437       278.5476 
 1011   0.0000      10.263458       279.2829 
 1012   0.0000      10.409926       283.2685 
 1013   0.0000      10.436349       283.9875 
 1014   0.0000      10.568666       287.5880 
 1015   0.0000      16.404833       446.3982 
 1016   0.0000      17.607769       479.1318 
 1017   0.0000      18.158196       494.1096 
 1018   0.0000      18.394196       500.5315 
 1019   0.0000      18.775796       510.9154 
 1020   0.0000      19.064327       518.7667 
 1021   0.0000      19.115137       520.1493 
 1022   0.0000      19.543292       531.8000 
 1023   0.0000      20.435254       556.0715 
 1024   0.0000      21.877926       595.3286 

                 SPIN DOWN ORBITALS
  NO   OCC          E(Eh)            E(eV) 
   0   1.0000    -261.539606     -7116.8545 
   1   1.0000    -104.768582     -2850.8980 
   2   1.0000    -104.766955     -2850.8538 
   3   1.0000    -104.765625     -2850.8176 
   4   1.0000     -32.048996      -872.0975 
   5   1.0000     -27.527045      -749.0490 
   6   1.0000     -27.526907      -749.0452 
   7   1.0000     -27.526460      -749.0331 
   8   1.0000     -20.540331      -558.9308 
   9   1.0000     -11.384459      -309.7869 
  10   1.0000     -11.363866      -309.2265 
  11   1.0000     -11.300611      -307.5053 
  12   1.0000     -11.287573      -307.1505 
  13   1.0000     -11.273573      -306.7695 
  14   1.0000     -11.252941      -306.2081 
  15   1.0000     -11.249060      -306.1025 
  16   1.0000     -11.239897      -305.8531 
  17   1.0000     -10.495098      -285.5861 
  18   1.0000     -10.493439      -285.5410 
  19   1.0000     -10.492138      -285.5056 
  20   1.0000      -7.960992      -216.6296 
  21   1.0000      -7.960428      -216.6143 
  22   1.0000      -7.960354      -216.6122 
  23   1.0000      -7.959405      -216.5864 
  24   1.0000      -7.958745      -216.5685 
  25   1.0000      -7.958639      -216.5656 
  26   1.0000      -7.958074      -216.5502 
  27   1.0000      -7.957411      -216.5322 
  28   1.0000      -7.957330      -216.5300 
  29   1.0000      -4.124209      -112.2254 
  30   1.0000      -2.646044       -72.0025 
  31   1.0000      -2.645987       -72.0010 
  32   1.0000      -2.645114       -71.9772 
  33   1.0000      -1.368407       -37.2363 
  34   1.0000      -1.194405       -32.5014 
  35   1.0000      -1.080628       -29.4054 
  36   1.0000      -1.045578       -28.4516 
  37   1.0000      -1.026699       -27.9379 
  38   1.0000      -1.016366       -27.6567 
  39   1.0000      -1.015005       -27.6197 
  40   1.0000      -1.013611       -27.5818 
  41   1.0000      -0.972198       -26.4549 
  42   1.0000      -0.930825       -25.3290 
  43   1.0000      -0.802173       -21.8282 
  44   1.0000      -0.775499       -21.1024 
  45   1.0000      -0.708735       -19.2857 
  46   1.0000      -0.694476       -18.8977 
  47   1.0000      -0.672401       -18.2970 
  48   1.0000      -0.657817       -17.9001 
  49   1.0000      -0.649462       -17.6727 
  50   1.0000      -0.633345       -17.2342 
  51   1.0000      -0.605526       -16.4772 
  52   1.0000      -0.601139       -16.3578 
  53   1.0000      -0.589881       -16.0515 
  54   1.0000      -0.583060       -15.8659 
  55   1.0000      -0.573959       -15.6182 
  56   1.0000      -0.562703       -15.3119 
  57   1.0000      -0.556888       -15.1537 
  58   1.0000      -0.537443       -14.6246 
  59   1.0000      -0.535486       -14.5713 
  60   1.0000      -0.514022       -13.9872 
  61   1.0000      -0.497539       -13.5387 
  62   1.0000      -0.465126       -12.6567 
  63   1.0000      -0.460555       -12.5323 
  64   1.0000      -0.451302       -12.2805 
  65   1.0000      -0.431509       -11.7420 
  66   1.0000      -0.429580       -11.6895 
  67   1.0000      -0.427027       -11.6200 
  68   1.0000      -0.425791       -11.5864 
  69   1.0000      -0.406230       -11.0541 
  70   1.0000      -0.394576       -10.7369 
  71   1.0000      -0.393007       -10.6943 
  72   0.0000       0.002747         0.0748 
  73   0.0000       0.004097         0.1115 
  74   0.0000       0.017716         0.4821 
  75   0.0000       0.018648         0.5074 
  76   0.0000       0.027705         0.7539 
  77   0.0000       0.037893         1.0311 
  78   0.0000       0.038282         1.0417 
  79   0.0000       0.040840         1.1113 
  80   0.0000       0.044217         1.2032 
  81   0.0000       0.048539         1.3208 
  82   0.0000       0.057442         1.5631 
  83   0.0000       0.058039         1.5793 
  84   0.0000       0.060267         1.6399 
  85   0.0000       0.062118         1.6903 
  86   0.0000       0.064070         1.7434 
  87   0.0000       0.073035         1.9874 
  88   0.0000       0.074151         2.0178 
  89   0.0000       0.080634         2.1942 
  90   0.0000       0.087037         2.3684 
  91   0.0000       0.090008         2.4492 
  92   0.0000       0.091913         2.5011 
  93   0.0000       0.093238         2.5371 
  94   0.0000       0.096766         2.6331 
  95   0.0000       0.100856         2.7444 
  96   0.0000       0.105620         2.8741 
  97   0.0000       0.113869         3.0985 
  98   0.0000       0.114710         3.1214 
  99   0.0000       0.120664         3.2834 
 100   0.0000       0.122451         3.3321 
 101   0.0000       0.126113         3.4317 
 102   0.0000       0.130073         3.5395 
 103   0.0000       0.131298         3.5728 
 104   0.0000       0.131809         3.5867 
 105   0.0000       0.133550         3.6341 
 106   0.0000       0.134745         3.6666 
 107   0.0000       0.136627         3.7178 
 108   0.0000       0.139331         3.7914 
 109   0.0000       0.141620         3.8537 
 110   0.0000       0.143404         3.9022 
 111   0.0000       0.146623         3.9898 
 112   0.0000       0.147903         4.0246 
 113   0.0000       0.152791         4.1577 
 114   0.0000       0.154803         4.2124 
 115   0.0000       0.157102         4.2750 
 116   0.0000       0.159141         4.3304 
 117   0.0000       0.161161         4.3854 
 118   0.0000       0.162767         4.4291 
 119   0.0000       0.164662         4.4807 
 120   0.0000       0.165407         4.5010 
 121   0.0000       0.170819         4.6482 
 122   0.0000       0.175905         4.7866 
 123   0.0000       0.176965         4.8155 
 124   0.0000       0.180406         4.9091 
 125   0.0000       0.185306         5.0424 
 126   0.0000       0.189613         5.1596 
 127   0.0000       0.189905         5.1676 
 128   0.0000       0.197145         5.3646 
 129   0.0000       0.205448         5.5905 
 130   0.0000       0.205681         5.5969 
 131   0.0000       0.209705         5.7064 
 132   0.0000       0.216697         5.8966 
 133   0.0000       0.219081         5.9615 
 134   0.0000       0.221220         6.0197 
 135   0.0000       0.221936         6.0392 
 136   0.0000       0.225687         6.1413 
 137   0.0000       0.228771         6.2252 
 138   0.0000       0.229804         6.2533 
 139   0.0000       0.233750         6.3607 
 140   0.0000       0.238106         6.4792 
 141   0.0000       0.240234         6.5371 
 142   0.0000       0.244328         6.6485 
 143   0.0000       0.247981         6.7479 
 144   0.0000       0.250027         6.8036 
 145   0.0000       0.252877         6.8811 
 146   0.0000       0.258359         7.0303 
 147   0.0000       0.261880         7.1261 
 148   0.0000       0.266414         7.2495 
 149   0.0000       0.270890         7.3713 
 150   0.0000       0.276889         7.5345 
 151   0.0000       0.279010         7.5922 
 152   0.0000       0.283386         7.7113 
 153   0.0000       0.287497         7.8232 
 154   0.0000       0.293181         7.9779 
 155   0.0000       0.295375         8.0376 
 156   0.0000       0.297924         8.1069 
 157   0.0000       0.301686         8.2093 
 158   0.0000       0.304494         8.2857 
 159   0.0000       0.312315         8.4985 
 160   0.0000       0.313646         8.5347 
 161   0.0000       0.317068         8.6279 
 162   0.0000       0.319199         8.6858 
 163   0.0000       0.325172         8.8484 
 164   0.0000       0.328784         8.9467 
 165   0.0000       0.331492         9.0203 
 166   0.0000       0.334575         9.1043 
 167   0.0000       0.337582         9.1861 
 168   0.0000       0.343098         9.3362 
 169   0.0000       0.344240         9.3673 
 170   0.0000       0.348492         9.4830 
 171   0.0000       0.353048         9.6069 
 172   0.0000       0.354698         9.6518 
 173   0.0000       0.357038         9.7155 
 174   0.0000       0.360108         9.7990 
 175   0.0000       0.364327         9.9138 
 176   0.0000       0.370086        10.0706 
 177   0.0000       0.370704        10.0874 
 178   0.0000       0.374980        10.2037 
 179   0.0000       0.377547        10.2736 
 180   0.0000       0.383293        10.4299 
 181   0.0000       0.388508        10.5718 
 182   0.0000       0.390870        10.6361 
 183   0.0000       0.394198        10.7267 
 184   0.0000       0.398750        10.8505 
 185   0.0000       0.399954        10.8833 
 186   0.0000       0.403295        10.9742 
 187   0.0000       0.405480        11.0337 
 188   0.0000       0.410749        11.1770 
 189   0.0000       0.411157        11.1882 
 190   0.0000       0.414601        11.2819 
 191   0.0000       0.416677        11.3384 
 192   0.0000       0.419986        11.4284 
 193   0.0000       0.428717        11.6660 
 194   0.0000       0.431374        11.7383 
 195   0.0000       0.433918        11.8075 
 196   0.0000       0.438751        11.9390 
 197   0.0000       0.441371        12.0103 
 198   0.0000       0.445220        12.1150 
 199   0.0000       0.449883        12.2419 
 200   0.0000       0.452683        12.3181 
 201   0.0000       0.454964        12.3802 
 202   0.0000       0.462215        12.5775 
 203   0.0000       0.464253        12.6330 
 204   0.0000       0.469162        12.7665 
 205   0.0000       0.471526        12.8309 
 206   0.0000       0.473273        12.8784 
 207   0.0000       0.477749        13.0002 
 208   0.0000       0.480551        13.0765 
 209   0.0000       0.481008        13.0889 
 210   0.0000       0.487702        13.2710 
 211   0.0000       0.491642        13.3783 
 212   0.0000       0.494445        13.4545 
 213   0.0000       0.498123        13.5546 
 214   0.0000       0.502651        13.6778 
 215   0.0000       0.504599        13.7308 
 216   0.0000       0.505663        13.7598 
 217   0.0000       0.507132        13.7998 
 218   0.0000       0.512818        13.9545 
 219   0.0000       0.515200        14.0193 
 220   0.0000       0.517229        14.0745 
 221   0.0000       0.523889        14.2557 
 222   0.0000       0.526480        14.3262 
 223   0.0000       0.529652        14.4126 
 224   0.0000       0.532296        14.4845 
 225   0.0000       0.534717        14.5504 
 226   0.0000       0.538513        14.6537 
 227   0.0000       0.543445        14.7879 
 228   0.0000       0.543702        14.7949 
 229   0.0000       0.546364        14.8673 
 230   0.0000       0.549144        14.9430 
 231   0.0000       0.552549        15.0356 
 232   0.0000       0.555240        15.1088 
 233   0.0000       0.559412        15.2224 
 234   0.0000       0.562990        15.3197 
 235   0.0000       0.566620        15.4185 
 236   0.0000       0.574788        15.6408 
 237   0.0000       0.576223        15.6798 
 238   0.0000       0.578568        15.7436 
 239   0.0000       0.585835        15.9414 
 240   0.0000       0.586553        15.9609 
 241   0.0000       0.588134        16.0040 
 242   0.0000       0.592513        16.1231 
 243   0.0000       0.597925        16.2704 
 244   0.0000       0.602205        16.3868 
 245   0.0000       0.602479        16.3943 
 246   0.0000       0.608039        16.5456 
 247   0.0000       0.611199        16.6316 
 248   0.0000       0.615496        16.7485 
 249   0.0000       0.620380        16.8814 
 250   0.0000       0.621833        16.9209 
 251   0.0000       0.625945        17.0328 
 252   0.0000       0.630173        17.1479 
 253   0.0000       0.632265        17.2048 
 254   0.0000       0.634350        17.2615 
 255   0.0000       0.641809        17.4645 
 256   0.0000       0.651244        17.7212 
 257   0.0000       0.654488        17.8095 
 258   0.0000       0.656596        17.8669 
 259   0.0000       0.661258        17.9938 
 260   0.0000       0.665429        18.1072 
 261   0.0000       0.670547        18.2465 
 262   0.0000       0.677497        18.4356 
 263   0.0000       0.680458        18.5162 
 264   0.0000       0.685749        18.6602 
 265   0.0000       0.689234        18.7550 
 266   0.0000       0.693457        18.8699 
 267   0.0000       0.696103        18.9419 
 268   0.0000       0.699107        19.0237 
 269   0.0000       0.705000        19.1840 
 270   0.0000       0.707682        19.2570 
 271   0.0000       0.712058        19.3761 
 272   0.0000       0.715034        19.4571 
 273   0.0000       0.719854        19.5882 
 274   0.0000       0.723390        19.6844 
 275   0.0000       0.729566        19.8525 
 276   0.0000       0.731094        19.8941 
 277   0.0000       0.736303        20.0358 
 278   0.0000       0.743735        20.2381 
[...]
  | sigma^2 in % of trace(Dij) retained ...   8.67e+00
  | sigma^2 in % of trace(Dip) retained ...   1.77e+01
  | sigma^2 in % of trace(Dpq) retained ...   1.40e-01
  | Av. % of trace(Di) retained         ...  99.998485162342
  | Av. % of trace(Dp) retained         ...  99.999997228062
  | sigma^2 in % of trace(Di) retained  ...   7.95e-07
  | sigma^2 in % of trace(Dp) retained  ...   6.96e-12
 Distributions of % trace(Dij) recovered:
  |       >= 99.9  ...   105 ( 20.8 % of all IJ-pairs)
  |   [80.0, 90.0) ...    34 (  6.7 % of all IJ-pairs)
  |   [90.0, 99.0) ...   271 ( 53.8 % of all IJ-pairs)
  |   [99.0, 99.9) ...    94 ( 18.7 % of all IJ-pairs)
 Distributions of % trace(Dip) recovered:
  |   [80.0, 90.0) ...    12 ( 10.2 % of all IP-pairs)
  |   [90.0, 99.0) ...    64 ( 54.2 % of all IP-pairs)
  |   [99.0, 99.9) ...    42 ( 35.6 % of all IP-pairs)
 Distributions of % trace(Dpq) recovered:
  |       >= 99.9  ...     5 ( 33.3 % of all PQ-pairs)
  |   [99.0, 99.9) ...    10 ( 66.7 % of all PQ-pairs)
 Distributions of % trace(Di) recovered :
  |       >= 99.9  ...    43 (100.0 % of all I-pairs )
 Distributions of % trace(Dp) recovered :
  |       >= 99.9  ...     5 (100.0 % of all P-pairs )

                       ===========================
                       1108 OF 1665 PAIRS ARE KEPT
                       ===========================

 Initial PAO correlation energy (all pairs)    ...  -2.6969850485 Eh
 Energy constituents in PAO basis (Eh):
  | Vijab(+0) ...  -2.2675717612
  | Viab (-1) ...  -0.1753538679
  | Vab  (-2) ...  -0.0573697752
  | Va   (-1) ...  -0.0000420041
  | Vija (+1) ...  -0.0727504919
  | Vij  (+2) ...  -0.0155038307
  | Via  (+0) ...  -0.1082339626
  | Vi   (+1) ...  -0.0001593548
 Initial PNO correlation energy                ...  -2.6628065438 Eh
 Energy constituents in PNO basis (Eh):
  | Vijab(+0) ...  -2.2493258862 (err=  0.0182458750)
  | Viab (-1) ...  -0.1610574501 (err=  0.0142964178)
  | Vab  (-2) ...  -0.0568972481 (err=  0.0004725271)
  | Va   (-1) ...  -0.0000241557 (err=  0.0000178483)
  | Vija (+1) ...  -0.0717541129 (err=  0.0009963791)
  | Vij  (+2) ...  -0.0154532435 (err=  0.0000505872)
  | Via  (+0) ...  -0.1081354165 (err=  0.0000985461)
  | Vi   (+1) ...  -0.0001590307 (err=  0.0000003241)
 Sum of total truncation errors ...   0.0341785047 Eh
  | Pair screening ...   0.0109498215 Eh
  | PNO truncation ...   0.0232286832 Eh

 UMP2 correlation energy (PAO) ...  -2.6920757174
  | alpha-alpha ...  -0.3876336226 (NP_aa=  902)
  | alpha-beta  ...  -1.9963644543 (NP_ab= 1640)
  | beta -beta  ...  -0.3080776406 (NP_bb=  705)
 UMP2 correlation energy (PNO) ...  -2.6575185164
  | alpha-alpha ...  -0.3756350875 (err=  0.0119985351, NP_aa=  589)
  | alpha-beta  ...  -1.9777413927 (err=  0.0186230616, NP_ab= 1083)
  | beta -beta  ...  -0.3041420361 (err=  0.0039356044, NP_bb=  461)
 Sum of total UMP2 truncation errors ...   0.0345572011 Eh
  | Pair screening ...   0.0109650125 Eh
  | PNO truncation ...   0.0235921886 Eh
 Timing for NEV-PNO construction (sec.)
  | Intermediate construction  ..           48.016
  | Amplitude construction     ..           68.311
  | Total time                 ..          116.327
 Making pair pair interaction lists ...      ok
 Total size for 2-ext PNO integrals ...     11.1 MB
Checking the number of SOMO/SOMO doubles PNOs ... 
 #Truncate: (72, 72)[167] -> [86] .. 
 #Truncate: (73, 73)[169] -> [86] .. 
 #Truncate: (74, 74)[168] -> [86] .. 
 #Truncate: (75, 75)[169] -> [86] .. 
 #Truncate: (76, 76)[171] -> [86] .. 

--------------------------------
LOCAL RI TRANSFORMATION (VABPAO)
--------------------------------

Number of PAOs:    1030
Basis functions:   1025 (343 shells)
Aux. functions:    2424 (644 shells)

Processing maps (0.0 sec)
Average map sizes:
   Aux shells -> PAOs           1030.0
   PAOs       -> AO shells       343.0

Calculating integrals (249.6 sec, 37370.165 MB)
Finished
-----------------------------
LOCAL RI TRANSFORMATION (IJV)
-----------------------------

Orbital window:      29 to 76
Basis functions:   1025 (343 shells)
Aux. functions:    2424 (644 shells)

Processing maps (0.0 sec)
Average map sizes:
   Aux shells -> MOs(i)           45.5
   Aux shells -> MOs(j)           48.0
   MOs        -> AO shells       339.2

Calculating integrals (23.2 sec, 40.498 MB)
Sorting integrals (0.4 sec, 40.471 MB)
Total time for the integral transformation: 23.7 sec


-------------------------------------
Pair Pair Term precalculation with     
RI-(ij|mn) and (im|jn) transformation  
ON THE FLY                             
-------------------------------------

   IBatch   1 (of   2)              ... done ( 1353.102 sec)
   IBatch   2 (of   2)              ... done ( 1367.353 sec)
Total EXT                           ...        2720.455 sec

---------------------
RI-PNO TRANSFORMATION
---------------------

Total Number of PNOs                   ... 34985
Total Number of IJ-PNOs                ... 30805
Total Number of IP-PNOs                ...  3226
Total Number of PQ-PNOs                ...   954
Total Number of IJ-pairs               ...   965
Total Number of PI-pairs               ...   118
Total Number of PQ-pairs               ...    25
Average number of PNOs per pair        ...    31
Maximal number of PNOs per pair        ...    86
>> Statistics for ij-pairs..
   #pairs with  1 -  5 PNOs   :    0
   #pairs with  6 - 10 PNOs   :    0
   #pairs with 11 - 15 PNOs   :   40
   #pairs with 16 - 20 PNOs   :  226
   #pairs with 21 - 25 PNOs   :  174
   #pairs with 26 - 30 PNOs   :  160
   #pairs with 31 - 35 PNOs   :   66
   #pairs with 36 - 40 PNOs   :   48
   #pairs with 41 - 45 PNOs   :   58
   #pairs with 46 - 50 PNOs   :   19
   #pairs with 51 - 55 PNOs   :   38
   #pairs with 56 - 60 PNOs   :   51
   #pairs with 61 - 65 PNOs   :   74
   #pairs with 66 - 70 PNOs   :    8
   #pairs with 71 - 75 PNOs   :    3
>> Statistics for ip-pairs..
   #pairs with  1 -  5 PNOs   :    0
   #pairs with  6 - 10 PNOs   :    2
   #pairs with 11 - 15 PNOs   :   15
   #pairs with 16 - 20 PNOs   :    4
   #pairs with 21 - 25 PNOs   :   26
   #pairs with 26 - 30 PNOs   :   10
   #pairs with 31 - 35 PNOs   :   51
   #pairs with 36 - 40 PNOs   :   10
   #pairs with 41 - 45 PNOs   :    0
   #pairs with 46 - 50 PNOs   :    0
>> Statistics for pq-pairs..
   #pairs with  1 -  5 PNOs   :    0
   #pairs with  6 - 10 PNOs   :    0
   #pairs with 11 - 15 PNOs   :    0
   #pairs with 16 - 20 PNOs   :    0
   #pairs with 21 - 25 PNOs   :   12
   #pairs with 26 - 30 PNOs   :    8
   #pairs with 31 - 35 PNOs   :    0
   #pairs with 36 - 40 PNOs   :    0
   #pairs with 41 - 45 PNOs   :    0
   #pairs with 46 - 50 PNOs   :    0
   #pairs with 86 - 90 PNOs   :    5

Generation of (ij|ab)[P] integrals            ... on
Generation of (ia|bc)[P],(ja|bc)[P] integrals ... on
Storage of 3 and 4 external integrals         ... on
Generation of ALL (ka|bc)[P] integrals        ... on
Keep RI integrals in memory                   ... off

Ibatch:  1 (of  1)
Starting 2-4 index PNO integral generation ... done

Timings:
Total PNO integral transformation time     ...       2122.968 sec
Size of the 3-external file                ...       292 MB
Size of the 4-external file                ...      1990 MB
Size of the IKJL file                      ...        18 MB
Size of the all 3-external file            ...      7028 MB
Size of the 1-external file                ...        22 MB

Size of the PAO/PNO coefficient matrices   ...     227.3 MB

Making pair/pair overlap matrices          ... done (  327.724 sec)
Size of the pair overlap file              ...    2494.0 MB
Total # unrestricted pairs ...       2133
  # of alpha-alpha pairs   ...        589
  # of alpha-beta pairs    ...       1083
  # of beta-beta pairs     ...        461
Constructing the guess amplitudes          ... done (    0.606 sec)

-------------------------
FINAL STARTUP INFORMATION
-------------------------

E(0)                                       ...  -3028.426489656
E(SL-UMP2 in NEV-PNO space)                ...     -2.693068541
Initial E(tot)                             ...  -3031.119558196
<T|T>                                      ...      0.535365397
Number of unrestricted pairs included      ... 2133
Total number of pairs                      ... 4095
----------------------------------------------------------
                     OPEN-SHELL COUPLED CLUSTER ITERATIONS
----------------------------------------------------------

Number of PNO amplitudes to be optimized        ...          2164475
Number of canonical amplitudes for strong pairs ...       1926537340
Untruncated number of canonical amplitudes      ...       3698645738

Iter       E(tot)           E(Corr)          Delta-E          Residual     Time
  0  -3031.126750640     -2.664710960      0.028357580      0.021202621 1952.22
                           *** Turning on DIIS ***
  1  -3031.238327469     -2.776287789     -0.111576828      0.009096539 2109.33
  2  -3031.302447567     -2.840407887     -0.064120098      0.008396663 2108.87
  3  -3031.323348052     -2.861308372     -0.020900486      0.003306611 2109.45
  4  -3031.330451851     -2.868412171     -0.007103799      0.002666356 2116.83
  5  -3031.334174143     -2.872134463     -0.003722292      0.001960726 2125.87
  6  -3031.335545184     -2.873505504     -0.001371041      0.000900692 2125.61
  7  -3031.336332049     -2.874292369     -0.000786865      0.000414349 2127.31
  8  -3031.336488741     -2.874449061     -0.000156692      0.000198586 2132.02
  9  -3031.336536408     -2.874496728     -0.000047666      0.000126674 2133.21
 10  -3031.336531902     -2.874492222      0.000004506      0.000096361 2128.28
 11  -3031.336542554     -2.874502874     -0.000010652      0.000064884 2132.47
 12  -3031.336548676     -2.874508996     -0.000006122      0.000033991 2133.31
 13  -3031.336550912     -2.874511232     -0.000002236      0.000017860 2120.89
 14  -3031.336551507     -2.874511827     -0.000000595      0.000009346 2115.56
               --- The CCSD iterations have converged ---

E(0)                                       ...  -3028.426489656
E(CORR)(strong-pairs)                      ...     -2.874511827
E(CORR)(weak-pairs)                        ...     -0.035550024
E(CORR)(corrected)                         ...     -2.910061851
E(TOT)                                     ...  -3031.336551507
Singles norm <S|S>**1/2                    ...      0.196597685 ( 0.069679136, 0.126918548)  
T1 diagnostic                              ...      0.020609037                              
<S**2>(linearized)                         ...      8.7507513 (ideal value:      8.7500000)

----------------------
LARGEST PNO AMPLITUDES
----------------------
  71a-> 77a  71b-> 77b       0.057993
  50b-> 73b  -1b-> -1b       0.055119
  51b-> 73b  -1b-> -1b       0.050194
  71a-> 78a  71b-> 78b       0.049201
  48b-> 72b  -1b-> -1b       0.048831
  48b-> 74b  -1b-> -1b       0.045968
  62a-> 77a  62b-> 77b       0.044918
  30a-> 77a  -1a-> -1a       0.044853
  71a-> 77a  -1a-> -1a       0.044771
  66a-> 77a  66b-> 77b       0.044343
  30b-> 77b  -1b-> -1b       0.044307
  48b-> 75b  -1b-> -1b       0.044108
  68a-> 77a  68b-> 77b       0.043626
  58a-> 77a  58b-> 77b       0.043161
  61a-> 77a  61b-> 77b       0.042756
  70a-> 77a  70b-> 77b       0.042747

Total # unrestricted pairs ...       1114
  # of alpha-alpha pairs   ...        313
  # of alpha-beta pairs    ...        557
  # of beta-beta pairs     ...        244

-------------------------------------------
DLPNO BASED TRIPLES CORRECTION
-------------------------------------------

Singles multiplier          ...  1.000000
Fragment selection                          .... not used
TCutTNO                     ... 1.000e-09
TCutMP2Pairs                ... 1.000e-05
TCutDOStrong                ... 2.000e-02
TCutMKNStrong               ... 1.000e-02
TCutDOWeak                  ... 4.000e-02
TCutMKNWeak                 ... 1.000e-01
NTCutTNO                    ... 1

Number of Triples that are to be computed         ...     33640

 . . . . . . . . .
10% done  
20% done  
30% done  
40% done  
50% done  
60% done  
70% done  
80% done  
90% done  
          Batch   1   done (  18376.372 sec)

Triples-Correction TCutTNO=   1.000e-09 (NWeakPairs = 0  1  2  3)  -0.117924500799   -0.001849217341    0.000000000000    0.000000000000
Triples-Correction  -0.119773718140

Triples timings:
Total time                      ... 19056.018 sec

Triples List generation         ...     0.000 sec
TNO generation                  ...   679.098 sec
Pair density generation         ...     0.102 sec
Look up tables                  ...     0.110 sec
Generating 3-index integrals    ... 12609.093 sec
Make 4-ind.int. from 3-ind.int  ...     3.818 sec
Projecting amplitudes (D + S)   ...  5507.877 sec
Sorting integrals for spin cases...    52.986 sec
Calculate W0/W1                 ...   162.890 sec
Energy contr. (sum over a,b,c)  ...    39.757 sec

Everything after 3-index        ...  5911.773 sec

Energy contribution AAA         ...    25.212 sec
Energy contribution AAB         ...   113.407 sec
Energy contribution ABB         ...   103.238 sec
Energy contribution BBB         ...    13.812 sec
prep                ...     3.241 sec
makeTTNO            ...  5450.417 sec
copyij              ...     0.129 sec
copyil              ...     4.041 sec
transposeij         ...     0.078 sec
newMatInDoubleProj  ...    52.805 sec
BlasInDoubleProj    ...  2949.071 sec
ProjSingles         ...    47.400 sec
ProjDoubles         ...  5460.476 sec
overall Doubles for projection      ... 2998650
used Doubles for projection         ... 2998650


Number of Triples   (0, 1, 2, 3 weak pairs; overall):  16904   10960       0       0  ( 27864)
Number of Atoms     (0, 1, 2, 3 weak pairs; overall):   19.5    15.3     0.0     0.0  (    29)
Number of PAOs      (0, 1, 2, 3 weak pairs; overall):  756.5   614.8     0.0     0.0  (  1025)
Number of AuxFcns   (0, 1, 2, 3 weak pairs; overall):  978.7   577.1     0.0     0.0  (  2424)
Number of TNOs (0, 1, 2, 3 weak pairs         ):   80.2    57.7     0.0     0.0
Aver. Number of NTNO, Atoms, PAOs, AuxFcns / Triples:  27864    71.3    17.8   700.8   820.7

Triples Correction (T)                     ...     -0.119773718
    alpha-alpha-alpha ... -0.003963107 (  3.3%)
    alpha-alpha-beta  ... -0.056207669 ( 46.9%)
    alpha-beta -beta  ... -0.055435434 ( 46.3%)
    beta -beta -beta  ... -0.004167508 (  3.5%)
Final correlation energy                   ...     -3.029835569
E(CCSD)                                    ...  -3031.336551507
E(CCSD(T))                                 ...  -3031.456325225

----------------------------
STATISTICS FOR PAIR-ENERGIES
----------------------------
Minimum, maximum and average ratios of UMP and CCSD pair-energies ... 0.52, 1.42, 1.02


------------------------------------------------------------------------------- 
                                     TIMINGS                                   
------------------------------------------------------------------------------- 


Total execution time                   ...    59912.879 sec

Localization of occupied MO's          ...      124.022 sec (  0.2%)
Fock Matrix Formation                  ...     1361.912 sec (  2.3%)
Differential overlap integrals         ...        1.461 sec (  0.0%)
Organizing maps                        ...        1.676 sec (  0.0%)
RI 3-index integral generations        ...      335.826 sec (  0.6%)
RI-PNO integral transformation         ...     5546.926 sec (  9.3%)
Initial Guess                          ...     1947.276 sec (  3.3%)
DIIS Solver                            ...       19.553 sec (  0.0%)
State Vector Update                    ...        0.813 sec (  0.0%)
Sigma-vector construction              ...    31671.218 sec ( 52.9%)
  <0|H|D>                              ...        0.030 sec (  0.0% of sigma)
  <D|H|D>(0-ext)                       ...     5872.699 sec ( 18.5% of sigma)
  <D|H|D>(2-ext Fock)                  ...        1.770 sec (  0.0% of sigma)
  <D|H|D>(2-ext)                       ...     4383.434 sec ( 13.8% of sigma)
  <D|H|D>(4-ext)                       ...      152.716 sec (  0.5% of sigma)
  <D|H|D>(4-ext-corr)                  ...      967.316 sec (  3.1% of sigma)
  CCSD doubles correction              ...      600.757 sec (  1.9% of sigma)
  <S|H|S>                              ...      844.511 sec (  2.7% of sigma)
  <S|H|D>(1-ext)                       ...      313.110 sec (  1.0% of sigma)
  <D|H|S>(1-ext)                       ...        0.571 sec (  0.0% of sigma)
  <S|H|D>(3-ext)                       ...       23.033 sec (  0.1% of sigma)
  CCSD singles correction              ...        0.005 sec (  0.0% of sigma)
  Fock-dressing                        ...     9387.729 sec ( 29.6% of sigma)
  Singles amplitudes                   ...      121.455 sec (  0.4% of sigma)
  (ik|jl)-dressing                     ...     7019.929 sec ( 22.2% of sigma)
  (ij|ab),(ia|jb)-dressing             ...     1943.286 sec (  6.1% of sigma)
  Pair energies                        ...        0.150 sec (  0.0% of sigma)
Total Time for computing (T)           ...    19287.504 sec ( 32.2% of ALL)


-------------------------   --------------------
FINAL SINGLE POINT ENERGY     -3031.456325224669
-------------------------   --------------------


                            ***************************************
                            *     ORCA property calculations      *
                            ***************************************

                                    ---------------------
                                    Active property flags
                                    ---------------------
   (+) Dipole Moment


------------------------------------------------------------------------------
                       ORCA ELECTRIC PROPERTIES CALCULATION
------------------------------------------------------------------------------

Dipole Moment Calculation                       ... on
Quadrupole Moment Calculation                   ... off
Polarizability Calculation                      ... off
GBWName                                         ... simple-grid-180-280-b3lyp_d3bj-631gd-gas-singlepoint-DLPNO_CCSD_T1-NormalPNO-augtz-gas.gbw
Electron density file                           ... simple-grid-180-280-b3lyp_d3bj-631gd-gas-singlepoint-DLPNO_CCSD_T1-NormalPNO-augtz-gas.scfp.tmp
The origin for moment calculation is the CENTER OF MASS  = ( 0.322933,  0.046836 -0.007942)

-------------
DIPOLE MOMENT
-------------
                                X             Y             Z
Electronic contribution:     42.42591       6.74146      -1.25271
Nuclear contribution   :    -48.11699      -6.97852       1.18338
                        -----------------------------------------
Total Dipole Moment    :     -5.69108      -0.23706      -0.06933
                        -----------------------------------------
Magnitude (a.u.)       :      5.69643
Magnitude (Debye)      :     14.47918



--------------------
Rotational spectrum 
--------------------
 
Rotational constants in cm-1:     0.019911     0.010352     0.009886 
Rotational constants in MHz :   596.906823   310.351434   296.368287 

 Dipole components along the rotational axes: 
x,y,z [a.u.] :    -5.690956     0.210621    -0.134174 
x,y,z [Debye]:   -14.465262     0.535357    -0.341043 

 

Timings for individual modules:

Sum of individual times         ...    77563.953 sec (=1292.733 min)
GTO integral calculation        ...       12.801 sec (=   0.213 min)   0.0 %
SCF iterations                  ...    17619.718 sec (= 293.662 min)  22.7 %
MDCI module                     ...    59931.434 sec (= 998.857 min)  77.3 %
                             ****ORCA TERMINATED NORMALLY****
TOTAL RUN TIME: 0 days 21 hours 32 minutes 47 seconds 916 msec
