
                                 *****************
                                 * O   R   C   A *
                                 *****************

           --- An Ab Initio, DFT and Semiempirical electronic structure package ---

                  #######################################################
                  #                        -***-                        #
                  #          Department of theory and spectroscopy      #
                  #               Directorship: Frank Neese             #
                  #        Max Planck Institute fuer Kohlenforschung    #
                  #                Kaiser Wilhelm Platz 1               #
                  #                 D-45470 Muelheim/Ruhr               #
                  #                      Germany                        #
                  #                                                     #
                  #                  All rights reserved                #
                  #                        -***-                        #
                  #######################################################


                         Program Version 4.1.2  - RELEASE  -


 With contributions from (in alphabetic order):
   Daniel Aravena         : Magnetic Properties
   Michael Atanasov       : Ab Initio Ligand Field Theory
   Alexander A. Auer      : GIAO ZORA
   Ute Becker             : Parallelization
   Giovanni Bistoni       : ED, Open-shell LED
   Martin Brehm           : Molecular dynamics
   Dmytro Bykov           : SCF Hessian
   Vijay G. Chilkuri      : MRCI spin determinant printing
   Dipayan Datta          : RHF DLPNO-CCSD density
   Achintya Kumar Dutta   : EOM-CC, STEOM-CC
   Dmitry Ganyushin       : Spin-Orbit,Spin-Spin,Magnetic field MRCI
   Miquel Garcia          : C-PCM Hessian
   Yang Guo               : DLPNO-NEVPT2, CIM, IAO-localization
   Andreas Hansen         : Spin unrestricted coupled pair/coupled cluster methods
   Benjamin Helmich-Paris : CASSCF linear response (MC-RPA)
   Lee Huntington         : MR-EOM, pCC
   Robert Izsak           : Overlap fitted RIJCOSX, COSX-SCS-MP3, EOM
   Christian Kollmar      : KDIIS, OOCD, Brueckner-CCSD(T), CCSD density
   Simone Kossmann        : Meta GGA functionals, TD-DFT gradient, OOMP2, MP2 Hessian
   Martin Krupicka        : AUTO-CI
   Lucas Lang             : DCDCAS
   Dagmar Lenk            : GEPOL surface, SMD
   Dimitrios Liakos       : Extrapolation schemes; parallel MDCI
   Dimitrios Manganas     : ROCIS; embedding schemes
   Dimitrios Pantazis     : SARC Basis sets
   Taras Petrenko         : DFT Hessian,TD-DFT gradient, ASA, ECA, R-Raman, ABS, FL, XAS/XES, NRVS
   Peter Pinski           : DLPNO-MP2, DLPNO-MP2 Gradient
   Christoph Reimann      : Effective Core Potentials
   Marius Retegan         : Local ZFS, SOC
   Christoph Riplinger    : Optimizer, TS searches, QM/MM, DLPNO-CCSD(T), (RO)-DLPNO pert. Triples
   Tobias Risthaus        : Range-separated hybrids, TD-DFT gradient, RPA, STAB
   Michael Roemelt        : Restricted open shell CIS
   Masaaki Saitow         : Open-shell DLPNO
   Barbara Sandhoefer     : DKH picture change effects
   Avijit Sen             : IP-ROCIS
   Kantharuban Sivalingam : CASSCF convergence, NEVPT2, FIC-MRCI
   Bernardo de Souza      : ESD, SOC TD-DFT
   Georgi Stoychev        : AutoAux, RI-MP2 NMR
   Willem Van den Heuvel  : Paramagnetic NMR
   Boris Wezisla          : Elementary symmetry handling
   Frank Wennmohs         : Technical directorship


 We gratefully acknowledge several colleagues who have allowed us to
 interface, adapt or use parts of their codes:
   Stefan Grimme, W. Hujo, H. Kruse,             : VdW corrections, initial TS optimization,
                  C. Bannwarth                     DFT functionals, gCP, sTDA/sTD-DF
   Ed Valeev                                     : LibInt (2-el integral package), F12 methods
   Garnet Chan, S. Sharma, J. Yang, R. Olivares  : DMRG
   Ulf Ekstrom                                   : XCFun DFT Library
   Mihaly Kallay                                 : mrcc  (arbitrary order and MRCC methods)
   Andreas Klamt, Michael Diedenhofen            : otool_cosmo (COSMO solvation model)
   Jiri Pittner, Ondrej Demel                    : Mk-CCSD
   Frank Weinhold                                : gennbo (NPA and NBO analysis)
   Christopher J. Cramer and Donald G. Truhlar   : smd solvation model
   Lars Goerigk                                  : TD-DFT with DH, B97 family of functionals
   V. Asgeirsson, H. Jonsson                     : NEB implementation
   FAccTs GmbH                                   : IRC, NEB, NEB-TS, Multilevel


 Your calculation uses the libint2 library for the computation of 2-el integrals
 For citations please refer to: http://libint.valeyev.net

 This ORCA versions uses:
   CBLAS   interface :  Fast vector & matrix operations
   LAPACKE interface :  Fast linear algebra routines
   SCALAPACK package :  Parallel linear algebra routines


----- Orbital basis set information -----
Your calculation utilizes the basis: aug-cc-pVTZ 
    H, B-Ne : Obtained from the ccRepo (grant-hill.group.shef.ac.uk/ccrepo) Feb. 2017
              R. A. Kendall, T. H. Dunning, Jr., R. J. Harrison, J. Chem. Phys. 96, 6796 (1992)
         He : Obtained from the ccRepo (grant-hill.group.shef.ac.uk/ccrepo) Feb. 2017
              D. E. Woon, T. H. Dunning, Jr., J. Chem. Phys. 100, 2975 (1994)
  Li-Be, Na : Obtained from the ccRepo (grant-hill.group.shef.ac.uk/ccrepo) Feb. 2017
              B. P. Prascher, D. E. Woon, K. A. Peterson, T. H. Dunning, Jr., A. K. Wilson, Theor. Chem. Acc. 128, 69 (2011)
         Mg : Obtained from the Peterson Research Group Website (tyr0.chem.wsu.edu/~kipeters) Feb. 2017
              B. P. Prascher, D. E. Woon, K. A. Peterson, T. H. Dunning, Jr., A. K. Wilson, Theor. Chem. Acc. 128, 69 (2011)
      Al-Ar : Obtained from the ccRepo (grant-hill.group.shef.ac.uk/ccrepo) Feb. 2017
              D. E. Woon, T. H. Dunning, Jr., J. Chem. Phys. 98, 1358 (1993)
      Sc-Zn : Obtained from the ccRepo (grant-hill.group.shef.ac.uk/ccrepo) Feb. 2017
              N. B. Balabanov, K. A. Peterson, J. Chem. Phys. 123, 064107 (2005)
              N. B. Balabanov, K. A. Peterson, J. Chem. Phys. 125, 074110 (2006)
      Ga-Kr : Obtained from the ccRepo (grant-hill.group.shef.ac.uk/ccrepo) Feb. 2017
              A. K. Wilson, D. E. Woon, K. A. Peterson, T. H. Dunning, Jr., J. Chem. Phys. 110, 7667 (1999)
     Ag, Au : Obtained from the Peterson Research Group Website (tyr0.chem.wsu.edu/~kipeters) Feb. 2017
              K. A. Peterson, C. Puzzarini, Theor. Chem. Acc. 114, 283 (2005)

----- AuxJ basis set information -----
Your calculation utilizes the AutoAux generation procedure.
  G. L. Stoychev, A. A. Auer, F. Neese, J. Chem. Theory Comput. 13, 554 (2017)

----- AuxC basis set information -----
Your calculation utilizes the auxiliary basis: aug-cc-pVTZ/C 
  H-He, B-F, Al-Ar, Ga-Kr : Obtained from the EMSL Basis Set Exchange (bse.pnl.gov) Feb. 2017
                            F. Weigend, A. Kohn, C. Hattig, J. Chem. Phys. 116, 3175 (2002)
                   Be, Mg : Obtained from the TURBOMOLE 7.0 basis set library
                            C. Haettig, Phys. Chem. Chem. Phys. 7, 59 (2005)
                       Ne : Obtained from the EMSL Basis Set Exchange (bse.pnl.gov) Feb. 2017
                            C. Haettig, Phys. Chem. Chem. Phys. 7, 59 (2005)
                            F. Weigend, A. Kohn, C. Hattig, J. Chem. Phys. 116, 3175 (2002)
                    Sc-Zn : Obtained from the EMSL Basis Set Exchange (bse.pnl.gov) Feb. 2017
                            J. G. Hill, J. A. Platts, J. Chem. Phys. 128, 044104 (2008)

----- AuxJK basis set information -----
Your calculation utilizes the AutoAux generation procedure.
  G. L. Stoychev, A. A. Auer, F. Neese, J. Chem. Theory Comput. 13, 554 (2017)

================================================================================
                                        WARNINGS
                       Please study these warnings very carefully!
================================================================================


WARNING: your system is open-shell and RHF/RKS was chosen
  ===> : WILL SWITCH to UHF/UKS


WARNING: MDCI localization with Augmented Hessian Foster-Boys
  ===> : Switching off randomization!

WARNING: Post HF methods need fully converged wavefunctions
  ===> : Setting SCFConvForced true
         You can overwrite this default with %scf ConvForced false 


INFO   : the flag for use of LIBINT has been found!

================================================================================
                                       INPUT FILE
================================================================================
NAME = simple-grid-165-225-b3lyp_d3bj-631gd-gas-singlepoint-DLPNO_CCSD_T1-NormalPNO-augtz-gas.inp
|  1> ! aug-cc-pVTZ aug-cc-pVTZ/C DLPNO-CCSD(T1) TightSCF NormalPNO UNO MiniPrint AutoAux
|  2> %pal nproc 10 end
|  3> %maxcore 20000
|  4> %mdci
|  5>      density none
|  6> end
|  7> 
|  8> * xyz 0 6
|  9>  O     -0.33976300     -0.29861000     -0.61065000
| 10>  C     -1.44368200     -1.18540800     -0.36632900
| 11>  C     -2.72357200     -0.14645300     -0.29591500
| 12>  C     -2.00211400      1.17046300     -0.23525200
| 13>  C     -1.82496200      1.98589100     -1.44954200
| 14> Fe      1.38055500      0.01584800      0.01109100
| 15> Cl      1.75410700      2.05171300     -0.82067800
| 16>  C     -1.62245400      1.76842100      1.05865900
| 17> Cl      2.67308200     -1.60708300     -0.69909900
| 18> Cl      1.30877600      0.14167100      2.23051200
| 19>  H     -3.23375300     -0.20919000     -1.26136100
| 20>  H     -2.52206000      2.28569500      1.43491700
| 21>  H     -1.33845500      1.02413500      1.80413100
| 22>  H     -0.82405300      2.50516500      0.94687700
| 23>  H     -2.43223500      2.89910800     -1.33872800
| 24>  H     -0.77782500      2.31502300     -1.50957000
| 25>  H     -2.11386100      1.46290900     -2.36113300
| 26>  C     -3.73335400     -0.39315800      0.82570600
| 27>  H     -4.54358100      0.34405500      0.79538100
| 28>  H     -4.18394500     -1.38151900      0.69712800
| 29>  H     -3.27596900     -0.36045300      1.81700200
| 30>  C     -1.24131700     -1.97046000      0.92180000
| 31>  H     -2.07682900     -2.65168700      1.11013500
| 32>  H     -0.33065200     -2.57047300      0.81723200
| 33>  H     -1.10166100     -1.32176200      1.78843400
| 34>  C     -1.59034000     -2.11225400     -1.56468600
| 35>  H     -0.69093100     -2.73134400     -1.64774700
| 36>  H     -2.46157100     -2.76884000     -1.45728600
| 37>  H     -1.68955200     -1.53336200     -2.48771200
| 38> *
| 39> 
| 40> 
| 41>                          ****END OF INPUT****
================================================================================

                       ****************************
                       * Single Point Calculation *
                       ****************************

---------------------------------
CARTESIAN COORDINATES (ANGSTROEM)
---------------------------------
  O     -0.339763   -0.298610   -0.610650
  C     -1.443682   -1.185408   -0.366329
  C     -2.723572   -0.146453   -0.295915
  C     -2.002114    1.170463   -0.235252
  C     -1.824962    1.985891   -1.449542
  Fe     1.380555    0.015848    0.011091
  Cl     1.754107    2.051713   -0.820678
  C     -1.622454    1.768421    1.058659
  Cl     2.673082   -1.607083   -0.699099
  Cl     1.308776    0.141671    2.230512
  H     -3.233753   -0.209190   -1.261361
  H     -2.522060    2.285695    1.434917
  H     -1.338455    1.024135    1.804131
  H     -0.824053    2.505165    0.946877
  H     -2.432235    2.899108   -1.338728
  H     -0.777825    2.315023   -1.509570
  H     -2.113861    1.462909   -2.361133
  C     -3.733354   -0.393158    0.825706
  H     -4.543581    0.344055    0.795381
  H     -4.183945   -1.381519    0.697128
  H     -3.275969   -0.360453    1.817002
  C     -1.241317   -1.970460    0.921800
  H     -2.076829   -2.651687    1.110135
  H     -0.330652   -2.570473    0.817232
  H     -1.101661   -1.321762    1.788434
  C     -1.590340   -2.112254   -1.564686
  H     -0.690931   -2.731344   -1.647747
  H     -2.461571   -2.768840   -1.457286
  H     -1.689552   -1.533362   -2.487712

----------------------------
CARTESIAN COORDINATES (A.U.)
----------------------------
  NO LB      ZA    FRAG     MASS         X           Y           Z
   0 O     8.0000    0    15.999   -0.642059   -0.564291   -1.153961
   1 C     6.0000    0    12.011   -2.728164   -2.240096   -0.692261
   2 C     6.0000    0    12.011   -5.146805   -0.276756   -0.559198
   3 C     6.0000    0    12.011   -3.783447    2.211855   -0.444562
   4 C     6.0000    0    12.011   -3.448678    3.752790   -2.739237
   5 Fe   26.0000    0    55.850    2.608871    0.029948    0.020959
   6 Cl   17.0000    0    35.453    3.314782    3.877176   -1.550857
   7 C     6.0000    0    12.011   -3.065994    3.341831    2.000576
   8 Cl   17.0000    0    35.453    5.051393   -3.036947   -1.321106
   9 Cl   17.0000    0    35.453    2.473228    0.267719    4.215057
  10 H     1.0000    0     1.008   -6.110908   -0.395312   -2.383627
  11 H     1.0000    0     1.008   -4.766003    4.319338    2.711600
  12 H     1.0000    0     1.008   -2.529313    1.935335    3.409313
  13 H     1.0000    0     1.008   -1.557234    4.734076    1.789338
  14 H     1.0000    0     1.008   -4.596258    5.478520   -2.529829
  15 H     1.0000    0     1.008   -1.469876    4.374759   -2.852674
  16 H     1.0000    0     1.008   -3.994618    2.764497   -4.461895
  17 C     6.0000    0    12.011   -7.055017   -0.742961    1.560358
  18 H     1.0000    0     1.008   -8.586124    0.650170    1.503052
  19 H     1.0000    0     1.008   -7.906510   -2.610693    1.317381
  20 H     1.0000    0     1.008   -6.190684   -0.681157    3.433636
  21 C     6.0000    0    12.011   -2.345749   -3.723630    1.741950
  22 H     1.0000    0     1.008   -3.924638   -5.010962    2.097851
  23 H     1.0000    0     1.008   -0.624842   -4.857490    1.544345
  24 H     1.0000    0     1.008   -2.081838   -2.497768    3.379650
  25 C     6.0000    0    12.011   -3.005307   -3.991582   -2.956828
  26 H     1.0000    0     1.008   -1.305670   -5.161492   -3.113791
  27 H     1.0000    0     1.008   -4.651695   -5.232349   -2.753871
  28 H     1.0000    0     1.008   -3.192791   -2.897634   -4.701094



           ************************************************************
           *        Program running with 10 parallel MPI-processes    *
           *              working on a common directory               *
           ************************************************************


           ************************************************************
           *        Program running with 10 parallel MPI-processes    *
           *              working on a common directory               *
           ************************************************************

Diagonalization of the overlap matrix:
Smallest eigenvalue                        ... 6.610e-07
Time for diagonalization                   ...    0.377 sec
Threshold for overlap eigenvalues          ... 1.000e-08
Number of eigenvalues below threshold      ... 0
Time for construction of square roots      ...    0.285 sec
Total time needed                          ...    0.666 sec

-------------------
DFT GRID GENERATION
-------------------

General Integration Accuracy     IntAcc      ...  4.340
Radial Grid Type                 RadialGrid  ... Gauss-Chebyshev
Angular Grid (max. acc.)         AngularGrid ... Lebedev-110
Angular grid pruning method      GridPruning ... 3 (G Style)
Weight generation scheme         WeightScheme... Becke
Basis function cutoff            BFCut       ...    1.0000e-11
Integration weight cutoff        WCut        ...    1.0000e-14
Grids for H and He will be reduced by one unit

# of grid points (after initial pruning)     ...  36112 (   0.0 sec)
# of grid points (after weights+screening)   ...  32276 (   0.1 sec)
nearest neighbour list constructed           ...    0.0 sec
Grid point re-assignment to atoms done       ...    0.0 sec
Grid point division into batches done        ...    0.0 sec
Reduced shell lists constructed in    0.3 sec

Total number of grid points                  ...    32276
Total number of batches                      ...      519
Average number of points per batch           ...       62
Average number of grid points per atom       ...     1113
Average number of shells per batch           ...   293.38 (85.53%)
Average number of basis functions per batch  ...   873.98 (85.27%)
Average number of large shells per batch     ...   242.19 (82.55%)
Average number of large basis fcns per batch ...   720.30 (82.42%)
Maximum spatial batch extension              ...   4.04,  3.25,  3.78 au
Average spatial batch extension              ...   0.17,  0.17,  0.17 au

Time for grid setup =    0.427 sec

Loading Hartree-Fock densities                     ... done
Calculating cut-offs                               ... done
Setting up the integral package                    ... done
Initializing the effective Hamiltonian             ... done
Starting the Coulomb interaction                   ... done (   1.1 sec)
Reading the grid                                   ... done
Mapping shells                                     ... done
Starting the XC term evaluation                    ... done (   0.9 sec)
Transforming the Hamiltonian                       ... done (   0.2 sec)
Diagonalizing the Hamiltonian                      ... done (   0.4 sec)
Back transforming the eigenvectors                 ... done (   0.1 sec)
Now organizing SCF variables                       ... done
--------------
SCF ITERATIONS
--------------
ITER       Energy         Delta-E        Max-DP      RMS-DP      [F,P]     Damp
               ***  Starting incremental Fock matrix formation  ***
  0  -3027.5712357918   0.000000000000 0.57379813  0.00137955  0.2863265 0.7000
  1  -3027.8227669367  -0.251531144890 0.41217608  0.00105381  0.1620065 0.7000
                               ***Turning on DIIS***
  2  -3027.9911932522  -0.168426315524 0.28261468  0.00076249  0.1099412 0.7000
  3  -3029.6780407456  -1.686847493380 0.60407608  0.00185708  0.0824545 0.0000
  4  -3028.3041273480   1.373913397605 0.05282034  0.00023403  0.0192695 0.0000
  5  -3028.4247664820  -0.120639134051 0.04003065  0.00017558  0.0118881 0.0000
  6  -3028.4397437626  -0.014977280589 0.02044768  0.00006949  0.0054512 0.0000
  7  -3028.4625229363  -0.022779173700 0.00981251  0.00003293  0.0033237 0.0000
  8  -3028.4595998131   0.002923123187 0.00579524  0.00001773  0.0014235 0.0000
  9  -3028.4496281253   0.009971687851 0.00234288  0.00001042  0.0007259 0.0000
 10  -3028.4400831736   0.009544951635 0.00084387  0.00000297  0.0004122 0.0000
 11  -3028.4458324045  -0.005749230865 0.00056997  0.00000176  0.0000721 0.0000
 12  -3028.4436820657   0.002150338805 0.00144310  0.00000232  0.0000193 0.0000
 13  -3028.4438398251  -0.000157759361 0.00231057  0.00000361  0.0000086 0.0000
 14  -3028.4438791494  -0.000039324386 0.00177247  0.00000283  0.0000039 0.0000
 15  -3028.4438286862   0.000050463230 0.00227447  0.00000341  0.0000023 0.0000
 16  -3028.4438512306  -0.000022544382 0.00273915  0.00000419  0.0000015 0.0000
                            ***DIIS convergence achieved***

               *****************************************************
               *                     SUCCESS                       *
               *           SCF CONVERGED AFTER  17 CYCLES          *
               *****************************************************

Total Energy       :        -3028.44385400 Eh          -82408.14682 eV
  Last Energy change         ...   -2.7705e-06  Tolerance :   1.0000e-08
  Last MAX-Density change    ...    1.6758e-03  Tolerance :   1.0000e-07
             **** THE GBW FILE WAS UPDATED (simple-grid-165-225-b3lyp_d3bj-631gd-gas-singlepoint-DLPNO_CCSD_T1-NormalPNO-augtz-gas.gbw) ****
             **** DENSITY FILE WAS UPDATED (simple-grid-165-225-b3lyp_d3bj-631gd-gas-singlepoint-DLPNO_CCSD_T1-NormalPNO-augtz-gas.scfp.tmp) ****
             **** ENERGY FILE WAS UPDATED (simple-grid-165-225-b3lyp_d3bj-631gd-gas-singlepoint-DLPNO_CCSD_T1-NormalPNO-augtz-gas.en.tmp) ****
----------------------
UHF SPIN CONTAMINATION
----------------------

Expectation value of <S**2>     :     8.764660
Ideal value S*(S+1) for S=2.5   :     8.750000
Deviation                       :     0.014660

----------------
ORBITAL ENERGIES
----------------
                 SPIN UP ORBITALS
  NO   OCC          E(Eh)            E(eV) 
   0   1.0000    -261.543097     -7116.9495 
   1   1.0000    -104.773795     -2851.0399 
   2   1.0000    -104.772050     -2850.9924 
   3   1.0000    -104.767675     -2850.8734 
   4   1.0000     -32.210966      -876.5049 
   5   1.0000     -27.686918      -753.3994 
   6   1.0000     -27.686684      -753.3930 
   7   1.0000     -27.686388      -753.3849 
   8   1.0000     -20.543087      -559.0058 
   9   1.0000     -11.415132      -310.6215 
  10   1.0000     -11.335162      -308.4454 
  11   1.0000     -11.295672      -307.3709 
  12   1.0000     -11.285714      -307.0999 
  13   1.0000     -11.284183      -307.0582 
  14   1.0000     -11.269352      -306.6546 
  15   1.0000     -11.235115      -305.7230 
  16   1.0000     -11.233597      -305.6817 
  17   1.0000     -10.500355      -285.7292 
  18   1.0000     -10.498741      -285.6853 
  19   1.0000     -10.494258      -285.5633 
  20   1.0000      -7.967201      -216.7986 
  21   1.0000      -7.966416      -216.7772 
  22   1.0000      -7.966330      -216.7749 
  23   1.0000      -7.965633      -216.7559 
  24   1.0000      -7.964765      -216.7323 
  25   1.0000      -7.964743      -216.7317 
  26   1.0000      -7.961057      -216.6314 
  27   1.0000      -7.960389      -216.6132 
  28   1.0000      -7.960288      -216.6104 
  29   1.0000      -4.566416      -124.2585 
  30   1.0000      -3.178889       -86.5020 
  31   1.0000      -3.178579       -86.4935 
  32   1.0000      -3.178099       -86.4805 
  33   1.0000      -1.346007       -36.6267 
  34   1.0000      -1.185143       -32.2494 
  35   1.0000      -1.095231       -29.8028 
  36   1.0000      -1.043970       -28.4079 
  37   1.0000      -1.039168       -28.2772 
  38   1.0000      -1.036430       -28.2027 
  39   1.0000      -1.035114       -28.1669 
  40   1.0000      -1.021659       -27.8008 
  41   1.0000      -0.963669       -26.2228 
  42   1.0000      -0.935890       -25.4669 
  43   1.0000      -0.900822       -24.5126 
  44   1.0000      -0.895855       -24.3774 
  45   1.0000      -0.895729       -24.3740 
  46   1.0000      -0.888258       -24.1707 
  47   1.0000      -0.887653       -24.1543 
  48   1.0000      -0.803503       -21.8644 
  49   1.0000      -0.760170       -20.6853 
  50   1.0000      -0.705696       -19.2030 
  51   1.0000      -0.690106       -18.7787 
  52   1.0000      -0.673455       -18.3256 
  53   1.0000      -0.637204       -17.3392 
  54   1.0000      -0.636555       -17.3215 
  55   1.0000      -0.621734       -16.9182 
  56   1.0000      -0.607056       -16.5188 
  57   1.0000      -0.598545       -16.2872 
  58   1.0000      -0.595318       -16.1994 
  59   1.0000      -0.585585       -15.9346 
  60   1.0000      -0.577464       -15.7136 
  61   1.0000      -0.558791       -15.2055 
  62   1.0000      -0.546327       -14.8663 
  63   1.0000      -0.537532       -14.6270 
  64   1.0000      -0.527152       -14.3445 
  65   1.0000      -0.520498       -14.1635 
  66   1.0000      -0.501958       -13.6590 
  67   1.0000      -0.469432       -12.7739 
  68   1.0000      -0.464644       -12.6436 
  69   1.0000      -0.446480       -12.1493 
  70   1.0000      -0.435525       -11.8513 
  71   1.0000      -0.424564       -11.5530 
  72   1.0000      -0.419674       -11.4199 
  73   1.0000      -0.415164       -11.2972 
  74   1.0000      -0.411172       -11.1886 
  75   1.0000      -0.410608       -11.1732 
  76   1.0000      -0.408004       -11.1023 
  77   0.0000       0.004896         0.1332 
  78   0.0000       0.014881         0.4049 
  79   0.0000       0.020653         0.5620 
  80   0.0000       0.022893         0.6229 
  81   0.0000       0.030042         0.8175 
  82   0.0000       0.037049         1.0081 
  83   0.0000       0.039645         1.0788 
  84   0.0000       0.043367         1.1801 
  85   0.0000       0.043914         1.1950 
  86   0.0000       0.047358         1.2887 
  87   0.0000       0.056660         1.5418 
  88   0.0000       0.059899         1.6299 
  89   0.0000       0.060538         1.6473 
  90   0.0000       0.064080         1.7437 
  91   0.0000       0.066138         1.7997 
  92   0.0000       0.071185         1.9371 
  93   0.0000       0.071731         1.9519 
  94   0.0000       0.080577         2.1926 
  95   0.0000       0.085800         2.3347 
  96   0.0000       0.088969         2.4210 
  97   0.0000       0.090313         2.4575 
  98   0.0000       0.092642         2.5209 
  99   0.0000       0.099482         2.7070 
 100   0.0000       0.101047         2.7496 
 101   0.0000       0.110210         2.9990 
 102   0.0000       0.116497         3.1701 
 103   0.0000       0.118021         3.2115 
 104   0.0000       0.121297         3.3006 
 105   0.0000       0.122596         3.3360 
 106   0.0000       0.128332         3.4921 
 107   0.0000       0.129908         3.5350 
 108   0.0000       0.130418         3.5488 
 109   0.0000       0.132221         3.5979 
 110   0.0000       0.136909         3.7255 
 111   0.0000       0.137528         3.7423 
 112   0.0000       0.146986         3.9997 
 113   0.0000       0.148389         4.0379 
 114   0.0000       0.150865         4.1052 
 115   0.0000       0.153071         4.1653 
 116   0.0000       0.157318         4.2808 
 117   0.0000       0.160114         4.3569 
 118   0.0000       0.161764         4.4018 
 119   0.0000       0.166402         4.5280 
 120   0.0000       0.168869         4.5952 
 121   0.0000       0.173842         4.7305 
 122   0.0000       0.175213         4.7678 
 123   0.0000       0.182558         4.9677 
 124   0.0000       0.183640         4.9971 
 125   0.0000       0.187011         5.0888 
 126   0.0000       0.191805         5.2193 
 127   0.0000       0.194210         5.2847 
 128   0.0000       0.196532         5.3479 
 129   0.0000       0.200954         5.4682 
 130   0.0000       0.202242         5.5033 
 131   0.0000       0.205788         5.5998 
 132   0.0000       0.207032         5.6336 
 133   0.0000       0.211985         5.7684 
 134   0.0000       0.213975         5.8226 
 135   0.0000       0.219849         5.9824 
 136   0.0000       0.223544         6.0829 
 137   0.0000       0.227752         6.1975 
 138   0.0000       0.229712         6.2508 
 139   0.0000       0.232274         6.3205 
 140   0.0000       0.238387         6.4868 
 141   0.0000       0.241802         6.5798 
 142   0.0000       0.242562         6.6004 
 143   0.0000       0.247698         6.7402 
 144   0.0000       0.250087         6.8052 
 145   0.0000       0.252528         6.8716 
 146   0.0000       0.254291         6.9196 
 147   0.0000       0.256642         6.9836 
 148   0.0000       0.261895         7.1265 
 149   0.0000       0.262775         7.1505 
 150   0.0000       0.268236         7.2991 
 151   0.0000       0.274183         7.4609 
 152   0.0000       0.276875         7.5341 
 153   0.0000       0.281371         7.6565 
 154   0.0000       0.284045         7.7293 
 155   0.0000       0.286651         7.8002 
 156   0.0000       0.291118         7.9217 
 157   0.0000       0.296018         8.0551 
 158   0.0000       0.302867         8.2414 
 159   0.0000       0.305382         8.3099 
 160   0.0000       0.308391         8.3917 
 161   0.0000       0.310142         8.4394 
 162   0.0000       0.313327         8.5261 
 163   0.0000       0.322558         8.7772 
 164   0.0000       0.325468         8.8564 
 165   0.0000       0.328701         8.9444 
 166   0.0000       0.329198         8.9579 
 167   0.0000       0.336229         9.1492 
 168   0.0000       0.342891         9.3305 
 169   0.0000       0.346394         9.4259 
 170   0.0000       0.348565         9.4849 
 171   0.0000       0.354028         9.6336 
 172   0.0000       0.355510         9.6739 
 173   0.0000       0.357224         9.7206 
 174   0.0000       0.360885         9.8202 
 175   0.0000       0.364385         9.9154 
 176   0.0000       0.368053        10.0152 
 177   0.0000       0.372202        10.1281 
 178   0.0000       0.374649        10.1947 
 179   0.0000       0.377855        10.2820 
 180   0.0000       0.384006        10.4493 
 181   0.0000       0.386609        10.5202 
 182   0.0000       0.387377        10.5411 
 183   0.0000       0.392219        10.6728 
 184   0.0000       0.396510        10.7896 
 185   0.0000       0.397360        10.8127 
 186   0.0000       0.401339        10.9210 
 187   0.0000       0.402235        10.9454 
 188   0.0000       0.407477        11.0880 
 189   0.0000       0.409393        11.1402 
 190   0.0000       0.411042        11.1850 
 191   0.0000       0.419645        11.4191 
 192   0.0000       0.422469        11.4960 
 193   0.0000       0.426671        11.6103 
 194   0.0000       0.427006        11.6194 
 195   0.0000       0.429132        11.6773 
 196   0.0000       0.434631        11.8269 
 197   0.0000       0.435967        11.8633 
 198   0.0000       0.443311        12.0631 
 199   0.0000       0.445040        12.1102 
 200   0.0000       0.452906        12.3242 
 201   0.0000       0.455509        12.3950 
 202   0.0000       0.460051        12.5186 
 203   0.0000       0.462163        12.5761 
 204   0.0000       0.463246        12.6056 
 205   0.0000       0.467131        12.7113 
 206   0.0000       0.471105        12.8194 
 207   0.0000       0.471810        12.8386 
 208   0.0000       0.474594        12.9144 
 209   0.0000       0.475892        12.9497 
 210   0.0000       0.479790        13.0558 
 211   0.0000       0.484368        13.1803 
 212   0.0000       0.487494        13.2654 
 213   0.0000       0.489914        13.3312 
 214   0.0000       0.491088        13.3632 
 215   0.0000       0.499582        13.5943 
 216   0.0000       0.500647        13.6233 
 217   0.0000       0.504801        13.7363 
 218   0.0000       0.508155        13.8276 
 219   0.0000       0.510178        13.8826 
 220   0.0000       0.513960        13.9856 
 221   0.0000       0.517301        14.0765 
 222   0.0000       0.519912        14.1475 
 223   0.0000       0.524399        14.2696 
 224   0.0000       0.527090        14.3429 
 225   0.0000       0.528106        14.3705 
 226   0.0000       0.531465        14.4619 
 227   0.0000       0.538237        14.6462 
 228   0.0000       0.542041        14.7497 
 229   0.0000       0.544237        14.8094 
 230   0.0000       0.545568        14.8457 
 231   0.0000       0.552525        15.0350 
 232   0.0000       0.555964        15.1286 
 233   0.0000       0.561944        15.2913 
 234   0.0000       0.566020        15.4022 
 235   0.0000       0.571270        15.5450 
 236   0.0000       0.575750        15.6669 
 237   0.0000       0.577578        15.7167 
 238   0.0000       0.578952        15.7541 
 239   0.0000       0.583521        15.8784 
 240   0.0000       0.586443        15.9579 
 241   0.0000       0.589415        16.0388 
 242   0.0000       0.592865        16.1327 
 243   0.0000       0.596813        16.2401 
 244   0.0000       0.600587        16.3428 
 245   0.0000       0.602160        16.3856 
 246   0.0000       0.604862        16.4591 
 247   0.0000       0.607897        16.5417 
 248   0.0000       0.612055        16.6549 
 249   0.0000       0.618188        16.8218 
 250   0.0000       0.624035        16.9808 
 251   0.0000       0.628031        17.0896 
 252   0.0000       0.630348        17.1527 
 253   0.0000       0.632454        17.2100 
 254   0.0000       0.635368        17.2892 
 255   0.0000       0.640257        17.4223 
 256   0.0000       0.644493        17.5376 
 257   0.0000       0.647503        17.6194 
 258   0.0000       0.653841        17.7919 
 259   0.0000       0.662772        18.0349 
 260   0.0000       0.665646        18.1131 
 261   0.0000       0.668818        18.1995 
 262   0.0000       0.670107        18.2345 
 263   0.0000       0.679042        18.4777 
 264   0.0000       0.681448        18.5432 
 265   0.0000       0.686856        18.6903 
 266   0.0000       0.690511        18.7897 
 267   0.0000       0.693129        18.8610 
 268   0.0000       0.695555        18.9270 
 269   0.0000       0.696643        18.9566 
 270   0.0000       0.701959        19.1013 
 271   0.0000       0.709245        19.2995 
 272   0.0000       0.714141        19.4328 
 273   0.0000       0.719189        19.5701 
 274   0.0000       0.721695        19.6383 
 275   0.0000       0.728401        19.8208 
 276   0.0000       0.731038        19.8925 
 277   0.0000       0.739790        20.1307 
 278   0.0000       0.741968        20.1900 
 279   0.0000       0.744163        20.2497 
 280   0.0000       0.753269        20.4975 
 281   0.0000       0.757619        20.6159 
 282   0.0000       0.759335        20.6626 
 283   0.0000       0.771850        21.0031 
 284   0.0000       0.773467        21.0471 
 285   0.0000       0.780836        21.2476 
 286   0.0000       0.785749        21.3813 
 287   0.0000       0.792621        21.5683 
 288   0.0000       0.797586        21.7034 
 289   0.0000       0.799801        21.7637 
 290   0.0000       0.805693        21.9240 
 291   0.0000       0.811653        22.0862 
 292   0.0000       0.815067        22.1791 
 293   0.0000       0.821199        22.3460 
 294   0.0000       0.822918        22.3927 
 295   0.0000       0.833727        22.6869 
 296   0.0000       0.839328        22.8393 
 297   0.0000       0.846762        23.0416 
 298   0.0000       0.849093        23.1050 
 299   0.0000       0.858221        23.3534 
 300   0.0000       0.860203        23.4073 
 301   0.0000       0.867935        23.6177 
 302   0.0000       0.875310        23.8184 
 303   0.0000       0.877074        23.8664 
 304   0.0000       0.882241        24.0070 
 305   0.0000       0.888606        24.1802 
 306   0.0000       0.889601        24.2073 
 307   0.0000       0.895983        24.3809 
 308   0.0000       0.897949        24.4344 
 309   0.0000       0.903191        24.5771 
 310   0.0000       0.908365        24.7179 
 311   0.0000       0.913566        24.8594 
 312   0.0000       0.917605        24.9693 
 313   0.0000       0.924051        25.1447 
 314   0.0000       0.926608        25.2143 
 315   0.0000       0.931251        25.3406 
 316   0.0000       0.934983        25.4422 
 317   0.0000       0.936660        25.4878 
 318   0.0000       0.939560        25.5667 
 319   0.0000       0.942673        25.6514 
 320   0.0000       0.945331        25.7238 
 321   0.0000       0.949711        25.8429 
 322   0.0000       0.954321        25.9684 
 323   0.0000       0.957048        26.0426 
 324   0.0000       0.959705        26.1149 
 325   0.0000       0.961724        26.1698 
 326   0.0000       0.970291        26.4030 
 327   0.0000       0.975776        26.5522 
 328   0.0000       0.978147        26.6167 
 329   0.0000       0.981165        26.6988 
 330   0.0000       0.984263        26.7832 
 331   0.0000       0.987501        26.8713 
 332   0.0000       0.990389        26.9499 
 333   0.0000       0.994559        27.0633 
 334   0.0000       0.998331        27.1660 
 335   0.0000       1.002169        27.2704 
 336   0.0000       1.007122        27.4052 
 337   0.0000       1.009984        27.4831 
 338   0.0000       1.014106        27.5952 
 339   0.0000       1.016634        27.6640 
 340   0.0000       1.022962        27.8362 
 341   0.0000       1.024806        27.8864 
 342   0.0000       1.027559        27.9613 
 343   0.0000       1.029768        28.0214 
 344   0.0000       1.036040        28.1921 
 345   0.0000       1.039906        28.2973 
 346   0.0000       1.043489        28.3948 
 347   0.0000       1.045892        28.4602 
 348   0.0000       1.049355        28.5544 
 349   0.0000       1.055806        28.7299 
 350   0.0000       1.057217        28.7683 
 351   0.0000       1.060994        28.8711 
 352   0.0000       1.063803        28.9476 
 353   0.0000       1.066500        29.0210 
 354   0.0000       1.068153        29.0659 
 355   0.0000       1.070383        29.1266 
 356   0.0000       1.077431        29.3184 
 357   0.0000       1.083686        29.4886 
 358   0.0000       1.084228        29.5033 
 359   0.0000       1.088650        29.6237 
 360   0.0000       1.095317        29.8051 
 361   0.0000       1.101743        29.9799 
 362   0.0000       1.109898        30.2018 
 363   0.0000       1.111837        30.2546 
 364   0.0000       1.116324        30.3767 
 365   0.0000       1.117910        30.4199 
 366   0.0000       1.122365        30.5411 
 367   0.0000       1.131327        30.7850 
 368   0.0000       1.136024        30.9128 
 369   0.0000       1.140057        31.0225 
 370   0.0000       1.145674        31.1754 
 371   0.0000       1.149731        31.2858 
 372   0.0000       1.151297        31.3284 
 373   0.0000       1.154699        31.4209 
 374   0.0000       1.158610        31.5274 
 375   0.0000       1.162591        31.6357 
 376   0.0000       1.163661        31.6648 
 377   0.0000       1.167444        31.7678 
 378   0.0000       1.172897        31.9162 
 379   0.0000       1.179582        32.0981 
 380   0.0000       1.182585        32.1798 
 381   0.0000       1.191795        32.4304 
 382   0.0000       1.193887        32.4873 
 383   0.0000       1.200267        32.6609 
 384   0.0000       1.202933        32.7335 
 385   0.0000       1.207942        32.8698 
 386   0.0000       1.211228        32.9592 
 387   0.0000       1.217720        33.1358 
 388   0.0000       1.220927        33.2231 
 389   0.0000       1.222329        33.2613 
 390   0.0000       1.227348        33.3978 
 391   0.0000       1.234097        33.5815 
 392   0.0000       1.239724        33.7346 
 393   0.0000       1.245567        33.8936 
 394   0.0000       1.248814        33.9820 
 395   0.0000       1.249251        33.9938 
 396   0.0000       1.254655        34.1409 
 397   0.0000       1.257637        34.2221 
 398   0.0000       1.263222        34.3740 
 399   0.0000       1.271022        34.5863 
 400   0.0000       1.275358        34.7043 
 401   0.0000       1.281804        34.8797 
 402   0.0000       1.283112        34.9152 
 403   0.0000       1.288786        35.0696 
 404   0.0000       1.293117        35.1875 
 405   0.0000       1.307872        35.5890 
 406   0.0000       1.313002        35.7286 
 407   0.0000       1.317494        35.8508 
 408   0.0000       1.322235        35.9798 
 409   0.0000       1.325869        36.0787 
 410   0.0000       1.335636        36.3445 
 411   0.0000       1.335907        36.3519 
 412   0.0000       1.338057        36.4104 
 413   0.0000       1.345353        36.6089 
 414   0.0000       1.349608        36.7247 
 415   0.0000       1.355133        36.8751 
 416   0.0000       1.363492        37.1025 
 417   0.0000       1.373651        37.3789 
 418   0.0000       1.375379        37.4260 
 419   0.0000       1.376471        37.4557 
 420   0.0000       1.384469        37.6733 
 421   0.0000       1.391453        37.8634 
 422   0.0000       1.395573        37.9755 
 423   0.0000       1.399596        38.0850 
 424   0.0000       1.404274        38.2122 
 425   0.0000       1.409898        38.3653 
 426   0.0000       1.418276        38.5933 
 427   0.0000       1.426407        38.8145 
 428   0.0000       1.431240        38.9460 
 429   0.0000       1.438497        39.1435 
 430   0.0000       1.440708        39.2037 
 431   0.0000       1.443703        39.2852 
 432   0.0000       1.449526        39.4436 
 433   0.0000       1.453161        39.5425 
 434   0.0000       1.458640        39.6916 
 435   0.0000       1.463622        39.8272 
 436   0.0000       1.469677        39.9919 
 437   0.0000       1.477514        40.2052 
 438   0.0000       1.481722        40.3197 
 439   0.0000       1.489243        40.5244 
 440   0.0000       1.492441        40.6114 
 441   0.0000       1.497020        40.7360 
 442   0.0000       1.499354        40.7995 
 443   0.0000       1.505432        40.9649 
 444   0.0000       1.510233        41.0955 
 445   0.0000       1.518467        41.3196 
 446   0.0000       1.522398        41.4266 
 447   0.0000       1.530354        41.6431 
 448   0.0000       1.534676        41.7607 
 449   0.0000       1.537067        41.8257 
 450   0.0000       1.546564        42.0841 
 451   0.0000       1.550522        42.1918 
 452   0.0000       1.553945        42.2850 
 453   0.0000       1.558139        42.3991 
 454   0.0000       1.568066        42.6693 
 455   0.0000       1.572110        42.7793 
 456   0.0000       1.578183        42.9446 
 457   0.0000       1.581304        43.0295 
 458   0.0000       1.584316        43.1114 
 459   0.0000       1.591038        43.2944 
 460   0.0000       1.593758        43.3684 
 461   0.0000       1.603592        43.6359 
 462   0.0000       1.607949        43.7545 
 463   0.0000       1.613404        43.9029 
 464   0.0000       1.620522        44.0966 
 465   0.0000       1.622242        44.1435 
 466   0.0000       1.628924        44.3253 
 467   0.0000       1.632673        44.4273 
 468   0.0000       1.643139        44.7121 
 469   0.0000       1.645243        44.7693 
 470   0.0000       1.650778        44.9200 
 471   0.0000       1.653656        44.9983 
 472   0.0000       1.664909        45.3045 
 473   0.0000       1.667311        45.3698 
 474   0.0000       1.672194        45.5027 
 475   0.0000       1.677686        45.6522 
 476   0.0000       1.678538        45.6753 
 477   0.0000       1.684663        45.8420 
 478   0.0000       1.691339        46.0237 
 479   0.0000       1.696343        46.1598 
 480   0.0000       1.704027        46.3689 
 481   0.0000       1.709314        46.5128 
 482   0.0000       1.713227        46.6193 
 483   0.0000       1.719182        46.7813 
 484   0.0000       1.726702        46.9859 
 485   0.0000       1.731520        47.1170 
 486   0.0000       1.736408        47.2501 
 487   0.0000       1.739765        47.3414 
 488   0.0000       1.742214        47.4081 
 489   0.0000       1.747618        47.5551 
 490   0.0000       1.751053        47.6486 
 491   0.0000       1.756486        47.7964 
 492   0.0000       1.765678        48.0465 
 493   0.0000       1.769243        48.1435 
 494   0.0000       1.774115        48.2761 
 495   0.0000       1.778553        48.3969 
 496   0.0000       1.781097        48.4661 
 497   0.0000       1.785849        48.5954 
 498   0.0000       1.790429        48.7201 
 499   0.0000       1.796015        48.8721 
 500   0.0000       1.807295        49.1790 
 501   0.0000       1.808969        49.2246 
 502   0.0000       1.809705        49.2446 
 503   0.0000       1.813282        49.3419 
 504   0.0000       1.821290        49.5598 
 505   0.0000       1.832999        49.8784 
 506   0.0000       1.835612        49.9495 
 507   0.0000       1.837668        50.0055 
 508   0.0000       1.845754        50.2255 
 509   0.0000       1.854643        50.4674 
 510   0.0000       1.857926        50.5567 
 511   0.0000       1.859808        50.6079 
 512   0.0000       1.864635        50.7393 
 513   0.0000       1.871115        50.9156 
 514   0.0000       1.873554        50.9820 
 515   0.0000       1.881907        51.2093 
 516   0.0000       1.888774        51.3962 
 517   0.0000       1.893786        51.5325 
 518   0.0000       1.896781        51.6140 
 519   0.0000       1.902579        51.7718 
 520   0.0000       1.907081        51.8943 
 521   0.0000       1.910605        51.9902 
 522   0.0000       1.918590        52.2075 
 523   0.0000       1.931421        52.5566 
 524   0.0000       1.935773        52.6751 
 525   0.0000       1.940094        52.7926 
 526   0.0000       1.945403        52.9371 
 527   0.0000       1.951181        53.0943 
 528   0.0000       1.954883        53.1951 
 529   0.0000       1.962938        53.4143 
 530   0.0000       1.966707        53.5168 
 531   0.0000       1.974102        53.7180 
 532   0.0000       1.976563        53.7850 
 533   0.0000       1.983940        53.9857 
 534   0.0000       1.989595        54.1396 
 535   0.0000       1.996090        54.3164 
 536   0.0000       2.002615        54.4939 
 537   0.0000       2.006607        54.6025 
 538   0.0000       2.016053        54.8596 
 539   0.0000       2.019579        54.9555 
 540   0.0000       2.026832        55.1529 
 541   0.0000       2.033949        55.3466 
 542   0.0000       2.035230        55.3814 
 543   0.0000       2.043034        55.5938 
 544   0.0000       2.054426        55.9038 
 545   0.0000       2.058226        56.0072 
 546   0.0000       2.062886        56.1340 
 547   0.0000       2.068110        56.2761 
 548   0.0000       2.075047        56.4649 
 549   0.0000       2.086454        56.7753 
 550   0.0000       2.098540        57.1042 
 551   0.0000       2.098853        57.1127 
 552   0.0000       2.103783        57.2469 
 553   0.0000       2.116331        57.5883 
 554   0.0000       2.119373        57.6711 
 555   0.0000       2.127128        57.8821 
 556   0.0000       2.139599        58.2214 
 557   0.0000       2.145451        58.3807 
 558   0.0000       2.153302        58.5943 
 559   0.0000       2.160862        58.8000 
 560   0.0000       2.164309        58.8939 
 561   0.0000       2.173268        59.1376 
 562   0.0000       2.178065        59.2681 
 563   0.0000       2.182691        59.3941 
 564   0.0000       2.191315        59.6287 
 565   0.0000       2.194373        59.7119 
 566   0.0000       2.207806        60.0775 
 567   0.0000       2.214857        60.2693 
 568   0.0000       2.217556        60.3428 
 569   0.0000       2.225605        60.5618 
 570   0.0000       2.226545        60.5874 
 571   0.0000       2.241862        61.0042 
 572   0.0000       2.243361        61.0449 
 573   0.0000       2.254515        61.3485 
 574   0.0000       2.261975        61.5515 
 575   0.0000       2.268056        61.7170 
 576   0.0000       2.270591        61.7859 
 577   0.0000       2.281863        62.0926 
 578   0.0000       2.284534        62.1653 
 579   0.0000       2.298186        62.5368 
 580   0.0000       2.305673        62.7406 
 581   0.0000       2.310053        62.8597 
 582   0.0000       2.324196        63.2446 
 583   0.0000       2.327527        63.3352 
 584   0.0000       2.334165        63.5159 
 585   0.0000       2.338288        63.6280 
 586   0.0000       2.339838        63.6702 
 587   0.0000       2.346077        63.8400 
 588   0.0000       2.351770        63.9949 
 589   0.0000       2.365147        64.3589 
 590   0.0000       2.378041        64.7098 
 591   0.0000       2.381532        64.8048 
 592   0.0000       2.386418        64.9377 
 593   0.0000       2.392762        65.1104 
 594   0.0000       2.400711        65.3267 
 595   0.0000       2.404874        65.4399 
 596   0.0000       2.413830        65.6836 
 597   0.0000       2.420796        65.8732 
 598   0.0000       2.429330        66.1054 
 599   0.0000       2.442899        66.4747 
 600   0.0000       2.448388        66.6240 
 601   0.0000       2.461817        66.9894 
 602   0.0000       2.472343        67.2759 
 603   0.0000       2.475458        67.3606 
 604   0.0000       2.489515        67.7432 
 605   0.0000       2.490736        67.7764 
 606   0.0000       2.495157        67.8967 
 607   0.0000       2.518505        68.5320 
 608   0.0000       2.532468        68.9120 
 609   0.0000       2.539242        69.0963 
 610   0.0000       2.544757        69.2464 
 611   0.0000       2.571938        69.9860 
 612   0.0000       2.592819        70.5542 
 613   0.0000       2.601970        70.8032 
 614   0.0000       2.619158        71.2709 
 615   0.0000       2.622331        71.3573 
 616   0.0000       2.627312        71.4928 
 617   0.0000       2.643129        71.9232 
 618   0.0000       2.652535        72.1791 
 619   0.0000       2.662809        72.4587 
 620   0.0000       2.670780        72.6756 
 621   0.0000       2.680502        72.9402 
 622   0.0000       2.691328        73.2348 
 623   0.0000       2.698498        73.4299 
 624   0.0000       2.707284        73.6690 
 625   0.0000       2.711159        73.7744 
 626   0.0000       2.720066        74.0168 
 627   0.0000       2.725129        74.1545 
 628   0.0000       2.737948        74.5034 
 629   0.0000       2.746261        74.7296 
 630   0.0000       2.754968        74.9665 
 631   0.0000       2.772845        75.4530 
 632   0.0000       2.774511        75.4983 
 633   0.0000       2.784702        75.7756 
 634   0.0000       2.798150        76.1415 
 635   0.0000       2.805144        76.3319 
 636   0.0000       2.814504        76.5865 
 637   0.0000       2.837995        77.2258 
 638   0.0000       2.849255        77.5322 
 639   0.0000       2.857134        77.7466 
 640   0.0000       2.871358        78.1336 
 641   0.0000       2.880746        78.3891 
 642   0.0000       2.887676        78.5777 
 643   0.0000       2.914304        79.3022 
 644   0.0000       2.919558        79.4452 
 645   0.0000       2.935166        79.8699 
 646   0.0000       2.949098        80.2490 
 647   0.0000       2.955898        80.4341 
 648   0.0000       2.966207        80.7146 
 649   0.0000       2.980583        81.1058 
 650   0.0000       3.000232        81.6405 
 651   0.0000       3.009205        81.8846 
 652   0.0000       3.016676        82.0879 
 653   0.0000       3.029848        82.4464 
 654   0.0000       3.045664        82.8767 
 655   0.0000       3.054149        83.1076 
 656   0.0000       3.081204        83.8438 
 657   0.0000       3.083294        83.9007 
 658   0.0000       3.107901        84.5703 
 659   0.0000       3.144371        85.5627 
 660   0.0000       3.151319        85.7517 
 661   0.0000       3.153188        85.8026 
 662   0.0000       3.161444        86.0273 
 663   0.0000       3.176629        86.4405 
 664   0.0000       3.187260        86.7298 
 665   0.0000       3.196555        86.9827 
 666   0.0000       3.199511        87.0631 
 667   0.0000       3.214635        87.4747 
 668   0.0000       3.224398        87.7403 
 669   0.0000       3.241467        88.2048 
 670   0.0000       3.246609        88.3447 
 671   0.0000       3.256302        88.6085 
 672   0.0000       3.269945        88.9797 
 673   0.0000       3.280551        89.2683 
 674   0.0000       3.289896        89.5226 
 675   0.0000       3.292353        89.5895 
 676   0.0000       3.308441        90.0273 
 677   0.0000       3.316074        90.2350 
 678   0.0000       3.320765        90.3626 
 679   0.0000       3.326651        90.5228 
 680   0.0000       3.343376        90.9779 
 681   0.0000       3.345218        91.0280 
 682   0.0000       3.362043        91.4858 
 683   0.0000       3.374713        91.8306 
 684   0.0000       3.382896        92.0533 
 685   0.0000       3.387474        92.1779 
 686   0.0000       3.388037        92.1932 
 687   0.0000       3.401418        92.5573 
 688   0.0000       3.416279        92.9617 
 689   0.0000       3.421922        93.1152 
 690   0.0000       3.425926        93.2242 
 691   0.0000       3.440520        93.6213 
 692   0.0000       3.455557        94.0305 
 693   0.0000       3.464393        94.2709 
 694   0.0000       3.479717        94.6879 
 695   0.0000       3.482935        94.7755 
 696   0.0000       3.487908        94.9108 
 697   0.0000       3.494846        95.0996 
 698   0.0000       3.505683        95.3945 
 699   0.0000       3.516809        95.6973 
 700   0.0000       3.523420        95.8771 
 701   0.0000       3.531554        96.0985 
 702   0.0000       3.534290        96.1729 
 703   0.0000       3.541319        96.3642 
 704   0.0000       3.549313        96.5817 
 705   0.0000       3.557903        96.8155 
 706   0.0000       3.564390        96.9920 
 707   0.0000       3.577917        97.3601 
 708   0.0000       3.593324        97.7793 
 709   0.0000       3.596191        97.8573 
 710   0.0000       3.601574        98.0038 
 711   0.0000       3.610502        98.2468 
 712   0.0000       3.617914        98.4484 
 713   0.0000       3.626465        98.6811 
 714   0.0000       3.636201        98.9461 
 715   0.0000       3.643024        99.1317 
 716   0.0000       3.650670        99.3398 
 717   0.0000       3.657257        99.5190 
 718   0.0000       3.661965        99.6471 
 719   0.0000       3.677484       100.0694 
 720   0.0000       3.691534       100.4517 
 721   0.0000       3.698974       100.6542 
 722   0.0000       3.705545       100.8330 
 723   0.0000       3.713038       101.0369 
 724   0.0000       3.722430       101.2925 
 725   0.0000       3.724880       101.3591 
 726   0.0000       3.733774       101.6011 
 727   0.0000       3.738743       101.7364 
 728   0.0000       3.745479       101.9197 
 729   0.0000       3.757889       102.2574 
 730   0.0000       3.761294       102.3500 
 731   0.0000       3.766862       102.5015 
 732   0.0000       3.779078       102.8339 
 733   0.0000       3.787562       103.0648 
 734   0.0000       3.797152       103.3257 
 735   0.0000       3.804134       103.5157 
 736   0.0000       3.810457       103.6878 
 737   0.0000       3.813117       103.7602 
 738   0.0000       3.821631       103.9919 
 739   0.0000       3.829332       104.2014 
 740   0.0000       3.831519       104.2609 
 741   0.0000       3.846302       104.6632 
 742   0.0000       3.851256       104.7980 
 743   0.0000       3.859582       105.0246 
 744   0.0000       3.867801       105.2482 
 745   0.0000       3.873865       105.4132 
 746   0.0000       3.878417       105.5371 
 747   0.0000       3.880110       105.5832 
 748   0.0000       3.894526       105.9754 
 749   0.0000       3.898730       106.0898 
 750   0.0000       3.901906       106.1763 
 751   0.0000       3.913564       106.4935 
 752   0.0000       3.922711       106.7424 
 753   0.0000       3.925524       106.8189 
 754   0.0000       3.929857       106.9369 
 755   0.0000       3.945021       107.3495 
 756   0.0000       3.948352       107.4401 
 757   0.0000       3.959562       107.7452 
 758   0.0000       3.966863       107.9438 
 759   0.0000       3.972115       108.0867 
 760   0.0000       3.983607       108.3995 
 761   0.0000       3.985994       108.4644 
 762   0.0000       3.988897       108.5434 
 763   0.0000       3.991674       108.6190 
 764   0.0000       4.005372       108.9917 
 765   0.0000       4.017614       109.3248 
 766   0.0000       4.022215       109.4500 
 767   0.0000       4.036048       109.8264 
 768   0.0000       4.042756       110.0090 
 769   0.0000       4.049830       110.2015 
 770   0.0000       4.052377       110.2708 
 771   0.0000       4.059335       110.4601 
 772   0.0000       4.063630       110.5770 
 773   0.0000       4.069004       110.7232 
 774   0.0000       4.079359       111.0050 
 775   0.0000       4.085042       111.1597 
 776   0.0000       4.094586       111.4193 
 777   0.0000       4.098362       111.5221 
 778   0.0000       4.110634       111.8560 
 779   0.0000       4.118540       112.0712 
 780   0.0000       4.123196       112.1979 
 781   0.0000       4.137131       112.5771 
 782   0.0000       4.142193       112.7148 
 783   0.0000       4.148056       112.8743 
 784   0.0000       4.156058       113.0921 
 785   0.0000       4.158515       113.1590 
 786   0.0000       4.171216       113.5046 
 787   0.0000       4.184137       113.8562 
 788   0.0000       4.189536       114.0031 
 789   0.0000       4.195065       114.1535 
 790   0.0000       4.199726       114.2803 
 791   0.0000       4.209538       114.5474 
 792   0.0000       4.212073       114.6163 
 793   0.0000       4.226507       115.0091 
 794   0.0000       4.237588       115.3106 
 795   0.0000       4.247664       115.5848 
 796   0.0000       4.251869       115.6992 
 797   0.0000       4.261324       115.9565 
 798   0.0000       4.268445       116.1503 
 799   0.0000       4.286177       116.6328 
 800   0.0000       4.294362       116.8555 
 801   0.0000       4.299346       116.9912 
 802   0.0000       4.309890       117.2781 
 803   0.0000       4.311504       117.3220 
 804   0.0000       4.313570       117.3782 
 805   0.0000       4.326929       117.7417 
 806   0.0000       4.336395       117.9993 
 807   0.0000       4.344690       118.2250 
 808   0.0000       4.350582       118.3853 
 809   0.0000       4.355059       118.5072 
 810   0.0000       4.375404       119.0608 
 811   0.0000       4.386414       119.3604 
 812   0.0000       4.398452       119.6880 
 813   0.0000       4.403622       119.8286 
 814   0.0000       4.413758       120.1045 
 815   0.0000       4.421591       120.3176 
 816   0.0000       4.430635       120.5637 
 817   0.0000       4.438543       120.7789 
 818   0.0000       4.443206       120.9058 
 819   0.0000       4.458962       121.3345 
 820   0.0000       4.466656       121.5439 
 821   0.0000       4.471884       121.6862 
 822   0.0000       4.486032       122.0711 
 823   0.0000       4.501612       122.4951 
 824   0.0000       4.504300       122.5682 
 825   0.0000       4.513795       122.8266 
 826   0.0000       4.528466       123.2258 
 827   0.0000       4.545693       123.6946 
 828   0.0000       4.557209       124.0080 
 829   0.0000       4.563567       124.1810 
 830   0.0000       4.579847       124.6240 
 831   0.0000       4.590037       124.9013 
 832   0.0000       4.595792       125.0579 
 833   0.0000       4.609410       125.4284 
 834   0.0000       4.616983       125.6345 
 835   0.0000       4.630142       125.9926 
 836   0.0000       4.639844       126.2566 
 837   0.0000       4.663123       126.8900 
 838   0.0000       4.665501       126.9547 
 839   0.0000       4.676443       127.2525 
 840   0.0000       4.681103       127.3793 
 841   0.0000       4.696591       127.8007 
 842   0.0000       4.706958       128.0828 
 843   0.0000       4.714495       128.2879 
 844   0.0000       4.736952       128.8990 
 845   0.0000       4.751176       129.2861 
 846   0.0000       4.765082       129.6645 
 847   0.0000       4.768073       129.7459 
 848   0.0000       4.775325       129.9432 
 849   0.0000       4.785465       130.2191 
 850   0.0000       4.800889       130.6388 
 851   0.0000       4.817321       131.0860 
 852   0.0000       4.831631       131.4754 
 853   0.0000       4.842335       131.7666 
 854   0.0000       4.851592       132.0185 
 855   0.0000       4.856854       132.1617 
 856   0.0000       4.865154       132.3876 
 857   0.0000       4.872421       132.5853 
 858   0.0000       4.889702       133.0556 
 859   0.0000       4.898459       133.2938 
 860   0.0000       4.910945       133.6336 
 861   0.0000       4.927465       134.0831 
 862   0.0000       4.941023       134.4521 
 863   0.0000       4.951355       134.7332 
 864   0.0000       4.959315       134.9498 
 865   0.0000       4.961622       135.0126 
 866   0.0000       4.970888       135.2648 
 867   0.0000       4.983016       135.5948 
 868   0.0000       4.989584       135.7735 
 869   0.0000       5.007534       136.2619 
 870   0.0000       5.017923       136.5446 
 871   0.0000       5.024706       136.7292 
 872   0.0000       5.030352       136.8828 
 873   0.0000       5.052177       137.4767 
 874   0.0000       5.058686       137.6538 
 875   0.0000       5.073140       138.0471 
 876   0.0000       5.079722       138.2263 
 877   0.0000       5.093601       138.6039 
 878   0.0000       5.096546       138.6841 
 879   0.0000       5.118288       139.2757 
 880   0.0000       5.130031       139.5953 
 881   0.0000       5.144073       139.9773 
 882   0.0000       5.158491       140.3697 
 883   0.0000       5.178753       140.9210 
 884   0.0000       5.185611       141.1077 
 885   0.0000       5.192081       141.2837 
 886   0.0000       5.212533       141.8402 
 887   0.0000       5.221322       142.0794 
 888   0.0000       5.232709       142.3893 
 889   0.0000       5.258737       143.0975 
 890   0.0000       5.270325       143.4128 
 891   0.0000       5.284586       143.8009 
 892   0.0000       5.290854       143.9715 
 893   0.0000       5.307060       144.4125 
 894   0.0000       5.312508       144.5607 
 895   0.0000       5.332364       145.1010 
 896   0.0000       5.348538       145.5411 
 897   0.0000       5.360946       145.8787 
 898   0.0000       5.381526       146.4388 
 899   0.0000       5.387275       146.5952 
 900   0.0000       5.392061       146.7254 
 901   0.0000       5.405780       147.0988 
 902   0.0000       5.408307       147.1675 
 903   0.0000       5.421334       147.5220 
 904   0.0000       5.440259       148.0370 
 905   0.0000       5.454431       148.4226 
 906   0.0000       5.456535       148.4799 
 907   0.0000       5.473289       148.9358 
 908   0.0000       5.483327       149.2089 
 909   0.0000       5.491708       149.4370 
 910   0.0000       5.502808       149.7390 
 911   0.0000       5.528235       150.4309 
 912   0.0000       5.533090       150.5630 
 913   0.0000       5.538191       150.7018 
 914   0.0000       5.563131       151.3805 
 915   0.0000       5.573991       151.6760 
 916   0.0000       5.576632       151.7479 
 917   0.0000       5.593958       152.2193 
 918   0.0000       5.608163       152.6059 
 919   0.0000       5.615045       152.7931 
 920   0.0000       5.625000       153.0640 
 921   0.0000       5.638214       153.4236 
 922   0.0000       5.647759       153.6833 
 923   0.0000       5.657151       153.9389 
 924   0.0000       5.665729       154.1723 
 925   0.0000       5.674480       154.4105 
 926   0.0000       5.686843       154.7469 
 927   0.0000       5.693524       154.9287 
 928   0.0000       5.705828       155.2635 
 929   0.0000       5.707225       155.3015 
 930   0.0000       5.720878       155.6730 
 931   0.0000       5.751735       156.5127 
 932   0.0000       5.757577       156.6716 
 933   0.0000       5.766180       156.9057 
 934   0.0000       5.775739       157.1659 
 935   0.0000       5.800861       157.8495 
 936   0.0000       5.809117       158.0741 
 937   0.0000       5.820065       158.3720 
 938   0.0000       5.837496       158.8464 
 939   0.0000       5.853063       159.2699 
 940   0.0000       5.861277       159.4935 
 941   0.0000       5.875263       159.8740 
 942   0.0000       5.892337       160.3387 
 943   0.0000       5.915764       160.9761 
 944   0.0000       5.923815       161.1952 
 945   0.0000       5.941756       161.6834 
 946   0.0000       5.985955       162.8861 
 947   0.0000       6.065492       165.0504 
 948   0.0000       6.101417       166.0280 
 949   0.0000       6.114124       166.3738 
 950   0.0000       6.144412       167.1979 
 951   0.0000       6.156552       167.5283 
 952   0.0000       6.168244       167.8465 
 953   0.0000       6.186806       168.3516 
 954   0.0000       6.200162       168.7150 
 955   0.0000       6.212515       169.0511 
 956   0.0000       6.230243       169.5335 
 957   0.0000       6.238075       169.7467 
 958   0.0000       6.257505       170.2754 
 959   0.0000       6.288820       171.1275 
 960   0.0000       6.297527       171.3644 
 961   0.0000       6.324178       172.0896 
 962   0.0000       6.344006       172.6292 
 963   0.0000       6.353945       172.8996 
 964   0.0000       6.371240       173.3703 
 965   0.0000       6.385106       173.7476 
 966   0.0000       6.427420       174.8990 
 967   0.0000       6.440669       175.2595 
 968   0.0000       6.482839       176.4070 
 969   0.0000       6.524961       177.5532 
 970   0.0000       6.580978       179.0775 
 971   0.0000       6.651305       180.9912 
 972   0.0000       6.832681       185.9267 
 973   0.0000       6.851987       186.4520 
 974   0.0000       6.908528       187.9906 
 975   0.0000       6.916216       188.1998 
 976   0.0000       6.930484       188.5881 
 977   0.0000       6.933695       188.6754 
 978   0.0000       6.964878       189.5240 
 979   0.0000       6.994724       190.3361 
 980   0.0000       6.998268       190.4326 
 981   0.0000       7.026659       191.2051 
 982   0.0000       7.079544       192.6442 
 983   0.0000       7.097849       193.1423 
 984   0.0000       7.138838       194.2577 
 985   0.0000       7.165942       194.9952 
 986   0.0000       7.327961       199.4039 
 987   0.0000       7.403126       201.4493 
 988   0.0000       7.479822       203.5363 
 989   0.0000       7.566726       205.9011 
 990   0.0000       7.608292       207.0322 
 991   0.0000       7.623136       207.4361 
 992   0.0000       7.734292       210.4608 
 993   0.0000       7.770167       211.4370 
 994   0.0000       7.792880       212.0550 
 995   0.0000       7.850048       213.6107 
 996   0.0000       8.062249       219.3849 
 997   0.0000       8.139077       221.4755 
 998   0.0000       8.372312       227.8222 
 999   0.0000       9.444159       256.9886 
 1000   0.0000       9.452108       257.2049 
 1001   0.0000       9.474010       257.8009 
 1002   0.0000       9.498264       258.4609 
 1003   0.0000       9.506196       258.6767 
 1004   0.0000       9.529484       259.3104 
 1005   0.0000       9.777518       266.0598 
 1006   0.0000      10.112442       275.1735 
 1007   0.0000      10.137322       275.8506 
 1008   0.0000      10.155116       276.3348 
 1009   0.0000      10.220058       278.1019 
 1010   0.0000      10.237762       278.5837 
 1011   0.0000      10.257531       279.1216 
 1012   0.0000      10.421691       283.5886 
 1013   0.0000      10.438397       284.0432 
 1014   0.0000      10.580165       287.9009 
 1015   0.0000      15.899616       432.6506 
 1016   0.0000      17.805290       484.5066 
 1017   0.0000      18.157237       494.0835 
 1018   0.0000      18.589621       505.8493 
 1019   0.0000      18.677616       508.2438 
 1020   0.0000      18.990251       516.7510 
 1021   0.0000      19.139473       520.8115 
 1022   0.0000      19.931893       542.3744 
 1023   0.0000      20.377510       554.5002 
 1024   0.0000      21.786391       592.8378 

                 SPIN DOWN ORBITALS
  NO   OCC          E(Eh)            E(eV) 
   0   1.0000    -261.539554     -7116.8531 
   1   1.0000    -104.772535     -2851.0056 
   2   1.0000    -104.770703     -2850.9558 
   3   1.0000    -104.766234     -2850.8342 
   4   1.0000     -32.048947      -872.0962 
   5   1.0000     -27.527117      -749.0509 
   6   1.0000     -27.526841      -749.0434 
   7   1.0000     -27.526298      -749.0286 
   8   1.0000     -20.536786      -558.8344 
   9   1.0000     -11.415175      -310.6227 
  10   1.0000     -11.334925      -308.4390 
  11   1.0000     -11.295556      -307.3677 
  12   1.0000     -11.285721      -307.1001 
  13   1.0000     -11.284161      -307.0576 
  14   1.0000     -11.269348      -306.6546 
  15   1.0000     -11.235057      -305.7214 
  16   1.0000     -11.233572      -305.6810 
  17   1.0000     -10.498996      -285.6922 
  18   1.0000     -10.497289      -285.6458 
  19   1.0000     -10.492716      -285.5213 
  20   1.0000      -7.964909      -216.7362 
  21   1.0000      -7.964423      -216.7230 
  22   1.0000      -7.964333      -216.7205 
  23   1.0000      -7.963164      -216.6887 
  24   1.0000      -7.962656      -216.6749 
  25   1.0000      -7.962604      -216.6735 
  26   1.0000      -7.958704      -216.5674 
  27   1.0000      -7.957932      -216.5463 
  28   1.0000      -7.957868      -216.5446 
  29   1.0000      -4.124311      -112.2282 
  30   1.0000      -2.646314       -72.0099 
  31   1.0000      -2.646174       -72.0061 
  32   1.0000      -2.645181       -71.9790 
  33   1.0000      -1.329623       -36.1809 
  34   1.0000      -1.183559       -32.2063 
  35   1.0000      -1.092690       -29.7336 
  36   1.0000      -1.034436       -28.1484 
  37   1.0000      -1.030212       -28.0335 
  38   1.0000      -1.023854       -27.8605 
  39   1.0000      -1.017719       -27.6936 
  40   1.0000      -1.014780       -27.6136 
  41   1.0000      -0.962846       -26.2004 
  42   1.0000      -0.933135       -25.3919 
  43   1.0000      -0.806396       -21.9431 
  44   1.0000      -0.765139       -20.8205 
  45   1.0000      -0.705851       -19.2072 
  46   1.0000      -0.690185       -18.7809 
  47   1.0000      -0.674644       -18.3580 
  48   1.0000      -0.638684       -17.3795 
  49   1.0000      -0.636593       -17.3226 
  50   1.0000      -0.620331       -16.8801 
  51   1.0000      -0.607182       -16.5222 
  52   1.0000      -0.597436       -16.2571 
  53   1.0000      -0.594874       -16.1873 
  54   1.0000      -0.585041       -15.9198 
  55   1.0000      -0.576281       -15.6814 
  56   1.0000      -0.558177       -15.1888 
  57   1.0000      -0.543108       -14.7787 
  58   1.0000      -0.537338       -14.6217 
  59   1.0000      -0.524493       -14.2722 
  60   1.0000      -0.515465       -14.0265 
  61   1.0000      -0.498185       -13.5563 
  62   1.0000      -0.467035       -12.7087 
  63   1.0000      -0.463576       -12.6145 
  64   1.0000      -0.453928       -12.3520 
  65   1.0000      -0.443055       -12.0561 
  66   1.0000      -0.435129       -11.8405 
  67   1.0000      -0.429732       -11.6936 
  68   1.0000      -0.429609       -11.6903 
  69   1.0000      -0.409151       -11.1336 
  70   1.0000      -0.401190       -10.9169 
  71   1.0000      -0.396808       -10.7977 
  72   0.0000       0.004853         0.1321 
  73   0.0000       0.014348         0.3904 
  74   0.0000       0.020629         0.5613 
  75   0.0000       0.022593         0.6148 
  76   0.0000       0.030067         0.8182 
  77   0.0000       0.037012         1.0071 
  78   0.0000       0.039583         1.0771 
  79   0.0000       0.043251         1.1769 
  80   0.0000       0.043826         1.1926 
  81   0.0000       0.047395         1.2897 
  82   0.0000       0.056623         1.5408 
  83   0.0000       0.059856         1.6288 
  84   0.0000       0.060537         1.6473 
  85   0.0000       0.064046         1.7428 
  86   0.0000       0.066141         1.7998 
  87   0.0000       0.071103         1.9348 
  88   0.0000       0.071604         1.9484 
  89   0.0000       0.080492         2.1903 
  90   0.0000       0.085649         2.3306 
  91   0.0000       0.088910         2.4194 
  92   0.0000       0.090109         2.4520 
  93   0.0000       0.092569         2.5189 
  94   0.0000       0.099331         2.7029 
  95   0.0000       0.101017         2.7488 
  96   0.0000       0.109854         2.9893 
  97   0.0000       0.116356         3.1662 
  98   0.0000       0.118081         3.2131 
  99   0.0000       0.120741         3.2855 
 100   0.0000       0.122323         3.3286 
 101   0.0000       0.127533         3.4704 
 102   0.0000       0.127713         3.4752 
 103   0.0000       0.129449         3.5225 
 104   0.0000       0.130496         3.5510 
 105   0.0000       0.131866         3.5883 
 106   0.0000       0.133344         3.6285 
 107   0.0000       0.136451         3.7130 
 108   0.0000       0.137815         3.7501 
 109   0.0000       0.138288         3.7630 
 110   0.0000       0.141159         3.8411 
 111   0.0000       0.146467         3.9856 
 112   0.0000       0.149415         4.0658 
 113   0.0000       0.152149         4.1402 
 114   0.0000       0.153753         4.1838 
 115   0.0000       0.156046         4.2462 
 116   0.0000       0.158271         4.3068 
 117   0.0000       0.161062         4.3827 
 118   0.0000       0.162762         4.4290 
 119   0.0000       0.167848         4.5674 
 120   0.0000       0.169595         4.6149 
 121   0.0000       0.174236         4.7412 
 122   0.0000       0.175454         4.7743 
 123   0.0000       0.183259         4.9867 
 124   0.0000       0.185251         5.0409 
 125   0.0000       0.188631         5.1329 
 126   0.0000       0.194449         5.2912 
 127   0.0000       0.196157         5.3377 
 128   0.0000       0.198822         5.4102 
 129   0.0000       0.201697         5.4884 
 130   0.0000       0.204182         5.5561 
 131   0.0000       0.207977         5.6593 
 132   0.0000       0.209810         5.7092 
 133   0.0000       0.214702         5.8423 
 134   0.0000       0.218402         5.9430 
 135   0.0000       0.223552         6.0832 
 136   0.0000       0.228076         6.2063 
 137   0.0000       0.230683         6.2772 
 138   0.0000       0.233245         6.3469 
 139   0.0000       0.238593         6.4924 
 140   0.0000       0.239383         6.5139 
 141   0.0000       0.245222         6.6728 
 142   0.0000       0.246520         6.7081 
 143   0.0000       0.248378         6.7587 
 144   0.0000       0.252235         6.8637 
 145   0.0000       0.253650         6.9022 
 146   0.0000       0.258659         7.0385 
 147   0.0000       0.262537         7.1440 
 148   0.0000       0.263298         7.1647 
 149   0.0000       0.267197         7.2708 
 150   0.0000       0.272928         7.4267 
 151   0.0000       0.279245         7.5986 
 152   0.0000       0.284567         7.7435 
 153   0.0000       0.287207         7.8153 
 154   0.0000       0.288657         7.8547 
 155   0.0000       0.292299         7.9538 
 156   0.0000       0.296532         8.0690 
 157   0.0000       0.301251         8.1974 
 158   0.0000       0.303939         8.2706 
 159   0.0000       0.309880         8.4323 
 160   0.0000       0.312051         8.4913 
 161   0.0000       0.317200         8.6314 
 162   0.0000       0.319332         8.6895 
 163   0.0000       0.326280         8.8785 
 164   0.0000       0.328869         8.9490 
 165   0.0000       0.330481         8.9928 
 166   0.0000       0.337778         9.1914 
 167   0.0000       0.343439         9.3455 
 168   0.0000       0.346426         9.4267 
 169   0.0000       0.349523         9.5110 
 170   0.0000       0.352451         9.5907 
 171   0.0000       0.356073         9.6892 
 172   0.0000       0.357981         9.7412 
 173   0.0000       0.363881         9.9017 
 174   0.0000       0.365193         9.9374 
 175   0.0000       0.368224        10.0199 
 176   0.0000       0.370101        10.0710 
 177   0.0000       0.375915        10.2292 
 178   0.0000       0.377616        10.2754 
 179   0.0000       0.380820        10.3626 
 180   0.0000       0.386021        10.5042 
 181   0.0000       0.390816        10.6346 
 182   0.0000       0.394926        10.7465 
 183   0.0000       0.396127        10.7792 
 184   0.0000       0.400139        10.8883 
 185   0.0000       0.402097        10.9416 
 186   0.0000       0.404682        11.0120 
 187   0.0000       0.407866        11.0986 
 188   0.0000       0.410311        11.1651 
 189   0.0000       0.412920        11.2361 
 190   0.0000       0.414967        11.2918 
 191   0.0000       0.422806        11.5051 
 192   0.0000       0.427694        11.6381 
 193   0.0000       0.429367        11.6837 
 194   0.0000       0.431673        11.7464 
 195   0.0000       0.435859        11.8603 
 196   0.0000       0.437751        11.9118 
 197   0.0000       0.440513        11.9870 
 198   0.0000       0.446830        12.1589 
 199   0.0000       0.450264        12.2523 
 200   0.0000       0.457267        12.4429 
 201   0.0000       0.461052        12.5459 
 202   0.0000       0.462411        12.5828 
 203   0.0000       0.463995        12.6260 
 204   0.0000       0.468267        12.7422 
 205   0.0000       0.469244        12.7688 
 206   0.0000       0.473736        12.8910 
 207   0.0000       0.475389        12.9360 
 208   0.0000       0.478309        13.0155 
 209   0.0000       0.480690        13.0802 
 210   0.0000       0.484752        13.1908 
 211   0.0000       0.488755        13.2997 
 212   0.0000       0.491008        13.3610 
 213   0.0000       0.495215        13.4755 
 214   0.0000       0.495502        13.4833 
 215   0.0000       0.501145        13.6368 
 216   0.0000       0.504096        13.7171 
 217   0.0000       0.508508        13.8372 
 218   0.0000       0.513093        13.9620 
 219   0.0000       0.514158        13.9910 
 220   0.0000       0.516013        14.0414 
 221   0.0000       0.519168        14.1273 
 222   0.0000       0.526158        14.3175 
 223   0.0000       0.527286        14.3482 
 224   0.0000       0.530850        14.4452 
 225   0.0000       0.533283        14.5114 
 226   0.0000       0.537879        14.6364 
 227   0.0000       0.541128        14.7248 
 228   0.0000       0.543285        14.7835 
 229   0.0000       0.546922        14.8825 
 230   0.0000       0.549008        14.9393 
 231   0.0000       0.554661        15.0931 
 232   0.0000       0.560096        15.2410 
 233   0.0000       0.564436        15.3591 
 234   0.0000       0.569154        15.4875 
 235   0.0000       0.573090        15.5946 
 236   0.0000       0.577586        15.7169 
 237   0.0000       0.579420        15.7668 
 238   0.0000       0.580306        15.7909 
 239   0.0000       0.584814        15.9136 
 240   0.0000       0.588791        16.0218 
 241   0.0000       0.591012        16.0823 
 242   0.0000       0.594513        16.1775 
 243   0.0000       0.599032        16.3005 
 244   0.0000       0.601453        16.3664 
 245   0.0000       0.604971        16.4621 
 246   0.0000       0.606178        16.4949 
 247   0.0000       0.609922        16.5968 
 248   0.0000       0.614827        16.7303 
 249   0.0000       0.619849        16.8670 
 250   0.0000       0.627024        17.0622 
 251   0.0000       0.629854        17.1392 
 252   0.0000       0.635018        17.2797 
 253   0.0000       0.635817        17.3015 
 254   0.0000       0.637389        17.3442 
 255   0.0000       0.641438        17.4544 
 256   0.0000       0.645941        17.5770 
 257   0.0000       0.650518        17.7015 
 258   0.0000       0.657168        17.8824 
 259   0.0000       0.665508        18.1094 
 260   0.0000       0.668369        18.1872 
 261   0.0000       0.671190        18.2640 
 262   0.0000       0.673130        18.3168 
 263   0.0000       0.682218        18.5641 
 264   0.0000       0.683002        18.5854 
 265   0.0000       0.690872        18.7996 
 266   0.0000       0.692167        18.8348 
 267   0.0000       0.695651        18.9296 
 268   0.0000       0.696876        18.9629 
 269   0.0000       0.699752        19.0412 
 270   0.0000       0.705456        19.1964 
 271   0.0000       0.713256        19.4087 
 272   0.0000       0.717010        19.5108 
 273   0.0000       0.724134        19.7047 
 274   0.0000       0.725332        19.7373 
 275   0.0000       0.733634        19.9632 
 276   0.0000       0.736294        20.0356 
 277   0.0000       0.741435        20.1755 
 278   0.0000       0.745144        20.2764 
 279   0.0000       0.750376        20.4188 
 280   0.0000       0.758012        20.6266 
 281   0.0000       0.761198        20.7132 
 282   0.0000       0.763879        20.7862 
 283   0.0000       0.775411        21.1000 
 284   0.0000       0.776489        21.1294 
 285   0.0000       0.783007        21.3067 
 286   0.0000       0.789296        21.4778 
[...]
  | sigma^2 in % of trace(Dij) retained ...   8.80e+00
  | sigma^2 in % of trace(Dip) retained ...   1.60e+01
  | sigma^2 in % of trace(Dpq) retained ...   1.33e-01
  | Av. % of trace(Di) retained         ...  99.998528325972
  | Av. % of trace(Dp) retained         ...  99.999996815926
  | sigma^2 in % of trace(Di) retained  ...   7.69e-07
  | sigma^2 in % of trace(Dp) retained  ...   6.92e-12
 Distributions of % trace(Dij) recovered:
  |       >= 99.9  ...   105 ( 20.4 % of all IJ-pairs)
  |   [80.0, 90.0) ...    35 (  6.8 % of all IJ-pairs)
  |   [90.0, 99.0) ...   280 ( 54.4 % of all IJ-pairs)
  |   [99.0, 99.9) ...    95 ( 18.4 % of all IJ-pairs)
 Distributions of % trace(Dip) recovered:
  |   [80.0, 90.0) ...    10 (  8.5 % of all IP-pairs)
  |   [90.0, 99.0) ...    64 ( 54.7 % of all IP-pairs)
  |   [99.0, 99.9) ...    43 ( 36.8 % of all IP-pairs)
 Distributions of % trace(Dpq) recovered:
  |       >= 99.9  ...     5 ( 33.3 % of all PQ-pairs)
  |   [90.0, 99.0) ...     1 (  6.7 % of all PQ-pairs)
  |   [99.0, 99.9) ...     9 ( 60.0 % of all PQ-pairs)
 Distributions of % trace(Di) recovered :
  |       >= 99.9  ...    43 (100.0 % of all I-pairs )
 Distributions of % trace(Dp) recovered :
  |       >= 99.9  ...     5 (100.0 % of all P-pairs )

                       ===========================
                       1129 OF 1733 PAIRS ARE KEPT
                       ===========================

 Initial PAO correlation energy (all pairs)    ...  -2.6867669117 Eh
 Energy constituents in PAO basis (Eh):
  | Vijab(+0) ...  -2.2556248489
  | Viab (-1) ...  -0.1761328037
  | Vab  (-2) ...  -0.0573605681
  | Va   (-1) ...  -0.0000429348
  | Vija (+1) ...  -0.0735945371
  | Vij  (+2) ...  -0.0155256000
  | Via  (+0) ...  -0.1083229728
  | Vi   (+1) ...  -0.0001626465
 Initial PNO correlation energy                ...  -2.6527621581 Eh
 Energy constituents in PNO basis (Eh):
  | Vijab(+0) ...  -2.2375814300 (err=  0.0180434190)
  | Viab (-1) ...  -0.1618022292 (err=  0.0143305744)
  | Vab  (-2) ...  -0.0568812199 (err=  0.0004793482)
  | Va   (-1) ...  -0.0000241241 (err=  0.0000188107)
  | Vija (+1) ...  -0.0726387120 (err=  0.0009558251)
  | Vij  (+2) ...  -0.0154748745 (err=  0.0000507255)
  | Via  (+0) ...  -0.1081974506 (err=  0.0001255222)
  | Vi   (+1) ...  -0.0001621178 (err=  0.0000005286)
 Sum of total truncation errors ...   0.0340047536 Eh
  | Pair screening ...   0.0110728321 Eh
  | PNO truncation ...   0.0229319215 Eh

 UMP2 correlation energy (PAO) ...  -2.6818177704
  | alpha-alpha ...  -0.3845543177 (NP_aa=  942)
  | alpha-beta  ...  -1.9921032162 (NP_ab= 1708)
  | beta -beta  ...  -0.3051602365 (NP_bb=  733)
 UMP2 correlation energy (PNO) ...  -2.6474637405
  | alpha-alpha ...  -0.3725788389 (err=  0.0119754788, NP_aa=  599)
  | alpha-beta  ...  -1.9736316787 (err=  0.0184715375, NP_ab= 1104)
  | beta -beta  ...  -0.3012532229 (err=  0.0039070136, NP_bb=  472)
 Sum of total UMP2 truncation errors ...   0.0343540300 Eh
  | Pair screening ...   0.0110769239 Eh
  | PNO truncation ...   0.0232771061 Eh
 Timing for NEV-PNO construction (sec.)
  | Intermediate construction  ..           51.777
  | Amplitude construction     ..           68.992
  | Total time                 ..          120.768
 Making pair pair interaction lists ...      ok
 Total size for 2-ext PNO integrals ...     11.0 MB
Checking the number of SOMO/SOMO doubles PNOs ... 
 #Truncate: (72, 72)[181] -> [84] .. 
 #Truncate: (73, 73)[180] -> [84] .. 
 #Truncate: (74, 74)[179] -> [84] .. 
 #Truncate: (75, 75)[178] -> [84] .. 
 #Truncate: (76, 76)[178] -> [84] .. 

--------------------------------
LOCAL RI TRANSFORMATION (VABPAO)
--------------------------------

Number of PAOs:    1030
Basis functions:   1025 (343 shells)
Aux. functions:    2424 (644 shells)

Processing maps (0.0 sec)
Average map sizes:
   Aux shells -> PAOs           1030.0
   PAOs       -> AO shells       343.0

Calculating integrals (182.6 sec, 37370.165 MB)
Finished
-----------------------------
LOCAL RI TRANSFORMATION (IJV)
-----------------------------

Orbital window:      29 to 76
Basis functions:   1025 (343 shells)
Aux. functions:    2424 (644 shells)

Processing maps (0.0 sec)
Average map sizes:
   Aux shells -> MOs(i)           46.7
   Aux shells -> MOs(j)           48.0
   MOs        -> AO shells       341.1

Calculating integrals (23.3 sec, 41.512 MB)
Sorting integrals (0.4 sec, 41.485 MB)
Total time for the integral transformation: 23.8 sec


-------------------------------------
Pair Pair Term precalculation with     
RI-(ij|mn) and (im|jn) transformation  
ON THE FLY                             
-------------------------------------

   IBatch   1 (of   2)              ... done ( 1139.430 sec)
   IBatch   2 (of   2)              ... done ( 1172.004 sec)
Total EXT                           ...        2311.434 sec

---------------------
RI-PNO TRANSFORMATION
---------------------

Total Number of PNOs                   ... 34753
Total Number of IJ-PNOs                ... 30580
Total Number of IP-PNOs                ...  3225
Total Number of PQ-PNOs                ...   948
Total Number of IJ-pairs               ...   987
Total Number of PI-pairs               ...   117
Total Number of PQ-pairs               ...    25
Average number of PNOs per pair        ...    30
Maximal number of PNOs per pair        ...    84
>> Statistics for ij-pairs..
   #pairs with  1 -  5 PNOs   :    0
   #pairs with  6 - 10 PNOs   :    0
   #pairs with 11 - 15 PNOs   :   52
   #pairs with 16 - 20 PNOs   :  246
   #pairs with 21 - 25 PNOs   :  186
   #pairs with 26 - 30 PNOs   :  134
   #pairs with 31 - 35 PNOs   :   78
   #pairs with 36 - 40 PNOs   :   66
   #pairs with 41 - 45 PNOs   :   46
   #pairs with 46 - 50 PNOs   :   11
   #pairs with 51 - 55 PNOs   :   40
   #pairs with 56 - 60 PNOs   :   52
   #pairs with 61 - 65 PNOs   :   72
   #pairs with 66 - 70 PNOs   :    4
>> Statistics for ip-pairs..
   #pairs with  1 -  5 PNOs   :    0
   #pairs with  6 - 10 PNOs   :    1
   #pairs with 11 - 15 PNOs   :   16
   #pairs with 16 - 20 PNOs   :    3
   #pairs with 21 - 25 PNOs   :   25
   #pairs with 26 - 30 PNOs   :   15
   #pairs with 31 - 35 PNOs   :   42
   #pairs with 36 - 40 PNOs   :   15
   #pairs with 41 - 45 PNOs   :    0
   #pairs with 46 - 50 PNOs   :    0
>> Statistics for pq-pairs..
   #pairs with  1 -  5 PNOs   :    0
   #pairs with  6 - 10 PNOs   :    0
   #pairs with 11 - 15 PNOs   :    0
   #pairs with 16 - 20 PNOs   :    0
   #pairs with 21 - 25 PNOs   :    6
   #pairs with 26 - 30 PNOs   :   14
   #pairs with 31 - 35 PNOs   :    0
   #pairs with 36 - 40 PNOs   :    0
   #pairs with 41 - 45 PNOs   :    0
   #pairs with 46 - 50 PNOs   :    0
   #pairs with 81 - 85 PNOs   :    5

Generation of (ij|ab)[P] integrals            ... on
Generation of (ia|bc)[P],(ja|bc)[P] integrals ... on
Storage of 3 and 4 external integrals         ... on
Generation of ALL (ka|bc)[P] integrals        ... on
Keep RI integrals in memory                   ... off

Ibatch:  1 (of  1)
Starting 2-4 index PNO integral generation ... done

Timings:
Total PNO integral transformation time     ...       2106.979 sec
Size of the 3-external file                ...       280 MB
Size of the 4-external file                ...      1867 MB
Size of the IKJL file                      ...        19 MB
Size of the all 3-external file            ...      6719 MB
Size of the 1-external file                ...        22 MB

Size of the PAO/PNO coefficient matrices   ...     227.9 MB

Making pair/pair overlap matrices          ... done (  335.951 sec)
Size of the pair overlap file              ...    2473.0 MB
Total # unrestricted pairs ...       2175
  # of alpha-alpha pairs   ...        599
  # of alpha-beta pairs    ...       1104
  # of beta-beta pairs     ...        472
Constructing the guess amplitudes          ... done (    0.595 sec)

-------------------------
FINAL STARTUP INFORMATION
-------------------------

E(0)                                       ...  -3028.435809852
E(SL-UMP2 in NEV-PNO space)                ...     -2.682734093
Initial E(tot)                             ...  -3031.118543945
<T|T>                                      ...      0.532237837
Number of unrestricted pairs included      ... 2175
Total number of pairs                      ... 4095
----------------------------------------------------------
                     OPEN-SHELL COUPLED CLUSTER ITERATIONS
----------------------------------------------------------

Number of PNO amplitudes to be optimized        ...          2094791
Number of canonical amplitudes for strong pairs ...       1964487003
Untruncated number of canonical amplitudes      ...       3698645738

Iter       E(tot)           E(Corr)          Delta-E          Residual     Time
  0  -3031.125751885     -2.654671681      0.028062412      0.022772706 1793.94
                           *** Turning on DIIS ***
  1  -3031.241651083     -2.770570879     -0.115899198      0.010772268 1733.30
  2  -3031.306059226     -2.834979021     -0.064408142      0.008983642 1856.18
  3  -3031.327132445     -2.856052240     -0.021073219      0.003952175 2060.36
  4  -3031.334225639     -2.863145434     -0.007093194      0.002819352 2084.44
  5  -3031.337787537     -2.866707332     -0.003561898      0.002482483 2050.48
  6  -3031.339104786     -2.868024581     -0.001317249      0.001134437 2053.87
  7  -3031.339905993     -2.868825789     -0.000801208      0.000647494 2052.63
  8  -3031.340078084     -2.868997880     -0.000172091      0.000203795 2058.71
  9  -3031.340118105     -2.869037900     -0.000040020      0.000132628 2068.78
 10  -3031.340115581     -2.869035377      0.000002523      0.000062772 2082.42
 11  -3031.340126423     -2.869046218     -0.000010841      0.000045335 2046.69
 12  -3031.340131854     -2.869051649     -0.000005431      0.000023853 2082.89
 13  -3031.340134924     -2.869054719     -0.000003070      0.000012953 2059.48
 14  -3031.340135421     -2.869055216     -0.000000497      0.000007585 2052.25
               --- The CCSD iterations have converged ---

E(0)                                       ...  -3028.435809852
E(CORR)(strong-pairs)                      ...     -2.869055216
E(CORR)(weak-pairs)                        ...     -0.035270353
E(CORR)(corrected)                         ...     -2.904325569
E(TOT)                                     ...  -3031.340135421
Singles norm <S|S>**1/2                    ...      0.188477159 ( 0.063374603, 0.125102556)  
T1 diagnostic                              ...      0.019757775                              
<S**2>(linearized)                         ...      8.7507308 (ideal value:      8.7500000)

----------------------
LARGEST PNO AMPLITUDES
----------------------
  51b-> 75b  -1b-> -1b       0.058569
  44a-> 77a  44b-> 77b       0.049693
  52b-> 72b  -1b-> -1b       0.049502
  43b-> 77b  -1b-> -1b       0.047569
  49b-> 74b  -1b-> -1b       0.045742
  46a-> 79a  46b-> 79b       0.045471
  43a-> 77a  -1a-> -1a       0.044330
  53a-> 77a  53b-> 77b       0.044177
  29b-> 75b  -1b-> -1b       0.044067
  66a-> 77a  66b-> 77b       0.043360
  43b-> 75b  -1b-> -1b       0.043266
  63a-> 77a  63b-> 77b       0.043211
  49b-> 72b  -1b-> -1b       0.043143
  67a-> 77a  67b-> 77b       0.042844
  59a-> 77a  59b-> 77b       0.042725
  69a-> 77a  69b-> 77b       0.042548

Total # unrestricted pairs ...       1208
  # of alpha-alpha pairs   ...        343
  # of alpha-beta pairs    ...        604
  # of beta-beta pairs     ...        261

-------------------------------------------
DLPNO BASED TRIPLES CORRECTION
-------------------------------------------

Singles multiplier          ...  1.000000
Fragment selection                          .... not used
TCutTNO                     ... 1.000e-09
TCutMP2Pairs                ... 1.000e-05
TCutDOStrong                ... 2.000e-02
TCutMKNStrong               ... 1.000e-02
TCutDOWeak                  ... 4.000e-02
TCutMKNWeak                 ... 1.000e-01
NTCutTNO                    ... 1

Number of Triples that are to be computed         ...     35820

 . . . . . . . . .
10% done  
20% done  
30% done  
40% done  
50% done  
60% done  
70% done  
80% done  
90% done  
          Batch   1   done (  17640.537 sec)

Triples-Correction TCutTNO=   1.000e-09 (NWeakPairs = 0  1  2  3)  -0.115747612854   -0.001839344033    0.000000000000    0.000000000000
Triples-Correction  -0.117586956887

Triples timings:
Total time                      ... 18381.022 sec

Triples List generation         ...     0.000 sec
TNO generation                  ...   740.204 sec
Pair density generation         ...     0.100 sec
Look up tables                  ...     0.122 sec
Generating 3-index integrals    ... 11287.021 sec
Make 4-ind.int. from 3-ind.int  ...     3.892 sec
Projecting amplitudes (D + S)   ...  6097.619 sec
Sorting integrals for spin cases...    52.956 sec
Calculate W0/W1                 ...   160.159 sec
Energy contr. (sum over a,b,c)  ...    38.741 sec

Everything after 3-index        ...  6494.008 sec

Energy contribution AAA         ...    24.779 sec
Energy contribution AAB         ...   111.736 sec
Energy contribution ABB         ...   101.863 sec
Energy contribution BBB         ...    13.521 sec
prep                ...     3.302 sec
makeTTNO            ...  6036.336 sec
copyij              ...     0.135 sec
copyil              ...     4.367 sec
transposeij         ...     0.080 sec
newMatInDoubleProj  ...    58.983 sec
BlasInDoubleProj    ...  3240.540 sec
ProjSingles         ...    50.569 sec
ProjDoubles         ...  6047.050 sec
overall Doubles for projection      ... 3307025
used Doubles for projection         ... 3307025


Number of Triples   (0, 1, 2, 3 weak pairs; overall):  17248   12465       0       0  ( 29713)
Number of Atoms     (0, 1, 2, 3 weak pairs; overall):   20.3    14.5     0.0     0.0  (    29)
Number of PAOs      (0, 1, 2, 3 weak pairs; overall):  784.1   588.5     0.0     0.0  (  1025)
Number of AuxFcns   (0, 1, 2, 3 weak pairs; overall):  979.4   589.3     0.0     0.0  (  2424)
Number of TNOs (0, 1, 2, 3 weak pairs         ):   78.3    55.4     0.0     0.0
Aver. Number of NTNO, Atoms, PAOs, AuxFcns / Triples:  29713    68.7    17.9   702.0   815.7

Triples Correction (T)                     ...     -0.117586957
    alpha-alpha-alpha ... -0.003856833 (  3.3%)
    alpha-alpha-beta  ... -0.055193874 ( 46.9%)
    alpha-beta -beta  ... -0.054454904 ( 46.3%)
    beta -beta -beta  ... -0.004081347 (  3.5%)
Final correlation energy                   ...     -3.021912526
E(CCSD)                                    ...  -3031.340135421
E(CCSD(T))                                 ...  -3031.457722378

----------------------------
STATISTICS FOR PAIR-ENERGIES
----------------------------
Minimum, maximum and average ratios of UMP and CCSD pair-energies ... 0.51, 1.42, 1.02


------------------------------------------------------------------------------- 
                                     TIMINGS                                   
------------------------------------------------------------------------------- 


Total execution time                   ...    56844.595 sec

Localization of occupied MO's          ...       11.971 sec (  0.0%)
Fock Matrix Formation                  ...     1402.845 sec (  2.5%)
Differential overlap integrals         ...        1.405 sec (  0.0%)
Organizing maps                        ...        1.700 sec (  0.0%)
RI 3-index integral generations        ...      268.560 sec (  0.5%)
RI-PNO integral transformation         ...     4837.044 sec (  8.5%)
Initial Guess                          ...     1974.586 sec (  3.5%)
DIIS Solver                            ...       17.167 sec (  0.0%)
State Vector Update                    ...        0.791 sec (  0.0%)
Sigma-vector construction              ...    30136.405 sec ( 53.0%)
  <0|H|D>                              ...        0.029 sec (  0.0% of sigma)
  <D|H|D>(0-ext)                       ...     6069.265 sec ( 20.1% of sigma)
  <D|H|D>(2-ext Fock)                  ...        1.535 sec (  0.0% of sigma)
  <D|H|D>(2-ext)                       ...     4568.267 sec ( 15.2% of sigma)
  <D|H|D>(4-ext)                       ...      135.750 sec (  0.5% of sigma)
  <D|H|D>(4-ext-corr)                  ...      858.426 sec (  2.8% of sigma)
  CCSD doubles correction              ...      594.454 sec (  2.0% of sigma)
  <S|H|S>                              ...      728.649 sec (  2.4% of sigma)
  <S|H|D>(1-ext)                       ...      280.252 sec (  0.9% of sigma)
  <D|H|S>(1-ext)                       ...        0.976 sec (  0.0% of sigma)
  <S|H|D>(3-ext)                       ...       22.234 sec (  0.1% of sigma)
  CCSD singles correction              ...        0.005 sec (  0.0% of sigma)
  Fock-dressing                        ...     8381.907 sec ( 27.8% of sigma)
  Singles amplitudes                   ...      119.178 sec (  0.4% of sigma)
  (ik|jl)-dressing                     ...     6609.188 sec ( 21.9% of sigma)
  (ij|ab),(ia|jb)-dressing             ...     1505.789 sec (  5.0% of sigma)
  Pair energies                        ...        0.158 sec (  0.0% of sigma)
Total Time for computing (T)           ...    18579.283 sec ( 32.7% of ALL)


-------------------------   --------------------
FINAL SINGLE POINT ENERGY     -3031.457722377884
-------------------------   --------------------


                            ***************************************
                            *     ORCA property calculations      *
                            ***************************************

                                    ---------------------
                                    Active property flags
                                    ---------------------
   (+) Dipole Moment


------------------------------------------------------------------------------
                       ORCA ELECTRIC PROPERTIES CALCULATION
------------------------------------------------------------------------------

Dipole Moment Calculation                       ... on
Quadrupole Moment Calculation                   ... off
Polarizability Calculation                      ... off
GBWName                                         ... simple-grid-165-225-b3lyp_d3bj-631gd-gas-singlepoint-DLPNO_CCSD_T1-NormalPNO-augtz-gas.gbw
Electron density file                           ... simple-grid-165-225-b3lyp_d3bj-631gd-gas-singlepoint-DLPNO_CCSD_T1-NormalPNO-augtz-gas.scfp.tmp
The origin for moment calculation is the CENTER OF MASS  = ( 0.304518,  0.023258  0.012424)

-------------
DIPOLE MOMENT
-------------
                                X             Y             Z
Electronic contribution:     40.35935       4.18973       1.54889
Nuclear contribution   :    -45.37310      -3.46551      -1.85112
                        -----------------------------------------
Total Dipole Moment    :     -5.01374       0.72421      -0.30223
                        -----------------------------------------
Magnitude (a.u.)       :      5.07478
Magnitude (Debye)      :     12.89908



--------------------
Rotational spectrum 
--------------------
 
Rotational constants in cm-1:     0.019175     0.011865     0.010559 
Rotational constants in MHz :   574.839798   355.715805   316.542130 

 Dipole components along the rotational axes: 
x,y,z [a.u.] :    -5.020762     0.677227    -0.294529 
x,y,z [Debye]:   -12.761764     1.721374    -0.748634 

 

Timings for individual modules:

Sum of individual times         ...    72584.625 sec (=1209.744 min)
GTO integral calculation        ...       13.133 sec (=   0.219 min)   0.0 %
SCF iterations                  ...    15709.330 sec (= 261.822 min)  21.6 %
MDCI module                     ...    56862.162 sec (= 947.703 min)  78.3 %
                             ****ORCA TERMINATED NORMALLY****
TOTAL RUN TIME: 0 days 20 hours 9 minutes 47 seconds 217 msec
