
                                 *****************
                                 * O   R   C   A *
                                 *****************

           --- An Ab Initio, DFT and Semiempirical electronic structure package ---

                  #######################################################
                  #                        -***-                        #
                  #          Department of theory and spectroscopy      #
                  #               Directorship: Frank Neese             #
                  #        Max Planck Institute fuer Kohlenforschung    #
                  #                Kaiser Wilhelm Platz 1               #
                  #                 D-45470 Muelheim/Ruhr               #
                  #                      Germany                        #
                  #                                                     #
                  #                  All rights reserved                #
                  #                        -***-                        #
                  #######################################################


                         Program Version 4.1.2  - RELEASE  -


 With contributions from (in alphabetic order):
   Daniel Aravena         : Magnetic Properties
   Michael Atanasov       : Ab Initio Ligand Field Theory
   Alexander A. Auer      : GIAO ZORA
   Ute Becker             : Parallelization
   Giovanni Bistoni       : ED, Open-shell LED
   Martin Brehm           : Molecular dynamics
   Dmytro Bykov           : SCF Hessian
   Vijay G. Chilkuri      : MRCI spin determinant printing
   Dipayan Datta          : RHF DLPNO-CCSD density
   Achintya Kumar Dutta   : EOM-CC, STEOM-CC
   Dmitry Ganyushin       : Spin-Orbit,Spin-Spin,Magnetic field MRCI
   Miquel Garcia          : C-PCM Hessian
   Yang Guo               : DLPNO-NEVPT2, CIM, IAO-localization
   Andreas Hansen         : Spin unrestricted coupled pair/coupled cluster methods
   Benjamin Helmich-Paris : CASSCF linear response (MC-RPA)
   Lee Huntington         : MR-EOM, pCC
   Robert Izsak           : Overlap fitted RIJCOSX, COSX-SCS-MP3, EOM
   Christian Kollmar      : KDIIS, OOCD, Brueckner-CCSD(T), CCSD density
   Simone Kossmann        : Meta GGA functionals, TD-DFT gradient, OOMP2, MP2 Hessian
   Martin Krupicka        : AUTO-CI
   Lucas Lang             : DCDCAS
   Dagmar Lenk            : GEPOL surface, SMD
   Dimitrios Liakos       : Extrapolation schemes; parallel MDCI
   Dimitrios Manganas     : ROCIS; embedding schemes
   Dimitrios Pantazis     : SARC Basis sets
   Taras Petrenko         : DFT Hessian,TD-DFT gradient, ASA, ECA, R-Raman, ABS, FL, XAS/XES, NRVS
   Peter Pinski           : DLPNO-MP2, DLPNO-MP2 Gradient
   Christoph Reimann      : Effective Core Potentials
   Marius Retegan         : Local ZFS, SOC
   Christoph Riplinger    : Optimizer, TS searches, QM/MM, DLPNO-CCSD(T), (RO)-DLPNO pert. Triples
   Tobias Risthaus        : Range-separated hybrids, TD-DFT gradient, RPA, STAB
   Michael Roemelt        : Restricted open shell CIS
   Masaaki Saitow         : Open-shell DLPNO
   Barbara Sandhoefer     : DKH picture change effects
   Avijit Sen             : IP-ROCIS
   Kantharuban Sivalingam : CASSCF convergence, NEVPT2, FIC-MRCI
   Bernardo de Souza      : ESD, SOC TD-DFT
   Georgi Stoychev        : AutoAux, RI-MP2 NMR
   Willem Van den Heuvel  : Paramagnetic NMR
   Boris Wezisla          : Elementary symmetry handling
   Frank Wennmohs         : Technical directorship


 We gratefully acknowledge several colleagues who have allowed us to
 interface, adapt or use parts of their codes:
   Stefan Grimme, W. Hujo, H. Kruse,             : VdW corrections, initial TS optimization,
                  C. Bannwarth                     DFT functionals, gCP, sTDA/sTD-DF
   Ed Valeev                                     : LibInt (2-el integral package), F12 methods
   Garnet Chan, S. Sharma, J. Yang, R. Olivares  : DMRG
   Ulf Ekstrom                                   : XCFun DFT Library
   Mihaly Kallay                                 : mrcc  (arbitrary order and MRCC methods)
   Andreas Klamt, Michael Diedenhofen            : otool_cosmo (COSMO solvation model)
   Jiri Pittner, Ondrej Demel                    : Mk-CCSD
   Frank Weinhold                                : gennbo (NPA and NBO analysis)
   Christopher J. Cramer and Donald G. Truhlar   : smd solvation model
   Lars Goerigk                                  : TD-DFT with DH, B97 family of functionals
   V. Asgeirsson, H. Jonsson                     : NEB implementation
   FAccTs GmbH                                   : IRC, NEB, NEB-TS, Multilevel


 Your calculation uses the libint2 library for the computation of 2-el integrals
 For citations please refer to: http://libint.valeyev.net

 This ORCA versions uses:
   CBLAS   interface :  Fast vector & matrix operations
   LAPACKE interface :  Fast linear algebra routines
   SCALAPACK package :  Parallel linear algebra routines


----- Orbital basis set information -----
Your calculation utilizes the basis: aug-cc-pVTZ 
    H, B-Ne : Obtained from the ccRepo (grant-hill.group.shef.ac.uk/ccrepo) Feb. 2017
              R. A. Kendall, T. H. Dunning, Jr., R. J. Harrison, J. Chem. Phys. 96, 6796 (1992)
         He : Obtained from the ccRepo (grant-hill.group.shef.ac.uk/ccrepo) Feb. 2017
              D. E. Woon, T. H. Dunning, Jr., J. Chem. Phys. 100, 2975 (1994)
  Li-Be, Na : Obtained from the ccRepo (grant-hill.group.shef.ac.uk/ccrepo) Feb. 2017
              B. P. Prascher, D. E. Woon, K. A. Peterson, T. H. Dunning, Jr., A. K. Wilson, Theor. Chem. Acc. 128, 69 (2011)
         Mg : Obtained from the Peterson Research Group Website (tyr0.chem.wsu.edu/~kipeters) Feb. 2017
              B. P. Prascher, D. E. Woon, K. A. Peterson, T. H. Dunning, Jr., A. K. Wilson, Theor. Chem. Acc. 128, 69 (2011)
      Al-Ar : Obtained from the ccRepo (grant-hill.group.shef.ac.uk/ccrepo) Feb. 2017
              D. E. Woon, T. H. Dunning, Jr., J. Chem. Phys. 98, 1358 (1993)
      Sc-Zn : Obtained from the ccRepo (grant-hill.group.shef.ac.uk/ccrepo) Feb. 2017
              N. B. Balabanov, K. A. Peterson, J. Chem. Phys. 123, 064107 (2005)
              N. B. Balabanov, K. A. Peterson, J. Chem. Phys. 125, 074110 (2006)
      Ga-Kr : Obtained from the ccRepo (grant-hill.group.shef.ac.uk/ccrepo) Feb. 2017
              A. K. Wilson, D. E. Woon, K. A. Peterson, T. H. Dunning, Jr., J. Chem. Phys. 110, 7667 (1999)
     Ag, Au : Obtained from the Peterson Research Group Website (tyr0.chem.wsu.edu/~kipeters) Feb. 2017
              K. A. Peterson, C. Puzzarini, Theor. Chem. Acc. 114, 283 (2005)

----- AuxJ basis set information -----
Your calculation utilizes the AutoAux generation procedure.
  G. L. Stoychev, A. A. Auer, F. Neese, J. Chem. Theory Comput. 13, 554 (2017)

----- AuxC basis set information -----
Your calculation utilizes the auxiliary basis: aug-cc-pVTZ/C 
  H-He, B-F, Al-Ar, Ga-Kr : Obtained from the EMSL Basis Set Exchange (bse.pnl.gov) Feb. 2017
                            F. Weigend, A. Kohn, C. Hattig, J. Chem. Phys. 116, 3175 (2002)
                   Be, Mg : Obtained from the TURBOMOLE 7.0 basis set library
                            C. Haettig, Phys. Chem. Chem. Phys. 7, 59 (2005)
                       Ne : Obtained from the EMSL Basis Set Exchange (bse.pnl.gov) Feb. 2017
                            C. Haettig, Phys. Chem. Chem. Phys. 7, 59 (2005)
                            F. Weigend, A. Kohn, C. Hattig, J. Chem. Phys. 116, 3175 (2002)
                    Sc-Zn : Obtained from the EMSL Basis Set Exchange (bse.pnl.gov) Feb. 2017
                            J. G. Hill, J. A. Platts, J. Chem. Phys. 128, 044104 (2008)

----- AuxJK basis set information -----
Your calculation utilizes the AutoAux generation procedure.
  G. L. Stoychev, A. A. Auer, F. Neese, J. Chem. Theory Comput. 13, 554 (2017)

================================================================================
                                        WARNINGS
                       Please study these warnings very carefully!
================================================================================


WARNING: your system is open-shell and RHF/RKS was chosen
  ===> : WILL SWITCH to UHF/UKS


WARNING: MDCI localization with Augmented Hessian Foster-Boys
  ===> : Switching off randomization!

WARNING: Post HF methods need fully converged wavefunctions
  ===> : Setting SCFConvForced true
         You can overwrite this default with %scf ConvForced false 


INFO   : the flag for use of LIBINT has been found!

================================================================================
                                       INPUT FILE
================================================================================
NAME = simple-grid-200-210-b3lyp_d3bj-631gd-gas-singlepoint-DLPNO_CCSD_T1-NormalPNO-augtz-gas.inp
|  1> ! aug-cc-pVTZ aug-cc-pVTZ/C DLPNO-CCSD(T1) TightSCF NormalPNO UNO MiniPrint AutoAux
|  2> %pal nproc 10 end
|  3> %maxcore 20000
|  4> %mdci
|  5>      density none
|  6> end
|  7> 
|  8> * xyz 0 6
|  9>  O     -0.38031700     -0.10793700     -0.48220400
| 10>  C     -1.30818700     -1.11083800     -0.41577500
| 11>  C     -2.97811100     -0.04109700     -0.15692400
| 12>  C     -2.10007200      1.07639500     -0.25912300
| 13>  C     -1.90734000      1.76374300     -1.56513700
| 14> Fe      1.40930300      0.05075100      0.05018600
| 15> Cl      1.93093300      2.01830600     -0.80989100
| 16>  C     -1.59641500      1.78496800      0.94915100
| 17> Cl      2.42620800     -1.72460600     -0.76241500
| 18> Cl      1.39096800      0.08390100      2.26586200
| 19>  H     -3.53400000     -0.25492500     -1.06836300
| 20>  H     -2.40920000      2.44813000      1.28585300
| 21>  H     -1.36084600      1.10930500      1.77202800
| 22>  H     -0.71992100      2.39402700      0.72267300
| 23>  H     -2.60224000      2.61897600     -1.56881200
| 24>  H     -0.89054100      2.14930100     -1.66709300
| 25>  H     -2.16136600      1.12717700     -2.41450100
| 26>  C     -3.71554900     -0.37817800      1.11851400
| 27>  H     -4.58150100      0.28345500      1.24998900
| 28>  H     -4.09443200     -1.40384200      1.08111300
| 29>  H     -3.09045100     -0.28517500      2.00922200
| 30>  C     -1.19290200     -2.00894100      0.78509100
| 31>  H     -2.02938800     -2.70757800      0.86021200
| 32>  H     -0.26901100     -2.58994200      0.65174100
| 33>  H     -1.08276900     -1.44264400      1.71086100
| 34>  C     -1.51609400     -1.81073000     -1.73416600
| 35>  H     -0.58288200     -2.34737700     -1.95463600
| 36>  H     -2.34001200     -2.52839400     -1.69295000
| 37>  H     -1.68061500     -1.09766400     -2.54477400
| 38> *
| 39> 
| 40> 
| 41>                          ****END OF INPUT****
================================================================================

                       ****************************
                       * Single Point Calculation *
                       ****************************

---------------------------------
CARTESIAN COORDINATES (ANGSTROEM)
---------------------------------
  O     -0.380317   -0.107937   -0.482204
  C     -1.308187   -1.110838   -0.415775
  C     -2.978111   -0.041097   -0.156924
  C     -2.100072    1.076395   -0.259123
  C     -1.907340    1.763743   -1.565137
  Fe     1.409303    0.050751    0.050186
  Cl     1.930933    2.018306   -0.809891
  C     -1.596415    1.784968    0.949151
  Cl     2.426208   -1.724606   -0.762415
  Cl     1.390968    0.083901    2.265862
  H     -3.534000   -0.254925   -1.068363
  H     -2.409200    2.448130    1.285853
  H     -1.360846    1.109305    1.772028
  H     -0.719921    2.394027    0.722673
  H     -2.602240    2.618976   -1.568812
  H     -0.890541    2.149301   -1.667093
  H     -2.161366    1.127177   -2.414501
  C     -3.715549   -0.378178    1.118514
  H     -4.581501    0.283455    1.249989
  H     -4.094432   -1.403842    1.081113
  H     -3.090451   -0.285175    2.009222
  C     -1.192902   -2.008941    0.785091
  H     -2.029388   -2.707578    0.860212
  H     -0.269011   -2.589942    0.651741
  H     -1.082769   -1.442644    1.710861
  C     -1.516094   -1.810730   -1.734166
  H     -0.582882   -2.347377   -1.954636
  H     -2.340012   -2.528394   -1.692950
  H     -1.680615   -1.097664   -2.544774

----------------------------
CARTESIAN COORDINATES (A.U.)
----------------------------
  NO LB      ZA    FRAG     MASS         X           Y           Z
   0 O     8.0000    0    15.999   -0.718695   -0.203971   -0.911234
   1 C     6.0000    0    12.011   -2.472115   -2.099180   -0.785701
   2 C     6.0000    0    12.011   -5.627814   -0.077662   -0.296543
   3 C     6.0000    0    12.011   -3.968561    2.034092   -0.489672
   4 C     6.0000    0    12.011   -3.604350    3.332991   -2.957680
   5 Fe   26.0000    0    55.850    2.663197    0.095905    0.094838
   6 Cl   17.0000    0    35.453    3.648935    3.814046   -1.530472
   7 C     6.0000    0    12.011   -3.016787    3.373101    1.793635
   8 Cl   17.0000    0    35.453    4.584869   -3.259033   -1.440756
   9 Cl   17.0000    0    35.453    2.628549    0.158550    4.281859
  10 H     1.0000    0     1.008   -6.678292   -0.481738   -2.018913
  11 H     1.0000    0     1.008   -4.552728    4.626295    2.429910
  12 H     1.0000    0     1.008   -2.571626    2.096283    3.348648
  13 H     1.0000    0     1.008   -1.360454    4.524055    1.365654
  14 H     1.0000    0     1.008   -4.917521    4.949147   -2.964625
  15 H     1.0000    0     1.008   -1.682879    4.061590   -3.150349
  16 H     1.0000    0     1.008   -4.084390    2.130056   -4.562746
  17 C     6.0000    0    12.011   -7.021370   -0.714653    2.113685
  18 H     1.0000    0     1.008   -8.657782    0.535652    2.362137
  19 H     1.0000    0     1.008   -7.737355   -2.652877    2.043007
  20 H     1.0000    0     1.008   -5.840106   -0.538903    3.796879
  21 C     6.0000    0    12.011   -2.254258   -3.796348    1.483607
  22 H     1.0000    0     1.008   -3.834988   -5.116581    1.625565
  23 H     1.0000    0     1.008   -0.508357   -4.894281    1.231612
  24 H     1.0000    0     1.008   -2.046137   -2.726202    3.233059
  25 C     6.0000    0    12.011   -2.865002   -3.421784   -3.277099
  26 H     1.0000    0     1.008   -1.101487   -4.435900   -3.693727
  27 H     1.0000    0     1.008   -4.421982   -4.777972   -3.199212
  28 H     1.0000    0     1.008   -3.175902   -2.074284   -4.808926



           ************************************************************
           *        Program running with 10 parallel MPI-processes    *
           *              working on a common directory               *
           ************************************************************


           ************************************************************
           *        Program running with 10 parallel MPI-processes    *
           *              working on a common directory               *
           ************************************************************

Diagonalization of the overlap matrix:
Smallest eigenvalue                        ... 6.738e-07
Time for diagonalization                   ...    0.345 sec
Threshold for overlap eigenvalues          ... 1.000e-08
Number of eigenvalues below threshold      ... 0
Time for construction of square roots      ...    0.307 sec
Total time needed                          ...    0.658 sec

-------------------
DFT GRID GENERATION
-------------------

General Integration Accuracy     IntAcc      ...  4.340
Radial Grid Type                 RadialGrid  ... Gauss-Chebyshev
Angular Grid (max. acc.)         AngularGrid ... Lebedev-110
Angular grid pruning method      GridPruning ... 3 (G Style)
Weight generation scheme         WeightScheme... Becke
Basis function cutoff            BFCut       ...    1.0000e-11
Integration weight cutoff        WCut        ...    1.0000e-14
Grids for H and He will be reduced by one unit

# of grid points (after initial pruning)     ...  36112 (   0.0 sec)
# of grid points (after weights+screening)   ...  32290 (   0.1 sec)
nearest neighbour list constructed           ...    0.0 sec
Grid point re-assignment to atoms done       ...    0.0 sec
Grid point division into batches done        ...    0.0 sec
Reduced shell lists constructed in    0.3 sec

Total number of grid points                  ...    32290
Total number of batches                      ...      522
Average number of points per batch           ...       61
Average number of grid points per atom       ...     1113
Average number of shells per batch           ...   294.52 (85.87%)
Average number of basis functions per batch  ...   876.41 (85.50%)
Average number of large shells per batch     ...   243.96 (82.83%)
Average number of large basis fcns per batch ...   725.22 (82.75%)
Maximum spatial batch extension              ...   3.05,  3.16,  3.29 au
Average spatial batch extension              ...   0.17,  0.18,  0.17 au

Time for grid setup =    0.661 sec

Loading Hartree-Fock densities                     ... done
Calculating cut-offs                               ... done
Setting up the integral package                    ... done
Initializing the effective Hamiltonian             ... done
Starting the Coulomb interaction                   ... done (   1.1 sec)
Reading the grid                                   ... done
Mapping shells                                     ... done
Starting the XC term evaluation                    ... done (   1.0 sec)
Transforming the Hamiltonian                       ... done (   0.2 sec)
Diagonalizing the Hamiltonian                      ... done (   0.4 sec)
Back transforming the eigenvectors                 ... done (   0.1 sec)
Now organizing SCF variables                       ... done
--------------
SCF ITERATIONS
--------------
ITER       Energy         Delta-E        Max-DP      RMS-DP      [F,P]     Damp
               ***  Starting incremental Fock matrix formation  ***
  0  -3027.5555238783   0.000000000000 0.31668119  0.00130914  0.2708183 0.7000
  1  -3027.8034620390  -0.247938160717 0.23201547  0.00100160  0.1634658 0.7000
                               ***Turning on DIIS***
  2  -3027.9707545848  -0.167292545751 0.16294994  0.00072722  0.1091538 0.7000
  3  -3029.6646210532  -1.693866468419 0.37477195  0.00178962  0.0818454 0.0000
  4  -3028.2807423649   1.383878688315 0.04616973  0.00024013  0.0184251 0.0000
  5  -3028.4064527213  -0.125710356427 0.03913914  0.00017585  0.0117405 0.0000
  6  -3028.4267117338  -0.020259012476 0.01978938  0.00006953  0.0054438 0.0000
  7  -3028.4406058223  -0.013894088529 0.00873070  0.00003087  0.0032473 0.0000
  8  -3028.4391262485   0.001479573837 0.00575956  0.00001827  0.0013491 0.0000
  9  -3028.4279415632   0.011184685293 0.00223221  0.00001026  0.0006981 0.0000
 10  -3028.4173530553   0.010588507849 0.00098219  0.00000350  0.0004476 0.0000
 11  -3028.4239783137  -0.006625258395 0.00028700  0.00000189  0.0000804 0.0000
 12  -3028.4214471006   0.002531213147 0.00069544  0.00000162  0.0000285 0.0000
 13  -3028.4214013847   0.000045715892 0.00081533  0.00000250  0.0000119 0.0000
 14  -3028.4213533917   0.000047993033 0.00124765  0.00000269  0.0000058 0.0000
 15  -3028.4213159766   0.000037415093 0.00095549  0.00000266  0.0000035 0.0000
 16  -3028.4213318029  -0.000015826281 0.00133798  0.00000270  0.0000024 0.0000
 17  -3028.4213517498  -0.000019946923 0.00099579  0.00000245  0.0000013 0.0000
                            ***DIIS convergence achieved***

               *****************************************************
               *                     SUCCESS                       *
               *           SCF CONVERGED AFTER  18 CYCLES          *
               *****************************************************

Total Energy       :        -3028.42133540 Eh          -82407.53405 eV
  Last Energy change         ...    1.6354e-05  Tolerance :   1.0000e-08
  Last MAX-Density change    ...    1.5349e-03  Tolerance :   1.0000e-07
             **** THE GBW FILE WAS UPDATED (simple-grid-200-210-b3lyp_d3bj-631gd-gas-singlepoint-DLPNO_CCSD_T1-NormalPNO-augtz-gas.gbw) ****
             **** DENSITY FILE WAS UPDATED (simple-grid-200-210-b3lyp_d3bj-631gd-gas-singlepoint-DLPNO_CCSD_T1-NormalPNO-augtz-gas.scfp.tmp) ****
             **** ENERGY FILE WAS UPDATED (simple-grid-200-210-b3lyp_d3bj-631gd-gas-singlepoint-DLPNO_CCSD_T1-NormalPNO-augtz-gas.en.tmp) ****
----------------------
UHF SPIN CONTAMINATION
----------------------

Expectation value of <S**2>     :     8.764663
Ideal value S*(S+1) for S=2.5   :     8.750000
Deviation                       :     0.014663

----------------
ORBITAL ENERGIES
----------------
                 SPIN UP ORBITALS
  NO   OCC          E(Eh)            E(eV) 
   0   1.0000    -261.552631     -7117.2089 
   1   1.0000    -104.778265     -2851.1615 
   2   1.0000    -104.777072     -2851.1291 
   3   1.0000    -104.777019     -2851.1276 
   4   1.0000     -32.220519      -876.7649 
   5   1.0000     -27.696472      -753.6593 
   6   1.0000     -27.696193      -753.6517 
   7   1.0000     -27.695967      -753.6456 
   8   1.0000     -20.557590      -559.4005 
   9   1.0000     -11.384017      -309.7749 
  10   1.0000     -11.377590      -309.6000 
  11   1.0000     -11.275287      -306.8161 
  12   1.0000     -11.269527      -306.6594 
  13   1.0000     -11.266659      -306.5814 
  14   1.0000     -11.259016      -306.3734 
  15   1.0000     -11.252957      -306.2085 
  16   1.0000     -11.249431      -306.1126 
  17   1.0000     -10.504778      -285.8495 
  18   1.0000     -10.503618      -285.8180 
  19   1.0000     -10.503604      -285.8176 
  20   1.0000      -7.971586      -216.9179 
  21   1.0000      -7.970872      -216.8985 
  22   1.0000      -7.970792      -216.8963 
  23   1.0000      -7.970493      -216.8881 
  24   1.0000      -7.970435      -216.8866 
  25   1.0000      -7.969721      -216.8671 
  26   1.0000      -7.969659      -216.8655 
  27   1.0000      -7.969645      -216.8651 
  28   1.0000      -7.969603      -216.8639 
  29   1.0000      -4.575947      -124.5179 
  30   1.0000      -3.188572       -86.7655 
  31   1.0000      -3.188037       -86.7509 
  32   1.0000      -3.187449       -86.7349 
  33   1.0000      -1.389498       -37.8102 
  34   1.0000      -1.168235       -31.7893 
  35   1.0000      -1.086774       -29.5726 
  36   1.0000      -1.049997       -28.5719 
  37   1.0000      -1.043995       -28.4086 
  38   1.0000      -1.043390       -28.3921 
  39   1.0000      -1.039183       -28.2776 
  40   1.0000      -1.002781       -27.2871 
  41   1.0000      -0.982260       -26.7286 
  42   1.0000      -0.930410       -25.3177 
  43   1.0000      -0.912169       -24.8214 
  44   1.0000      -0.905590       -24.6424 
  45   1.0000      -0.905374       -24.6365 
  46   1.0000      -0.896914       -24.4063 
  47   1.0000      -0.896245       -24.3881 
  48   1.0000      -0.785567       -21.3764 
  49   1.0000      -0.761307       -20.7162 
  50   1.0000      -0.693969       -18.8838 
  51   1.0000      -0.693000       -18.8575 
  52   1.0000      -0.673739       -18.3334 
  53   1.0000      -0.651057       -17.7162 
  54   1.0000      -0.640023       -17.4159 
  55   1.0000      -0.623379       -16.9630 
  56   1.0000      -0.599078       -16.3017 
  57   1.0000      -0.591075       -16.0840 
  58   1.0000      -0.587718       -15.9926 
  59   1.0000      -0.584287       -15.8992 
  60   1.0000      -0.572162       -15.5693 
  61   1.0000      -0.564585       -15.3631 
  62   1.0000      -0.553520       -15.0620 
  63   1.0000      -0.546685       -14.8761 
  64   1.0000      -0.537709       -14.6318 
  65   1.0000      -0.531672       -14.4675 
  66   1.0000      -0.510048       -13.8791 
  67   1.0000      -0.482902       -13.1404 
  68   1.0000      -0.465186       -12.6584 
  69   1.0000      -0.453595       -12.3429 
  70   1.0000      -0.433344       -11.7919 
  71   1.0000      -0.427972       -11.6457 
  72   1.0000      -0.425003       -11.5649 
  73   1.0000      -0.418947       -11.4001 
  74   1.0000      -0.416244       -11.3266 
  75   1.0000      -0.415499       -11.3063 
  76   1.0000      -0.377113       -10.2618 
  77   0.0000       0.009712         0.2643 
  78   0.0000       0.020493         0.5577 
  79   0.0000       0.022725         0.6184 
  80   0.0000       0.030668         0.8345 
  81   0.0000       0.037851         1.0300 
  82   0.0000       0.039281         1.0689 
  83   0.0000       0.042251         1.1497 
  84   0.0000       0.043776         1.1912 
  85   0.0000       0.044884         1.2213 
  86   0.0000       0.048887         1.3303 
  87   0.0000       0.056407         1.5349 
  88   0.0000       0.060639         1.6501 
  89   0.0000       0.061829         1.6824 
  90   0.0000       0.064743         1.7618 
  91   0.0000       0.066721         1.8156 
  92   0.0000       0.071482         1.9451 
  93   0.0000       0.073502         2.0001 
  94   0.0000       0.081933         2.2295 
  95   0.0000       0.088521         2.4088 
  96   0.0000       0.089486         2.4350 
  97   0.0000       0.091381         2.4866 
  98   0.0000       0.095136         2.5888 
  99   0.0000       0.100680         2.7396 
 100   0.0000       0.103114         2.8059 
 101   0.0000       0.110744         3.0135 
 102   0.0000       0.115531         3.1438 
 103   0.0000       0.119117         3.2413 
 104   0.0000       0.122301         3.3280 
 105   0.0000       0.124245         3.3809 
 106   0.0000       0.127983         3.4826 
 107   0.0000       0.129089         3.5127 
 108   0.0000       0.130959         3.5636 
 109   0.0000       0.132652         3.6096 
 110   0.0000       0.136367         3.7107 
 111   0.0000       0.138471         3.7680 
 112   0.0000       0.145072         3.9476 
 113   0.0000       0.147942         4.0257 
 114   0.0000       0.149744         4.0747 
 115   0.0000       0.153170         4.1680 
 116   0.0000       0.157595         4.2884 
 117   0.0000       0.161878         4.4049 
 118   0.0000       0.163584         4.4514 
 119   0.0000       0.165881         4.5138 
 120   0.0000       0.170794         4.6476 
 121   0.0000       0.175470         4.7748 
 122   0.0000       0.178073         4.8456 
 123   0.0000       0.180710         4.9174 
 124   0.0000       0.183634         4.9969 
 125   0.0000       0.187084         5.0908 
 126   0.0000       0.192681         5.2431 
 127   0.0000       0.194927         5.3042 
 128   0.0000       0.195420         5.3176 
 129   0.0000       0.198363         5.3977 
 130   0.0000       0.201532         5.4840 
 131   0.0000       0.206534         5.6201 
 132   0.0000       0.207681         5.6513 
 133   0.0000       0.209950         5.7130 
 134   0.0000       0.213480         5.8091 
 135   0.0000       0.215092         5.8529 
 136   0.0000       0.220122         5.9898 
 137   0.0000       0.221886         6.0378 
 138   0.0000       0.228613         6.2209 
 139   0.0000       0.232903         6.3376 
 140   0.0000       0.238157         6.4806 
 141   0.0000       0.238522         6.4905 
 142   0.0000       0.241358         6.5677 
 143   0.0000       0.241737         6.5780 
 144   0.0000       0.247518         6.7353 
 145   0.0000       0.252605         6.8737 
 146   0.0000       0.253562         6.8998 
 147   0.0000       0.256697         6.9851 
 148   0.0000       0.257619         7.0102 
 149   0.0000       0.260246         7.0817 
 150   0.0000       0.267867         7.2890 
 151   0.0000       0.275482         7.4963 
 152   0.0000       0.276800         7.5321 
 153   0.0000       0.281450         7.6587 
 154   0.0000       0.285138         7.7590 
 155   0.0000       0.286858         7.8058 
 156   0.0000       0.291153         7.9227 
 157   0.0000       0.294976         8.0267 
 158   0.0000       0.297894         8.1061 
 159   0.0000       0.303610         8.2616 
 160   0.0000       0.306699         8.3457 
 161   0.0000       0.309210         8.4140 
 162   0.0000       0.312634         8.5072 
 163   0.0000       0.319519         8.6946 
 164   0.0000       0.325290         8.8516 
 165   0.0000       0.327291         8.9060 
 166   0.0000       0.330610         8.9964 
 167   0.0000       0.339879         9.2486 
 168   0.0000       0.340900         9.2764 
 169   0.0000       0.347665         9.4604 
 170   0.0000       0.350168         9.5285 
 171   0.0000       0.355836         9.6828 
 172   0.0000       0.360492         9.8095 
 173   0.0000       0.362036         9.8515 
 174   0.0000       0.363510         9.8916 
 175   0.0000       0.365823         9.9545 
 176   0.0000       0.369257        10.0480 
 177   0.0000       0.373005        10.1500 
 178   0.0000       0.376268        10.2388 
 179   0.0000       0.379843        10.3360 
 180   0.0000       0.384054        10.4506 
 181   0.0000       0.385171        10.4810 
 182   0.0000       0.385499        10.4900 
 183   0.0000       0.388754        10.5785 
 184   0.0000       0.389920        10.6103 
 185   0.0000       0.397343        10.8123 
 186   0.0000       0.399029        10.8581 
 187   0.0000       0.399650        10.8750 
 188   0.0000       0.405182        11.0256 
 189   0.0000       0.408544        11.1170 
 190   0.0000       0.413588        11.2543 
 191   0.0000       0.418088        11.3768 
 192   0.0000       0.421046        11.4572 
 193   0.0000       0.424222        11.5437 
 194   0.0000       0.425782        11.5861 
 195   0.0000       0.431226        11.7343 
 196   0.0000       0.436984        11.8909 
 197   0.0000       0.442657        12.0453 
 198   0.0000       0.448242        12.1973 
 199   0.0000       0.449067        12.2197 
 200   0.0000       0.452071        12.3015 
 201   0.0000       0.457837        12.4584 
 202   0.0000       0.460109        12.5202 
 203   0.0000       0.464868        12.6497 
 204   0.0000       0.466445        12.6926 
 205   0.0000       0.468345        12.7443 
 206   0.0000       0.471321        12.8253 
 207   0.0000       0.472587        12.8597 
 208   0.0000       0.474825        12.9206 
 209   0.0000       0.479588        13.0503 
 210   0.0000       0.482630        13.1330 
 211   0.0000       0.486449        13.2369 
 212   0.0000       0.492030        13.3888 
 213   0.0000       0.493053        13.4166 
 214   0.0000       0.497383        13.5345 
 215   0.0000       0.498589        13.5673 
 216   0.0000       0.501421        13.6444 
 217   0.0000       0.504623        13.7315 
 218   0.0000       0.508329        13.8323 
 219   0.0000       0.514440        13.9986 
 220   0.0000       0.516045        14.0423 
 221   0.0000       0.516426        14.0527 
 222   0.0000       0.519625        14.1397 
 223   0.0000       0.523902        14.2561 
 224   0.0000       0.526748        14.3335 
 225   0.0000       0.529617        14.4116 
 226   0.0000       0.533350        14.5132 
 227   0.0000       0.539627        14.6840 
 228   0.0000       0.542548        14.7635 
 229   0.0000       0.549935        14.9645 
 230   0.0000       0.550712        14.9856 
 231   0.0000       0.553850        15.0710 
 232   0.0000       0.559433        15.2229 
 233   0.0000       0.563590        15.3361 
 234   0.0000       0.569945        15.5090 
 235   0.0000       0.570901        15.5350 
 236   0.0000       0.575705        15.6657 
 237   0.0000       0.577358        15.7107 
 238   0.0000       0.578168        15.7327 
 239   0.0000       0.583985        15.8911 
 240   0.0000       0.585954        15.9446 
 241   0.0000       0.588763        16.0211 
 242   0.0000       0.599102        16.3024 
 243   0.0000       0.600181        16.3318 
 244   0.0000       0.606265        16.4973 
 245   0.0000       0.608030        16.5453 
 246   0.0000       0.613161        16.6850 
 247   0.0000       0.613995        16.7076 
 248   0.0000       0.620850        16.8942 
 249   0.0000       0.622199        16.9309 
 250   0.0000       0.626022        17.0349 
 251   0.0000       0.630471        17.1560 
 252   0.0000       0.631571        17.1859 
 253   0.0000       0.637476        17.3466 
 254   0.0000       0.639552        17.4031 
 255   0.0000       0.644892        17.5484 
 256   0.0000       0.646835        17.6013 
 257   0.0000       0.651925        17.7398 
 258   0.0000       0.657374        17.8880 
 259   0.0000       0.659287        17.9401 
 260   0.0000       0.665608        18.1121 
 261   0.0000       0.667509        18.1639 
 262   0.0000       0.672029        18.2868 
 263   0.0000       0.674114        18.3436 
 264   0.0000       0.675832        18.3903 
 265   0.0000       0.683709        18.6047 
 266   0.0000       0.687528        18.7086 
 267   0.0000       0.693763        18.8783 
 268   0.0000       0.698272        19.0009 
 269   0.0000       0.705531        19.1985 
 270   0.0000       0.708866        19.2892 
 271   0.0000       0.713019        19.4022 
 272   0.0000       0.716299        19.4915 
 273   0.0000       0.723569        19.6893 
 274   0.0000       0.727175        19.7874 
 275   0.0000       0.729423        19.8486 
 276   0.0000       0.735189        20.0055 
 277   0.0000       0.740317        20.1450 
 278   0.0000       0.745684        20.2911 
 279   0.0000       0.750721        20.4282 
 280   0.0000       0.758940        20.6518 
 281   0.0000       0.763480        20.7753 
 282   0.0000       0.765648        20.8343 
 283   0.0000       0.773126        21.0378 
 284   0.0000       0.778587        21.1864 
 285   0.0000       0.782365        21.2892 
 286   0.0000       0.785579        21.3767 
 287   0.0000       0.791353        21.5338 
 288   0.0000       0.798426        21.7263 
 289   0.0000       0.802649        21.8412 
 290   0.0000       0.810454        22.0536 
 291   0.0000       0.811301        22.0766 
 292   0.0000       0.820467        22.3260 
 293   0.0000       0.823781        22.4162 
 294   0.0000       0.836194        22.7540 
 295   0.0000       0.838380        22.8135 
 296   0.0000       0.841809        22.9068 
 297   0.0000       0.849124        23.1058 
 298   0.0000       0.858104        23.3502 
 299   0.0000       0.859582        23.3904 
 300   0.0000       0.861210        23.4347 
 301   0.0000       0.869360        23.6565 
 302   0.0000       0.873138        23.7593 
 303   0.0000       0.874820        23.8051 
 304   0.0000       0.879563        23.9341 
 305   0.0000       0.882731        24.0203 
 306   0.0000       0.884864        24.0784 
 307   0.0000       0.890635        24.2354 
 308   0.0000       0.898238        24.4423 
 309   0.0000       0.899829        24.4856 
 310   0.0000       0.907621        24.6976 
 311   0.0000       0.910241        24.7689 
 312   0.0000       0.919845        25.0303 
 313   0.0000       0.924730        25.1632 
 314   0.0000       0.925763        25.1913 
 315   0.0000       0.927270        25.2323 
 316   0.0000       0.934534        25.4300 
 317   0.0000       0.936753        25.4903 
 318   0.0000       0.940145        25.5826 
 319   0.0000       0.942814        25.6553 
 320   0.0000       0.949336        25.8328 
 321   0.0000       0.951768        25.8989 
 322   0.0000       0.955636        26.0042 
 323   0.0000       0.959053        26.0972 
 324   0.0000       0.965321        26.2677 
 325   0.0000       0.965542        26.2737 
 326   0.0000       0.970931        26.4204 
 327   0.0000       0.972850        26.4726 
 328   0.0000       0.977917        26.6105 
 329   0.0000       0.981238        26.7008 
 330   0.0000       0.981823        26.7168 
 331   0.0000       0.987313        26.8661 
 332   0.0000       0.989718        26.9316 
 333   0.0000       0.992950        27.0195 
 334   0.0000       0.994887        27.0723 
 335   0.0000       1.001153        27.2428 
 336   0.0000       1.005062        27.3491 
 337   0.0000       1.010601        27.4999 
 338   0.0000       1.017572        27.6895 
 339   0.0000       1.021783        27.8041 
 340   0.0000       1.023472        27.8501 
 341   0.0000       1.027509        27.9599 
 342   0.0000       1.030929        28.0530 
 343   0.0000       1.034995        28.1637 
 344   0.0000       1.037984        28.2450 
 345   0.0000       1.041491        28.3404 
 346   0.0000       1.043212        28.3872 
 347   0.0000       1.046174        28.4678 
 348   0.0000       1.051505        28.6129 
 349   0.0000       1.055326        28.7169 
 350   0.0000       1.056994        28.7623 
 351   0.0000       1.063089        28.9281 
 352   0.0000       1.063602        28.9421 
 353   0.0000       1.065965        29.0064 
 354   0.0000       1.074801        29.2468 
 355   0.0000       1.076868        29.3031 
 356   0.0000       1.077551        29.3217 
 357   0.0000       1.081386        29.4260 
 358   0.0000       1.086167        29.5561 
 359   0.0000       1.091076        29.6897 
 360   0.0000       1.095282        29.8041 
 361   0.0000       1.102917        30.0119 
 362   0.0000       1.109078        30.1795 
 363   0.0000       1.112787        30.2805 
 364   0.0000       1.117392        30.4058 
 365   0.0000       1.122706        30.5504 
 366   0.0000       1.128061        30.6961 
 367   0.0000       1.129432        30.7334 
 368   0.0000       1.129690        30.7404 
 369   0.0000       1.140136        31.0247 
 370   0.0000       1.141799        31.0699 
 371   0.0000       1.146209        31.1899 
 372   0.0000       1.148164        31.2431 
 373   0.0000       1.153581        31.3905 
 374   0.0000       1.159146        31.5420 
 375   0.0000       1.162699        31.6386 
 376   0.0000       1.169170        31.8147 
 377   0.0000       1.170325        31.8462 
 378   0.0000       1.177492        32.0412 
 379   0.0000       1.182160        32.1682 
 380   0.0000       1.184708        32.2375 
 381   0.0000       1.187464        32.3125 
 382   0.0000       1.191627        32.4258 
 383   0.0000       1.200141        32.6575 
 384   0.0000       1.201639        32.6983 
 385   0.0000       1.206631        32.8341 
 386   0.0000       1.208659        32.8893 
 387   0.0000       1.213021        33.0080 
 388   0.0000       1.220276        33.2054 
 389   0.0000       1.223093        33.2821 
 390   0.0000       1.226146        33.3651 
 391   0.0000       1.232880        33.5484 
 392   0.0000       1.236295        33.6413 
 393   0.0000       1.241911        33.7941 
 394   0.0000       1.245966        33.9045 
 395   0.0000       1.248427        33.9714 
 396   0.0000       1.255529        34.1647 
 397   0.0000       1.260479        34.2994 
 398   0.0000       1.264897        34.4196 
 399   0.0000       1.272140        34.6167 
 400   0.0000       1.278544        34.7909 
 401   0.0000       1.288977        35.0748 
 402   0.0000       1.289822        35.0978 
 403   0.0000       1.295706        35.2579 
 404   0.0000       1.302043        35.4304 
 405   0.0000       1.305782        35.5321 
 406   0.0000       1.314040        35.7568 
 407   0.0000       1.315859        35.8063 
 408   0.0000       1.316920        35.8352 
 409   0.0000       1.323457        36.0131 
 410   0.0000       1.331122        36.2217 
 411   0.0000       1.341364        36.5004 
 412   0.0000       1.344237        36.5785 
 413   0.0000       1.349305        36.7164 
 414   0.0000       1.351939        36.7881 
 415   0.0000       1.358494        36.9665 
 416   0.0000       1.370734        37.2996 
 417   0.0000       1.371689        37.3256 
 418   0.0000       1.376079        37.4450 
 419   0.0000       1.381990        37.6059 
 420   0.0000       1.390560        37.8391 
 421   0.0000       1.392520        37.8924 
 422   0.0000       1.401582        38.1390 
 423   0.0000       1.407242        38.2930 
 424   0.0000       1.409358        38.3506 
 425   0.0000       1.420055        38.6417 
 426   0.0000       1.423002        38.7219 
 427   0.0000       1.426120        38.8067 
 428   0.0000       1.433382        39.0043 
 429   0.0000       1.441528        39.2260 
 430   0.0000       1.446087        39.3500 
 431   0.0000       1.447650        39.3926 
 432   0.0000       1.452146        39.5149 
 433   0.0000       1.455723        39.6122 
 434   0.0000       1.464703        39.8566 
 435   0.0000       1.469885        39.9976 
 436   0.0000       1.474789        40.1310 
 437   0.0000       1.481937        40.3256 
 438   0.0000       1.483531        40.3689 
 439   0.0000       1.489091        40.5202 
 440   0.0000       1.492727        40.6192 
 441   0.0000       1.499735        40.8099 
 442   0.0000       1.502558        40.8867 
 443   0.0000       1.507510        41.0214 
 444   0.0000       1.511800        41.1382 
 445   0.0000       1.516218        41.2584 
 446   0.0000       1.517506        41.2934 
 447   0.0000       1.528025        41.5797 
 448   0.0000       1.530835        41.6561 
 449   0.0000       1.539983        41.9051 
 450   0.0000       1.544028        42.0151 
 451   0.0000       1.550027        42.1784 
 452   0.0000       1.557073        42.3701 
 453   0.0000       1.560086        42.4521 
 454   0.0000       1.565865        42.6093 
 455   0.0000       1.568151        42.6715 
 456   0.0000       1.569698        42.7137 
 457   0.0000       1.573977        42.8301 
 458   0.0000       1.579901        42.9913 
 459   0.0000       1.584482        43.1160 
 460   0.0000       1.592446        43.3327 
 461   0.0000       1.599332        43.5200 
 462   0.0000       1.599910        43.5358 
 463   0.0000       1.613757        43.9126 
 464   0.0000       1.615382        43.9568 
 465   0.0000       1.620981        44.1091 
 466   0.0000       1.627279        44.2805 
 467   0.0000       1.634740        44.4835 
 468   0.0000       1.641509        44.6677 
 469   0.0000       1.646261        44.7970 
 470   0.0000       1.650511        44.9127 
 471   0.0000       1.653013        44.9808 
 472   0.0000       1.663504        45.2662 
 473   0.0000       1.667519        45.3755 
 474   0.0000       1.672872        45.5212 
 475   0.0000       1.678748        45.6811 
 476   0.0000       1.686668        45.8966 
 477   0.0000       1.688457        45.9452 
 478   0.0000       1.690930        46.0125 
 479   0.0000       1.701088        46.2890 
 480   0.0000       1.706907        46.4473 
 481   0.0000       1.707152        46.4540 
 482   0.0000       1.716335        46.7038 
 483   0.0000       1.722808        46.8800 
 484   0.0000       1.728519        47.0354 
 485   0.0000       1.730868        47.0993 
 486   0.0000       1.737309        47.2746 
 487   0.0000       1.738582        47.3092 
 488   0.0000       1.741556        47.3901 
 489   0.0000       1.745935        47.5093 
 490   0.0000       1.751010        47.6474 
 491   0.0000       1.759805        47.8867 
 492   0.0000       1.767604        48.0989 
 493   0.0000       1.771320        48.2001 
 494   0.0000       1.775804        48.3221 
 495   0.0000       1.782443        48.5028 
 496   0.0000       1.784325        48.5539 
 497   0.0000       1.785463        48.5849 
 498   0.0000       1.792933        48.7882 
 499   0.0000       1.794672        48.8355 
 500   0.0000       1.798639        48.9434 
 501   0.0000       1.808923        49.2233 
 502   0.0000       1.825931        49.6861 
 503   0.0000       1.826783        49.7093 
 504   0.0000       1.829678        49.7881 
 505   0.0000       1.832570        49.8668 
 506   0.0000       1.835943        49.9586 
 507   0.0000       1.845679        50.2235 
 508   0.0000       1.850321        50.3498 
 509   0.0000       1.858639        50.5761 
 510   0.0000       1.859188        50.5911 
 511   0.0000       1.862042        50.6687 
 512   0.0000       1.871188        50.9176 
 513   0.0000       1.873479        50.9800 
 514   0.0000       1.876689        51.0673 
 515   0.0000       1.879947        51.1560 
 516   0.0000       1.888682        51.3937 
 517   0.0000       1.894236        51.5448 
 518   0.0000       1.898752        51.6677 
 519   0.0000       1.899385        51.6849 
 520   0.0000       1.907267        51.8994 
 521   0.0000       1.911152        52.0051 
 522   0.0000       1.918466        52.2041 
 523   0.0000       1.920874        52.2696 
 524   0.0000       1.926366        52.4191 
 525   0.0000       1.926727        52.4289 
 526   0.0000       1.939896        52.7873 
 527   0.0000       1.943116        52.8749 
 528   0.0000       1.951255        53.0964 
 529   0.0000       1.956374        53.2357 
 530   0.0000       1.966841        53.5205 
 531   0.0000       1.974659        53.7332 
 532   0.0000       1.976302        53.7779 
 533   0.0000       1.980322        53.8873 
 534   0.0000       1.986517        54.0559 
 535   0.0000       1.989251        54.1303 
 536   0.0000       2.006671        54.6043 
 537   0.0000       2.008844        54.6634 
 538   0.0000       2.013378        54.7868 
 539   0.0000       2.021175        54.9990 
 540   0.0000       2.029531        55.2263 
 541   0.0000       2.031887        55.2905 
 542   0.0000       2.035448        55.3874 
 543   0.0000       2.043526        55.6072 
 544   0.0000       2.050795        55.8050 
 545   0.0000       2.063675        56.1555 
 546   0.0000       2.071606        56.3713 
 547   0.0000       2.075910        56.4884 
 548   0.0000       2.087005        56.7903 
 549   0.0000       2.090350        56.8813 
 550   0.0000       2.095502        57.0215 
 551   0.0000       2.097903        57.0868 
 552   0.0000       2.108358        57.3713 
 553   0.0000       2.110059        57.4176 
 554   0.0000       2.117936        57.6320 
 555   0.0000       2.125770        57.8452 
 556   0.0000       2.137551        58.1657 
 557   0.0000       2.147094        58.4254 
 558   0.0000       2.154311        58.6218 
 559   0.0000       2.163252        58.8651 
 560   0.0000       2.172698        59.1221 
 561   0.0000       2.173478        59.1433 
 562   0.0000       2.179715        59.3131 
 563   0.0000       2.184897        59.4541 
 564   0.0000       2.193091        59.6770 
 565   0.0000       2.200160        59.8694 
 566   0.0000       2.206684        60.0469 
 567   0.0000       2.223257        60.4979 
 568   0.0000       2.226350        60.5821 
 569   0.0000       2.231736        60.7286 
 570   0.0000       2.241173        60.9854 
 571   0.0000       2.245386        61.1000 
 572   0.0000       2.254538        61.3491 
 573   0.0000       2.260010        61.4980 
 574   0.0000       2.269680        61.7611 
 575   0.0000       2.275484        61.9191 
 576   0.0000       2.278463        62.0001 
 577   0.0000       2.284589        62.1668 
 578   0.0000       2.290454        62.3264 
 579   0.0000       2.297525        62.5188 
 580   0.0000       2.299491        62.5723 
 581   0.0000       2.315377        63.0046 
 582   0.0000       2.317677        63.0672 
 583   0.0000       2.319651        63.1209 
 584   0.0000       2.324006        63.2394 
 585   0.0000       2.336856        63.5891 
 586   0.0000       2.345015        63.8111 
 587   0.0000       2.352987        64.0280 
 588   0.0000       2.361255        64.2530 
 589   0.0000       2.368575        64.4522 
 590   0.0000       2.382037        64.8185 
 591   0.0000       2.390701        65.0543 
 592   0.0000       2.399119        65.2833 
 593   0.0000       2.402787        65.3832 
 594   0.0000       2.405350        65.4529 
 595   0.0000       2.410170        65.5840 
 596   0.0000       2.418187        65.8022 
 597   0.0000       2.431715        66.1703 
 598   0.0000       2.442388        66.4608 
 599   0.0000       2.448259        66.6205 
 600   0.0000       2.457991        66.8853 
 601   0.0000       2.466345        67.1127 
 602   0.0000       2.471602        67.2557 
 603   0.0000       2.486990        67.6744 
 604   0.0000       2.492767        67.8316 
 605   0.0000       2.501070        68.0576 
 606   0.0000       2.505949        68.1903 
 607   0.0000       2.513927        68.4074 
 608   0.0000       2.519504        68.5592 
 609   0.0000       2.533193        68.9317 
 610   0.0000       2.544992        69.2528 
 611   0.0000       2.551986        69.4431 
 612   0.0000       2.564151        69.7741 
 613   0.0000       2.590024        70.4781 
 614   0.0000       2.598589        70.7112 
 615   0.0000       2.612303        71.0844 
 616   0.0000       2.631036        71.5941 
 617   0.0000       2.643666        71.9378 
 618   0.0000       2.656190        72.2786 
 619   0.0000       2.660443        72.3943 
 620   0.0000       2.675481        72.8035 
 621   0.0000       2.682042        72.9821 
 622   0.0000       2.693712        73.2996 
 623   0.0000       2.696861        73.3853 
 624   0.0000       2.708541        73.7031 
 625   0.0000       2.718631        73.9777 
 626   0.0000       2.724457        74.1362 
 627   0.0000       2.728459        74.2452 
 628   0.0000       2.732942        74.3671 
 629   0.0000       2.738877        74.5286 
 630   0.0000       2.749242        74.8107 
 631   0.0000       2.771443        75.4148 
 632   0.0000       2.778026        75.5939 
 633   0.0000       2.781533        75.6894 
 634   0.0000       2.790039        75.9208 
 635   0.0000       2.801881        76.2431 
 636   0.0000       2.811358        76.5010 
 637   0.0000       2.833328        77.0988 
 638   0.0000       2.841623        77.3245 
 639   0.0000       2.848050        77.4994 
 640   0.0000       2.869644        78.0870 
 641   0.0000       2.887392        78.5699 
 642   0.0000       2.893651        78.7403 
 643   0.0000       2.904267        79.0291 
 644   0.0000       2.918464        79.4154 
 645   0.0000       2.920412        79.4684 
 646   0.0000       2.939929        79.9995 
 647   0.0000       2.949763        80.2671 
 648   0.0000       2.972207        80.8779 
 649   0.0000       2.975097        80.9565 
 650   0.0000       2.988744        81.3279 
 651   0.0000       3.011059        81.9351 
 652   0.0000       3.019235        82.1576 
 653   0.0000       3.038153        82.6723 
 654   0.0000       3.057596        83.2014 
 655   0.0000       3.065579        83.4186 
 656   0.0000       3.080784        83.8324 
 657   0.0000       3.099229        84.3343 
 658   0.0000       3.112179        84.6867 
 659   0.0000       3.127508        85.1038 
 660   0.0000       3.138694        85.4082 
 661   0.0000       3.157820        85.9287 
 662   0.0000       3.171496        86.3008 
 663   0.0000       3.177754        86.4711 
 664   0.0000       3.190074        86.8063 
 665   0.0000       3.198922        87.0471 
 666   0.0000       3.205270        87.2198 
 667   0.0000       3.218814        87.5884 
 668   0.0000       3.221987        87.6747 
 669   0.0000       3.234947        88.0274 
 670   0.0000       3.248391        88.3932 
 671   0.0000       3.252315        88.5000 
 672   0.0000       3.265819        88.8674 
 673   0.0000       3.274005        89.0902 
 674   0.0000       3.280442        89.2654 
 675   0.0000       3.298307        89.7515 
 676   0.0000       3.307985        90.0149 
 677   0.0000       3.309988        90.0694 
 678   0.0000       3.322460        90.4087 
 679   0.0000       3.326291        90.5130 
 680   0.0000       3.335578        90.7657 
 681   0.0000       3.338549        90.8465 
 682   0.0000       3.355039        91.2953 
 683   0.0000       3.361568        91.4729 
 684   0.0000       3.373759        91.8046 
 685   0.0000       3.376239        91.8721 
 686   0.0000       3.407944        92.7349 
 687   0.0000       3.412450        92.8575 
 688   0.0000       3.413656        92.8903 
 689   0.0000       3.424558        93.1870 
 690   0.0000       3.429224        93.3139 
 691   0.0000       3.434457        93.4563 
 692   0.0000       3.446205        93.7760 
 693   0.0000       3.459435        94.1360 
 694   0.0000       3.465551        94.3024 
 695   0.0000       3.472505        94.4917 
 696   0.0000       3.485518        94.8458 
 697   0.0000       3.487980        94.9128 
 698   0.0000       3.509140        95.4886 
 699   0.0000       3.513490        95.6069 
 700   0.0000       3.519986        95.7837 
 701   0.0000       3.530171        96.0608 
 702   0.0000       3.537989        96.2736 
 703   0.0000       3.543754        96.4304 
 704   0.0000       3.553547        96.6969 
 705   0.0000       3.567205        97.0686 
 706   0.0000       3.577292        97.3431 
 707   0.0000       3.589059        97.6633 
 708   0.0000       3.594770        97.8187 
 709   0.0000       3.596900        97.8766 
 710   0.0000       3.603104        98.0455 
 711   0.0000       3.610938        98.2586 
 712   0.0000       3.620180        98.5101 
 713   0.0000       3.626637        98.6858 
 714   0.0000       3.639601        99.0386 
 715   0.0000       3.645149        99.1895 
 716   0.0000       3.659040        99.5676 
 717   0.0000       3.666384        99.7674 
 718   0.0000       3.668882        99.8354 
 719   0.0000       3.678700       100.1025 
 720   0.0000       3.688642       100.3730 
 721   0.0000       3.697085       100.6028 
 722   0.0000       3.703303       100.7720 
 723   0.0000       3.716194       101.1228 
 724   0.0000       3.722785       101.3021 
 725   0.0000       3.725568       101.3779 
 726   0.0000       3.734981       101.6340 
 727   0.0000       3.743491       101.8656 
 728   0.0000       3.754404       102.1625 
 729   0.0000       3.760404       102.3258 
 730   0.0000       3.766578       102.4938 
 731   0.0000       3.770646       102.6045 
 732   0.0000       3.774970       102.7221 
 733   0.0000       3.782286       102.9212 
 734   0.0000       3.792228       103.1918 
 735   0.0000       3.798603       103.3652 
 736   0.0000       3.800396       103.4140 
 737   0.0000       3.814163       103.7887 
 738   0.0000       3.819830       103.9429 
 739   0.0000       3.825139       104.0873 
 740   0.0000       3.839296       104.4726 
 741   0.0000       3.849842       104.7595 
 742   0.0000       3.851426       104.8026 
 743   0.0000       3.858720       105.0011 
 744   0.0000       3.867992       105.2534 
 745   0.0000       3.874782       105.4382 
 746   0.0000       3.884869       105.7127 
 747   0.0000       3.885825       105.7387 
 748   0.0000       3.890368       105.8623 
 749   0.0000       3.899833       106.1199 
 750   0.0000       3.909154       106.3735 
 751   0.0000       3.913471       106.4909 
 752   0.0000       3.921498       106.7094 
 753   0.0000       3.925657       106.8226 
 754   0.0000       3.933387       107.0329 
 755   0.0000       3.938023       107.1590 
 756   0.0000       3.940386       107.2234 
 757   0.0000       3.944449       107.3339 
 758   0.0000       3.956864       107.6717 
 759   0.0000       3.959207       107.7355 
 760   0.0000       3.977851       108.2428 
 761   0.0000       3.980771       108.3223 
 762   0.0000       3.996351       108.7462 
 763   0.0000       3.998039       108.7922 
 764   0.0000       4.007281       109.0437 
 765   0.0000       4.014773       109.2475 
 766   0.0000       4.030471       109.6747 
 767   0.0000       4.036884       109.8492 
 768   0.0000       4.040208       109.9397 
 769   0.0000       4.051326       110.2422 
 770   0.0000       4.061517       110.5195 
 771   0.0000       4.063303       110.5681 
 772   0.0000       4.071516       110.7916 
 773   0.0000       4.079796       111.0169 
 774   0.0000       4.087430       111.2246 
 775   0.0000       4.093126       111.3796 
 776   0.0000       4.104827       111.6980 
 777   0.0000       4.107129       111.7607 
 778   0.0000       4.112689       111.9120 
 779   0.0000       4.122801       112.1871 
 780   0.0000       4.127859       112.3248 
 781   0.0000       4.138540       112.6154 
 782   0.0000       4.148556       112.8879 
 783   0.0000       4.153064       113.0106 
 784   0.0000       4.159432       113.1839 
 785   0.0000       4.173105       113.5560 
 786   0.0000       4.178368       113.6992 
 787   0.0000       4.186718       113.9264 
 788   0.0000       4.192101       114.0729 
 789   0.0000       4.209941       114.5583 
 790   0.0000       4.218136       114.7813 
 791   0.0000       4.219388       114.8154 
 792   0.0000       4.225549       114.9830 
 793   0.0000       4.233530       115.2002 
 794   0.0000       4.245001       115.5123 
 795   0.0000       4.255152       115.7886 
 796   0.0000       4.263559       116.0173 
 797   0.0000       4.266709       116.1031 
 798   0.0000       4.275627       116.3457 
 799   0.0000       4.285433       116.6126 
 800   0.0000       4.294802       116.8675 
 801   0.0000       4.304493       117.1312 
 802   0.0000       4.313910       117.3875 
 803   0.0000       4.326658       117.7343 
 804   0.0000       4.330404       117.8363 
 805   0.0000       4.338483       118.0561 
 806   0.0000       4.342199       118.1572 
 807   0.0000       4.354960       118.5045 
 808   0.0000       4.363650       118.7409 
 809   0.0000       4.369196       118.8919 
 810   0.0000       4.372214       118.9740 
 811   0.0000       4.382462       119.2529 
 812   0.0000       4.395438       119.6059 
 813   0.0000       4.401479       119.7703 
 814   0.0000       4.414720       120.1306 
 815   0.0000       4.427464       120.4774 
 816   0.0000       4.439844       120.8143 
 817   0.0000       4.443683       120.9188 
 818   0.0000       4.448340       121.0455 
 819   0.0000       4.462588       121.4332 
 820   0.0000       4.466122       121.5294 
 821   0.0000       4.478359       121.8623 
 822   0.0000       4.484433       122.0276 
 823   0.0000       4.494917       122.3129 
 824   0.0000       4.498904       122.4214 
 825   0.0000       4.504560       122.5753 
 826   0.0000       4.520442       123.0075 
 827   0.0000       4.538280       123.4929 
 828   0.0000       4.552622       123.8831 
 829   0.0000       4.570423       124.3675 
 830   0.0000       4.577019       124.5470 
 831   0.0000       4.581619       124.6722 
 832   0.0000       4.582764       124.7034 
 833   0.0000       4.597264       125.0979 
 834   0.0000       4.600714       125.1918 
 835   0.0000       4.616250       125.6145 
 836   0.0000       4.627347       125.9165 
 837   0.0000       4.637767       126.2000 
 838   0.0000       4.643238       126.3489 
 839   0.0000       4.662889       126.8837 
 840   0.0000       4.679693       127.3409 
 841   0.0000       4.687367       127.5497 
 842   0.0000       4.698512       127.8530 
 843   0.0000       4.705226       128.0357 
 844   0.0000       4.714280       128.2821 
 845   0.0000       4.739714       128.9742 
 846   0.0000       4.748538       129.2143 
 847   0.0000       4.765010       129.6625 
 848   0.0000       4.774013       129.9075 
 849   0.0000       4.790334       130.3516 
 850   0.0000       4.798806       130.5822 
 851   0.0000       4.809657       130.8774 
 852   0.0000       4.818244       131.1111 
 853   0.0000       4.828300       131.3847 
 854   0.0000       4.833721       131.5322 
 855   0.0000       4.851267       132.0097 
 856   0.0000       4.858442       132.2049 
 857   0.0000       4.879047       132.7656 
 858   0.0000       4.896230       133.2332 
 859   0.0000       4.909099       133.5834 
 860   0.0000       4.914345       133.7261 
 861   0.0000       4.922235       133.9408 
 862   0.0000       4.932017       134.2070 
 863   0.0000       4.943733       134.5258 
 864   0.0000       4.944293       134.5411 
 865   0.0000       4.949201       134.6746 
 866   0.0000       4.972219       135.3010 
 867   0.0000       4.980315       135.5213 
 868   0.0000       4.997277       135.9828 
 869   0.0000       5.008566       136.2900 
 870   0.0000       5.020933       136.6265 
 871   0.0000       5.024945       136.7357 
 872   0.0000       5.030956       136.8993 
 873   0.0000       5.039130       137.1217 
 874   0.0000       5.049902       137.4148 
 875   0.0000       5.066709       137.8722 
 876   0.0000       5.089189       138.4839 
 877   0.0000       5.093755       138.6081 
 878   0.0000       5.116383       139.2239 
 879   0.0000       5.126933       139.5109 
 880   0.0000       5.132781       139.6701 
 881   0.0000       5.140020       139.8671 
 882   0.0000       5.152765       140.2139 
 883   0.0000       5.175635       140.8362 
 884   0.0000       5.184890       141.0880 
 885   0.0000       5.189259       141.2069 
 886   0.0000       5.212870       141.8494 
 887   0.0000       5.220202       142.0489 
 888   0.0000       5.232756       142.3905 
 889   0.0000       5.242451       142.6543 
 890   0.0000       5.253150       142.9455 
 891   0.0000       5.269408       143.3879 
 892   0.0000       5.281162       143.7077 
 893   0.0000       5.299050       144.1945 
 894   0.0000       5.305889       144.3806 
 895   0.0000       5.314436       144.6131 
 896   0.0000       5.340481       145.3219 
 897   0.0000       5.353329       145.6715 
 898   0.0000       5.368241       146.0773 
 899   0.0000       5.381674       146.4428 
 900   0.0000       5.382618       146.4685 
 901   0.0000       5.392410       146.7349 
 902   0.0000       5.396366       146.8426 
 903   0.0000       5.407722       147.1516 
 904   0.0000       5.438012       147.9758 
 905   0.0000       5.444760       148.1595 
 906   0.0000       5.450607       148.3185 
 907   0.0000       5.458870       148.5434 
 908   0.0000       5.466015       148.7378 
 909   0.0000       5.487033       149.3097 
 910   0.0000       5.507618       149.8699 
 911   0.0000       5.523709       150.3078 
 912   0.0000       5.532161       150.5378 
 913   0.0000       5.536977       150.6688 
 914   0.0000       5.554821       151.1544 
 915   0.0000       5.568501       151.5266 
 916   0.0000       5.576989       151.7576 
 917   0.0000       5.588347       152.0667 
 918   0.0000       5.600925       152.4089 
 919   0.0000       5.607247       152.5809 
 920   0.0000       5.628053       153.1471 
 921   0.0000       5.639826       153.4675 
 922   0.0000       5.653652       153.8437 
 923   0.0000       5.657226       153.9410 
 924   0.0000       5.661358       154.0534 
 925   0.0000       5.675999       154.4518 
 926   0.0000       5.689400       154.8164 
 927   0.0000       5.693326       154.9233 
 928   0.0000       5.709516       155.3638 
 929   0.0000       5.717149       155.5715 
 930   0.0000       5.723770       155.7517 
 931   0.0000       5.737002       156.1118 
 932   0.0000       5.748130       156.4146 
 933   0.0000       5.761960       156.7909 
 934   0.0000       5.765644       156.8912 
 935   0.0000       5.776261       157.1800 
 936   0.0000       5.788372       157.5096 
 937   0.0000       5.820409       158.3814 
 938   0.0000       5.837874       158.8566 
 939   0.0000       5.849888       159.1835 
 940   0.0000       5.864831       159.5902 
 941   0.0000       5.881104       160.0330 
 942   0.0000       5.889263       160.2550 
 943   0.0000       5.902295       160.6096 
 944   0.0000       5.934071       161.4743 
 945   0.0000       5.982272       162.7859 
 946   0.0000       6.028116       164.0334 
 947   0.0000       6.065889       165.0612 
 948   0.0000       6.116426       166.4364 
 949   0.0000       6.137803       167.0181 
 950   0.0000       6.162652       167.6943 
 951   0.0000       6.167800       167.8344 
 952   0.0000       6.184402       168.2861 
 953   0.0000       6.189459       168.4237 
 954   0.0000       6.216905       169.1706 
 955   0.0000       6.233011       169.6088 
 956   0.0000       6.241592       169.8424 
 957   0.0000       6.242996       169.8806 
 958   0.0000       6.250378       170.0814 
 959   0.0000       6.265231       170.4856 
 960   0.0000       6.276112       170.7817 
 961   0.0000       6.330862       172.2715 
 962   0.0000       6.352869       172.8703 
 963   0.0000       6.370938       173.3620 
 964   0.0000       6.383255       173.6972 
 965   0.0000       6.403757       174.2551 
 966   0.0000       6.423725       174.7984 
 967   0.0000       6.448640       175.4764 
 968   0.0000       6.507419       177.0759 
 969   0.0000       6.528587       177.6519 
 970   0.0000       6.594220       179.4378 
 971   0.0000       6.707027       182.5075 
 972   0.0000       6.830603       185.8702 
 973   0.0000       6.881826       187.2640 
 974   0.0000       6.890723       187.5061 
 975   0.0000       6.908397       187.9870 
 976   0.0000       6.937064       188.7671 
 977   0.0000       6.961833       189.4411 
 978   0.0000       6.968563       189.6242 
 979   0.0000       6.986396       190.1095 
 980   0.0000       7.004169       190.5931 
 981   0.0000       7.017453       190.9546 
 982   0.0000       7.069723       192.3769 
 983   0.0000       7.133580       194.1146 
 984   0.0000       7.166032       194.9976 
 985   0.0000       7.249451       197.2676 
 986   0.0000       7.389193       201.0702 
 987   0.0000       7.466941       203.1858 
 988   0.0000       7.505942       204.2471 
 989   0.0000       7.564622       205.8438 
 990   0.0000       7.575190       206.1314 
 991   0.0000       7.595345       206.6799 
 992   0.0000       7.741139       210.6471 
 993   0.0000       7.785375       211.8508 
 994   0.0000       7.825494       212.9425 
 995   0.0000       7.918615       215.4765 
 996   0.0000       8.072577       219.6660 
 997   0.0000       8.169225       222.2959 
 998   0.0000       8.314988       226.2623 
 999   0.0000       9.432520       256.6719 
 1000   0.0000       9.455852       257.3068 
 1001   0.0000       9.469237       257.6710 
 1002   0.0000       9.478037       257.9105 
 1003   0.0000       9.489134       258.2125 
 1004   0.0000       9.522982       259.1335 
 1005   0.0000       9.753282       265.4003 
 1006   0.0000      10.094767       274.6926 
 1007   0.0000      10.135886       275.8115 
 1008   0.0000      10.145872       276.0832 
 1009   0.0000      10.219913       278.0980 
 1010   0.0000      10.226513       278.2776 
 1011   0.0000      10.264465       279.3103 
 1012   0.0000      10.391617       282.7703 
 1013   0.0000      10.438297       284.0405 
 1014   0.0000      10.555080       287.2183 
 1015   0.0000      17.322246       471.3623 
 1016   0.0000      17.974122       489.1007 
 1017   0.0000      18.410435       500.9734 
 1018   0.0000      18.770445       510.7698 
 1019   0.0000      18.911847       514.6175 
 1020   0.0000      19.190380       522.1968 
 1021   0.0000      20.214294       550.0589 
 1022   0.0000      20.366509       554.2009 
 1023   0.0000      21.618836       588.2784 
 1024   0.0000      21.888487       595.6160 

                 SPIN DOWN ORBITALS
  NO   OCC          E(Eh)            E(eV) 
   0   1.0000    -261.549082     -7117.1123 
   1   1.0000    -104.776919     -2851.1249 
   2   1.0000    -104.775642     -2851.0902 
   3   1.0000    -104.775628     -2851.0898 
   4   1.0000     -32.058536      -872.3571 
   5   1.0000     -27.536560      -749.3079 
   6   1.0000     -27.536420      -749.3041 
   7   1.0000     -27.536007      -749.2928 
   8   1.0000     -20.552227      -559.2545 
   9   1.0000     -11.384090      -309.7768 
  10   1.0000     -11.377628      -309.6010 
  11   1.0000     -11.274784      -306.8025 
  12   1.0000     -11.269507      -306.6589 
  13   1.0000     -11.266669      -306.5817 
  14   1.0000     -11.259066      -306.3747 
  15   1.0000     -11.252876      -306.2063 
  16   1.0000     -11.249392      -306.1115 
  17   1.0000     -10.503337      -285.8103 
  18   1.0000     -10.502110      -285.7769 
  19   1.0000     -10.502088      -285.7763 
  20   1.0000      -7.969309      -216.8559 
  21   1.0000      -7.968643      -216.8378 
  22   1.0000      -7.968559      -216.8355 
  23   1.0000      -7.968041      -216.8214 
  24   1.0000      -7.967997      -216.8202 
  25   1.0000      -7.967439      -216.8050 
  26   1.0000      -7.967364      -216.8030 
  27   1.0000      -7.967331      -216.8021 
  28   1.0000      -7.967263      -216.8003 
  29   1.0000      -4.133830      -112.4872 
  30   1.0000      -2.655641       -72.2637 
  31   1.0000      -2.655496       -72.2597 
  32   1.0000      -2.654944       -72.2447 
  33   1.0000      -1.375723       -37.4353 
  34   1.0000      -1.166843       -31.7514 
  35   1.0000      -1.084033       -29.4980 
  36   1.0000      -1.038399       -28.2563 
  37   1.0000      -1.035316       -28.1724 
  38   1.0000      -1.024083       -27.8667 
  39   1.0000      -1.023150       -27.8413 
  40   1.0000      -1.002419       -27.2772 
  41   1.0000      -0.981773       -26.7154 
  42   1.0000      -0.925005       -25.1707 
  43   1.0000      -0.795053       -21.6345 
  44   1.0000      -0.763072       -20.7642 
  45   1.0000      -0.693956       -18.8835 
  46   1.0000      -0.692934       -18.8557 
  47   1.0000      -0.675056       -18.3692 
  48   1.0000      -0.651246       -17.7213 
  49   1.0000      -0.639008       -17.3883 
  50   1.0000      -0.623524       -16.9670 
  51   1.0000      -0.598015       -16.2728 
  52   1.0000      -0.590970       -16.0811 
  53   1.0000      -0.587601       -15.9894 
  54   1.0000      -0.583462       -15.8768 
  55   1.0000      -0.571999       -15.5649 
  56   1.0000      -0.564615       -15.3640 
  57   1.0000      -0.552514       -15.0347 
  58   1.0000      -0.546079       -14.8596 
  59   1.0000      -0.533907       -14.5284 
  60   1.0000      -0.529558       -14.4100 
  61   1.0000      -0.505550       -13.7567 
  62   1.0000      -0.478706       -13.0262 
  63   1.0000      -0.469221       -12.7682 
  64   1.0000      -0.464330       -12.6351 
  65   1.0000      -0.439363       -11.9557 
  66   1.0000      -0.437073       -11.8934 
  67   1.0000      -0.434904       -11.8343 
  68   1.0000      -0.423445       -11.5225 
  69   1.0000      -0.414130       -11.2690 
  70   1.0000      -0.402498       -10.9525 
  71   1.0000      -0.376052       -10.2329 
  72   0.0000       0.009709         0.2642 
  73   0.0000       0.020401         0.5551 
  74   0.0000       0.022706         0.6179 
  75   0.0000       0.030711         0.8357 
  76   0.0000       0.037806         1.0287 
  77   0.0000       0.038802         1.0559 
  78   0.0000       0.042024         1.1435 
  79   0.0000       0.043647         1.1877 
  80   0.0000       0.044854         1.2205 
  81   0.0000       0.048036         1.3071 
  82   0.0000       0.056373         1.5340 
  83   0.0000       0.060634         1.6499 
  84   0.0000       0.061602         1.6763 
  85   0.0000       0.064677         1.7600 
  86   0.0000       0.066724         1.8156 
  87   0.0000       0.071406         1.9430 
  88   0.0000       0.073424         1.9980 
  89   0.0000       0.081672         2.2224 
  90   0.0000       0.088274         2.4021 
  91   0.0000       0.089294         2.4298 
  92   0.0000       0.091288         2.4841 
  93   0.0000       0.095028         2.5858 
  94   0.0000       0.100400         2.7320 
  95   0.0000       0.103069         2.8046 
  96   0.0000       0.110001         2.9933 
  97   0.0000       0.115366         3.1393 
  98   0.0000       0.118623         3.2279 
  99   0.0000       0.119771         3.2591 
 100   0.0000       0.122040         3.3209 
 101   0.0000       0.123187         3.3521 
 102   0.0000       0.123641         3.3644 
 103   0.0000       0.125575         3.4171 
 104   0.0000       0.128433         3.4948 
 105   0.0000       0.129974         3.5368 
 106   0.0000       0.131451         3.5770 
 107   0.0000       0.133360         3.6289 
 108   0.0000       0.135143         3.6774 
 109   0.0000       0.138075         3.7572 
 110   0.0000       0.138659         3.7731 
 111   0.0000       0.140122         3.8129 
 112   0.0000       0.147912         4.0249 
 113   0.0000       0.148345         4.0367 
 114   0.0000       0.151504         4.1226 
 115   0.0000       0.153834         4.1860 
 116   0.0000       0.157867         4.2958 
 117   0.0000       0.162712         4.4276 
 118   0.0000       0.164283         4.4704 
 119   0.0000       0.166893         4.5414 
 120   0.0000       0.171781         4.6744 
 121   0.0000       0.175836         4.7848 
 122   0.0000       0.178601         4.8600 
 123   0.0000       0.182085         4.9548 
 124   0.0000       0.185927         5.0593 
 125   0.0000       0.188111         5.1188 
 126   0.0000       0.193877         5.2757 
 127   0.0000       0.195448         5.3184 
 128   0.0000       0.198172         5.3925 
 129   0.0000       0.202342         5.5060 
 130   0.0000       0.206170         5.6102 
 131   0.0000       0.207814         5.6549 
 132   0.0000       0.209347         5.6966 
 133   0.0000       0.212304         5.7771 
 134   0.0000       0.216942         5.9033 
 135   0.0000       0.219598         5.9756 
 136   0.0000       0.226058         6.1514 
 137   0.0000       0.226435         6.1616 
 138   0.0000       0.234983         6.3942 
 139   0.0000       0.235982         6.4214 
 140   0.0000       0.239300         6.5117 
 141   0.0000       0.242391         6.5958 
 142   0.0000       0.243593         6.6285 
 143   0.0000       0.247003         6.7213 
 144   0.0000       0.249497         6.7892 
 145   0.0000       0.253879         6.9084 
 146   0.0000       0.257850         7.0165 
 147   0.0000       0.259318         7.0564 
 148   0.0000       0.260353         7.0846 
 149   0.0000       0.267204         7.2710 
 150   0.0000       0.269786         7.3413 
 151   0.0000       0.281154         7.6506 
 152   0.0000       0.282533         7.6881 
 153   0.0000       0.285833         7.7779 
 154   0.0000       0.287702         7.8288 
 155   0.0000       0.293447         7.9851 
 156   0.0000       0.299631         8.1534 
 157   0.0000       0.303021         8.2456 
 158   0.0000       0.305341         8.3087 
 159   0.0000       0.308256         8.3881 
 160   0.0000       0.311940         8.4883 
 161   0.0000       0.315189         8.5767 
 162   0.0000       0.315920         8.5966 
 163   0.0000       0.321983         8.7616 
 164   0.0000       0.329415         8.9638 
 165   0.0000       0.331530         9.0214 
 166   0.0000       0.337595         9.1864 
 167   0.0000       0.343921         9.3586 
 168   0.0000       0.344190         9.3659 
 169   0.0000       0.351632         9.5684 
 170   0.0000       0.353008         9.6058 
 171   0.0000       0.358056         9.7432 
 172   0.0000       0.362378         9.8608 
 173   0.0000       0.364529         9.9193 
 174   0.0000       0.365757         9.9528 
 175   0.0000       0.372068        10.1245 
 176   0.0000       0.372890        10.1468 
 177   0.0000       0.377395        10.2694 
 178   0.0000       0.380922        10.3654 
 179   0.0000       0.385625        10.4934 
 180   0.0000       0.386241        10.5102 
 181   0.0000       0.386878        10.5275 
 182   0.0000       0.390118        10.6156 
 183   0.0000       0.393333        10.7031 
 184   0.0000       0.396900        10.8002 
 185   0.0000       0.400462        10.8971 
 186   0.0000       0.403095        10.9688 
 187   0.0000       0.405234        11.0270 
 188   0.0000       0.410962        11.1828 
 189   0.0000       0.412367        11.2211 
 190   0.0000       0.417714        11.3666 
 191   0.0000       0.420184        11.4338 
 192   0.0000       0.425380        11.5752 
 193   0.0000       0.426128        11.5955 
 194   0.0000       0.427709        11.6385 
 195   0.0000       0.435705        11.8561 
 196   0.0000       0.440584        11.9889 
 197   0.0000       0.447481        12.1766 
 198   0.0000       0.450912        12.2699 
 199   0.0000       0.454115        12.3571 
 200   0.0000       0.459199        12.4955 
 201   0.0000       0.461878        12.5684 
 202   0.0000       0.466808        12.7025 
 203   0.0000       0.469007        12.7623 
 204   0.0000       0.469730        12.7820 
 205   0.0000       0.473423        12.8825 
 206   0.0000       0.475127        12.9289 
 207   0.0000       0.477026        12.9805 
 208   0.0000       0.478448        13.0192 
 209   0.0000       0.483204        13.1486 
 210   0.0000       0.486351        13.2343 
 211   0.0000       0.490684        13.3522 
 212   0.0000       0.494271        13.4498 
 213   0.0000       0.495336        13.4788 
 214   0.0000       0.499932        13.6038 
 215   0.0000       0.503017        13.6878 
 216   0.0000       0.504367        13.7245 
 217   0.0000       0.506533        13.7835 
 218   0.0000       0.513431        13.9712 
 219   0.0000       0.515441        14.0258 
 220   0.0000       0.517536        14.0829 
 221   0.0000       0.518605        14.1120 
 222   0.0000       0.524047        14.2600 
 223   0.0000       0.528544        14.3824 
 224   0.0000       0.531425        14.4608 
 225   0.0000       0.536302        14.5935 
 226   0.0000       0.538467        14.6524 
 227   0.0000       0.544887        14.8271 
 228   0.0000       0.545616        14.8470 
 229   0.0000       0.552613        15.0374 
 230   0.0000       0.552848        15.0438 
 231   0.0000       0.555282        15.1100 
 232   0.0000       0.563387        15.3305 
 233   0.0000       0.565787        15.3958 
 234   0.0000       0.571741        15.5579 
 235   0.0000       0.573107        15.5950 
 236   0.0000       0.576625        15.6908 
 237   0.0000       0.579241        15.7619 
 238   0.0000       0.581350        15.8193 
 239   0.0000       0.585949        15.9445 
 240   0.0000       0.587945        15.9988 
 241   0.0000       0.590189        16.0599 
 242   0.0000       0.601921        16.3791 
 243   0.0000       0.603446        16.4206 
 244   0.0000       0.608009        16.5448 
 245   0.0000       0.609528        16.5861 
 246   0.0000       0.614835        16.7305 
 247   0.0000       0.616634        16.7795 
 248   0.0000       0.622294        16.9335 
 249   0.0000       0.623741        16.9729 
 250   0.0000       0.627907        17.0862 
 251   0.0000       0.631821        17.1927 
 252   0.0000       0.634892        17.2763 
 253   0.0000       0.640499        17.4289 
 254   0.0000       0.642549        17.4847 
 255   0.0000       0.647942        17.6314 
 256   0.0000       0.648736        17.6530 
 257   0.0000       0.653068        17.7709 
 258   0.0000       0.658620        17.9220 
 259   0.0000       0.661107        17.9896 
 260   0.0000       0.667661        18.1680 
 261   0.0000       0.670102        18.2344 
 262   0.0000       0.674930        18.3658 
 263   0.0000       0.676059        18.3965 
 264   0.0000       0.679285        18.4843 
 265   0.0000       0.688298        18.7295 
 266   0.0000       0.691967        18.8294 
 267   0.0000       0.698786        19.0149 
 268   0.0000       0.701842        19.0981 
 269   0.0000       0.706747        19.2316 
 270   0.0000       0.712543        19.3893 
 271   0.0000       0.714837        19.4517 
 272   0.0000       0.720606        19.6087 
 273   0.0000       0.727223        19.7888 
 274   0.0000       0.733511        19.9599 
 275   0.0000       0.735336        20.0095 
 276   0.0000       0.738388        20.0926 
 277   0.0000       0.742814        20.2130 
 278   0.0000       0.748372        20.3642 
 279   0.0000       0.752091        20.4654 
 280   0.0000       0.764355        20.7992 
 281   0.0000       0.766118        20.8471 
 282   0.0000       0.769971        20.9520 
 283   0.0000       0.776743        21.1363 
 284   0.0000       0.783046        21.3078 
[...]
  | sigma^2 in % of trace(Dij) retained ...   8.32e+00
  | sigma^2 in % of trace(Dip) retained ...   1.44e+01
  | sigma^2 in % of trace(Dpq) retained ...   1.32e-01
  | Av. % of trace(Di) retained         ...  99.998480548298
  | Av. % of trace(Dp) retained         ...  99.999998885386
  | sigma^2 in % of trace(Di) retained  ...   8.07e-07
  | sigma^2 in % of trace(Dp) retained  ...   1.76e-12
 Distributions of % trace(Dij) recovered:
  |       >= 99.9  ...   105 ( 20.1 % of all IJ-pairs)
  |   [80.0, 90.0) ...    35 (  6.7 % of all IJ-pairs)
  |   [90.0, 99.0) ...   289 ( 55.3 % of all IJ-pairs)
  |   [99.0, 99.9) ...    94 ( 18.0 % of all IJ-pairs)
 Distributions of % trace(Dip) recovered:
  |   [80.0, 90.0) ...    10 (  8.6 % of all IP-pairs)
  |   [90.0, 99.0) ...    62 ( 53.4 % of all IP-pairs)
  |   [99.0, 99.9) ...    44 ( 37.9 % of all IP-pairs)
 Distributions of % trace(Dpq) recovered:
  |       >= 99.9  ...     5 ( 33.3 % of all PQ-pairs)
  |   [99.0, 99.9) ...    10 ( 66.7 % of all PQ-pairs)
 Distributions of % trace(Di) recovered :
  |       >= 99.9  ...    43 (100.0 % of all I-pairs )
 Distributions of % trace(Dp) recovered :
  |       >= 99.9  ...     5 (100.0 % of all P-pairs )

                       ===========================
                       1144 OF 1725 PAIRS ARE KEPT
                       ===========================

 Initial PAO correlation energy (all pairs)    ...  -2.6951868586 Eh
 Energy constituents in PAO basis (Eh):
  | Vijab(+0) ...  -2.2647101845
  | Viab (-1) ...  -0.1758350130
  | Vab  (-2) ...  -0.0573580374
  | Va   (-1) ...  -0.0000425741
  | Vija (+1) ...  -0.0732075667
  | Vij  (+2) ...  -0.0155126459
  | Via  (+0) ...  -0.1083605712
  | Vi   (+1) ...  -0.0001602658
 Initial PNO correlation energy                ...  -2.6605400510 Eh
 Energy constituents in PNO basis (Eh):
  | Vijab(+0) ...  -2.2462887149 (err=  0.0184214695)
  | Viab (-1) ...  -0.1613310390 (err=  0.0145039740)
  | Vab  (-2) ...  -0.0568911031 (err=  0.0004669344)
  | Va   (-1) ...  -0.0000244503 (err=  0.0000181239)
  | Vija (+1) ...  -0.0721576155 (err=  0.0010499512)
  | Vij  (+2) ...  -0.0154518841 (err=  0.0000607618)
  | Via  (+0) ...  -0.1082355234 (err=  0.0001250478)
  | Vi   (+1) ...  -0.0001597207 (err=  0.0000005451)
 Sum of total truncation errors ...   0.0346468076 Eh
  | Pair screening ...   0.0114182266 Eh
  | PNO truncation ...   0.0232285809 Eh

 UMP2 correlation energy (PAO) ...  -2.6902549299
  | alpha-alpha ...  -0.3866759034 (NP_aa=  939)
  | alpha-beta  ...  -1.9964204738 (NP_ab= 1700)
  | beta -beta  ...  -0.3071585527 (NP_bb=  728)
 UMP2 correlation energy (PNO) ...  -2.6552425231
  | alpha-alpha ...  -0.3745621984 (err=  0.0121137050, NP_aa=  606)
  | alpha-beta  ...  -1.9775399996 (err=  0.0188804742, NP_ab= 1119)
  | beta -beta  ...  -0.3031403252 (err=  0.0040182275, NP_bb=  480)
 Sum of total UMP2 truncation errors ...   0.0350124068 Eh
  | Pair screening ...   0.0114292505 Eh
  | PNO truncation ...   0.0235831563 Eh
 Timing for NEV-PNO construction (sec.)
  | Intermediate construction  ..           58.537
  | Amplitude construction     ..           78.829
  | Total time                 ..          137.366
 Making pair pair interaction lists ...      ok
 Total size for 2-ext PNO integrals ...     11.1 MB
Checking the number of SOMO/SOMO doubles PNOs ... 
 #Truncate: (72, 72)[173] -> [84] .. 
 #Truncate: (73, 73)[173] -> [84] .. 
 #Truncate: (74, 74)[169] -> [84] .. 
 #Truncate: (75, 75)[169] -> [84] .. 
 #Truncate: (76, 76)[171] -> [84] .. 

--------------------------------
LOCAL RI TRANSFORMATION (VABPAO)
--------------------------------

Number of PAOs:    1030
Basis functions:   1025 (343 shells)
Aux. functions:    2424 (644 shells)

Processing maps (0.0 sec)
Average map sizes:
   Aux shells -> PAOs           1030.0
   PAOs       -> AO shells       343.0

Calculating integrals (349.2 sec, 37370.165 MB)
Finished
-----------------------------
LOCAL RI TRANSFORMATION (IJV)
-----------------------------

Orbital window:      29 to 76
Basis functions:   1025 (343 shells)
Aux. functions:    2424 (644 shells)

Processing maps (0.0 sec)
Average map sizes:
   Aux shells -> MOs(i)           46.5
   Aux shells -> MOs(j)           48.0
   MOs        -> AO shells       341.6

Calculating integrals (24.0 sec, 41.361 MB)
Sorting integrals (0.3 sec, 41.334 MB)
Total time for the integral transformation: 24.4 sec


-------------------------------------
Pair Pair Term precalculation with     
RI-(ij|mn) and (im|jn) transformation  
ON THE FLY                             
-------------------------------------

   IBatch   1 (of   2)              ... done ( 1212.198 sec)
   IBatch   2 (of   2)              ... done ( 1182.851 sec)
Total EXT                           ...        2395.050 sec

---------------------
RI-PNO TRANSFORMATION
---------------------

Total Number of PNOs                   ... 35258
Total Number of IJ-PNOs                ... 31090
Total Number of IP-PNOs                ...  3224
Total Number of PQ-PNOs                ...   944
Total Number of IJ-pairs               ...  1003
Total Number of PI-pairs               ...   116
Total Number of PQ-pairs               ...    25
Average number of PNOs per pair        ...    30
Maximal number of PNOs per pair        ...    84
>> Statistics for ij-pairs..
   #pairs with  1 -  5 PNOs   :    0
   #pairs with  6 - 10 PNOs   :    0
   #pairs with 11 - 15 PNOs   :   62
   #pairs with 16 - 20 PNOs   :  256
   #pairs with 21 - 25 PNOs   :  186
   #pairs with 26 - 30 PNOs   :  142
   #pairs with 31 - 35 PNOs   :   56
   #pairs with 36 - 40 PNOs   :   62
   #pairs with 41 - 45 PNOs   :   46
   #pairs with 46 - 50 PNOs   :   21
   #pairs with 51 - 55 PNOs   :   36
   #pairs with 56 - 60 PNOs   :   53
   #pairs with 61 - 65 PNOs   :   76
   #pairs with 66 - 70 PNOs   :    4
   #pairs with 76 - 80 PNOs   :    3
>> Statistics for ip-pairs..
   #pairs with  1 -  5 PNOs   :    0
   #pairs with  6 - 10 PNOs   :    1
   #pairs with 11 - 15 PNOs   :   12
   #pairs with 16 - 20 PNOs   :    6
   #pairs with 21 - 25 PNOs   :   25
   #pairs with 26 - 30 PNOs   :   11
   #pairs with 31 - 35 PNOs   :   49
   #pairs with 36 - 40 PNOs   :   12
   #pairs with 41 - 45 PNOs   :    0
   #pairs with 46 - 50 PNOs   :    0
>> Statistics for pq-pairs..
   #pairs with  1 -  5 PNOs   :    0
   #pairs with  6 - 10 PNOs   :    0
   #pairs with 11 - 15 PNOs   :    0
   #pairs with 16 - 20 PNOs   :    0
   #pairs with 21 - 25 PNOs   :   10
   #pairs with 26 - 30 PNOs   :   10
   #pairs with 31 - 35 PNOs   :    0
   #pairs with 36 - 40 PNOs   :    0
   #pairs with 41 - 45 PNOs   :    0
   #pairs with 46 - 50 PNOs   :    0
   #pairs with 81 - 85 PNOs   :    5

Generation of (ij|ab)[P] integrals            ... on
Generation of (ia|bc)[P],(ja|bc)[P] integrals ... on
Storage of 3 and 4 external integrals         ... on
Generation of ALL (ka|bc)[P] integrals        ... on
Keep RI integrals in memory                   ... off

Ibatch:  1 (of  1)
Starting 2-4 index PNO integral generation ... done

Timings:
Total PNO integral transformation time     ...       2358.143 sec
Size of the 3-external file                ...       287 MB
Size of the 4-external file                ...      1930 MB
Size of the IKJL file                      ...        19 MB
Size of the all 3-external file            ...      6889 MB
Size of the 1-external file                ...        22 MB

Size of the PAO/PNO coefficient matrices   ...     233.3 MB

Making pair/pair overlap matrices          ... done (  420.857 sec)
Size of the pair overlap file              ...    2516.0 MB
Total # unrestricted pairs ...       2205
  # of alpha-alpha pairs   ...        606
  # of alpha-beta pairs    ...       1119
  # of beta-beta pairs     ...        480
Constructing the guess amplitudes          ... done (    0.741 sec)

-------------------------
FINAL STARTUP INFORMATION
-------------------------

E(0)                                       ...  -3028.413311816
E(SL-UMP2 in NEV-PNO space)                ...     -2.691237559
Initial E(tot)                             ...  -3031.104549375
<T|T>                                      ...      0.536435846
Number of unrestricted pairs included      ... 2205
Total number of pairs                      ... 4095
----------------------------------------------------------
                     OPEN-SHELL COUPLED CLUSTER ITERATIONS
----------------------------------------------------------

Number of PNO amplitudes to be optimized        ...          2142261
Number of canonical amplitudes for strong pairs ...       1991595263
Untruncated number of canonical amplitudes      ...       3698645738

Iter       E(tot)           E(Corr)          Delta-E          Residual     Time
  0  -3031.111731023     -2.662424171      0.028813387      0.022382047 2304.47
                           *** Turning on DIIS ***
  1  -3031.223766076     -2.774459224     -0.112035052      0.009509251 2105.26
  2  -3031.288298025     -2.838991173     -0.064531949      0.008857364 1919.52
  3  -3031.309360616     -2.860053764     -0.021062591      0.003264553 1912.94
  4  -3031.316393285     -2.867086433     -0.007032669      0.002805799 1914.91
  5  -3031.320023696     -2.870716844     -0.003630411      0.001994345 1923.04
  6  -3031.321334693     -2.872027842     -0.001310998      0.000873837 1910.33
  7  -3031.322102481     -2.872795629     -0.000767788      0.000499538 1911.83
  8  -3031.322260866     -2.872954014     -0.000158385      0.000194615 1938.48
  9  -3031.322305103     -2.872998251     -0.000044237      0.000073788 1962.74
 10  -3031.322300819     -2.872993967      0.000004284      0.000061101 1990.10
 11  -3031.322309681     -2.873002829     -0.000008861      0.000031520 1989.92
 12  -3031.322314219     -2.873007367     -0.000004539      0.000016676 1804.66
 13  -3031.322316329     -2.873009477     -0.000002110      0.000011221 1872.82
 14  -3031.322316955     -2.873010103     -0.000000626      0.000005648 1890.49
               --- The CCSD iterations have converged ---

E(0)                                       ...  -3028.413311816
E(CORR)(strong-pairs)                      ...     -2.873010103
E(CORR)(weak-pairs)                        ...     -0.035995036
E(CORR)(corrected)                         ...     -2.909005138
E(TOT)                                     ...  -3031.322316955
Singles norm <S|S>**1/2                    ...      0.186539751 ( 0.061323492, 0.125216258)  
T1 diagnostic                              ...      0.019554679                              
<S**2>(linearized)                         ...      8.7507510 (ideal value:      8.7500000)

----------------------
LARGEST PNO AMPLITUDES
----------------------
  45a-> 78a  45b-> 78b       0.062921
  51b-> 76b  -1b-> -1b       0.057915
  45a-> 77a  45b-> 77b       0.055530
  49b-> 72b  -1b-> -1b       0.047499
  52b-> 76b  -1b-> -1b       0.046373
  44a-> 78a  44b-> 78b       0.045035
  56a-> 77a  56b-> 77b       0.044754
  30b-> 76b  -1b-> -1b       0.044733
  49b-> 74b  -1b-> -1b       0.044642
  49b-> 75b  -1b-> -1b       0.044503
  67a-> 77a  67b-> 77b       0.044109
  63a-> 77a  63b-> 77b       0.043104
  59a-> 77a  59b-> 77b       0.043021
  39b-> 73b  -1b-> -1b       0.042820
  71a-> 77a  71b-> 77b       0.042655
  52b-> 73b  -1b-> -1b       0.042470

Total # unrestricted pairs ...       1162
  # of alpha-alpha pairs   ...        333
  # of alpha-beta pairs    ...        581
  # of beta-beta pairs     ...        248

-------------------------------------------
DLPNO BASED TRIPLES CORRECTION
-------------------------------------------

Singles multiplier          ...  1.000000
Fragment selection                          .... not used
TCutTNO                     ... 1.000e-09
TCutMP2Pairs                ... 1.000e-05
TCutDOStrong                ... 2.000e-02
TCutMKNStrong               ... 1.000e-02
TCutDOWeak                  ... 4.000e-02
TCutMKNWeak                 ... 1.000e-01
NTCutTNO                    ... 1

Number of Triples that are to be computed         ...     36176

 . . . . . . . . .
10% done  
20% done  
30% done  
40% done  
50% done  
60% done  
70% done  
80% done  
90% done  
          Batch   1   done (  19155.532 sec)

Triples-Correction TCutTNO=   1.000e-09 (NWeakPairs = 0  1  2  3)  -0.117832373026   -0.001877659862    0.000000000000    0.000000000000
Triples-Correction  -0.119710032888

Triples timings:
Total time                      ... 19845.640 sec

Triples List generation         ...     0.000 sec
TNO generation                  ...   689.854 sec
Pair density generation         ...     0.086 sec
Look up tables                  ...     0.137 sec
Generating 3-index integrals    ... 12044.171 sec
Make 4-ind.int. from 3-ind.int  ...     4.212 sec
Projecting amplitudes (D + S)   ...  6811.173 sec
Sorting integrals for spin cases...    63.555 sec
Calculate W0/W1                 ...   184.116 sec
Energy contr. (sum over a,b,c)  ...    48.115 sec

Everything after 3-index        ...  7271.191 sec

Energy contribution AAA         ...    29.407 sec
Energy contribution AAB         ...   131.049 sec
Energy contribution ABB         ...   119.433 sec
Energy contribution BBB         ...    15.953 sec
prep                ...     3.733 sec
makeTTNO            ...  6741.811 sec
copyij              ...     0.154 sec
copyil              ...     5.129 sec
transposeij         ...     0.091 sec
newMatInDoubleProj  ...    67.539 sec
BlasInDoubleProj    ...  3512.278 sec
ProjSingles         ...    57.185 sec
ProjDoubles         ...  6753.988 sec
overall Doubles for projection      ... 3315354
used Doubles for projection         ... 3315354


Number of Triples   (0, 1, 2, 3 weak pairs; overall):  17854   12151       0       0  ( 30005)
Number of Atoms     (0, 1, 2, 3 weak pairs; overall):   20.3    14.7     0.0     0.0  (    29)
Number of PAOs      (0, 1, 2, 3 weak pairs; overall):  780.9   593.4     0.0     0.0  (  1025)
Number of AuxFcns   (0, 1, 2, 3 weak pairs; overall):  958.9   567.5     0.0     0.0  (  2424)
Number of TNOs (0, 1, 2, 3 weak pairs         ):   78.4    56.2     0.0     0.0
Aver. Number of NTNO, Atoms, PAOs, AuxFcns / Triples:  30005    69.5    18.0   705.0   800.4

Triples Correction (T)                     ...     -0.119710033
    alpha-alpha-alpha ... -0.003925962 (  3.3%)
    alpha-alpha-beta  ... -0.056193474 ( 46.9%)
    alpha-beta -beta  ... -0.055443103 ( 46.3%)
    beta -beta -beta  ... -0.004147495 (  3.5%)
Final correlation energy                   ...     -3.028715171
E(CCSD)                                    ...  -3031.322316955
E(CCSD(T))                                 ...  -3031.442026988

----------------------------
STATISTICS FOR PAIR-ENERGIES
----------------------------
Minimum, maximum and average ratios of UMP and CCSD pair-energies ... 0.47, 1.43, 1.02


------------------------------------------------------------------------------- 
                                     TIMINGS                                   
------------------------------------------------------------------------------- 


Total execution time                   ...    58782.438 sec

Localization of occupied MO's          ...       12.483 sec (  0.0%)
Fock Matrix Formation                  ...     1641.758 sec (  2.8%)
Differential overlap integrals         ...        2.018 sec (  0.0%)
Organizing maps                        ...        1.911 sec (  0.0%)
RI 3-index integral generations        ...      447.288 sec (  0.8%)
RI-PNO integral transformation         ...     5484.978 sec (  9.3%)
Initial Guess                          ...     2335.337 sec (  4.0%)
DIIS Solver                            ...       14.876 sec (  0.0%)
State Vector Update                    ...        0.689 sec (  0.0%)
Sigma-vector construction              ...    29351.534 sec ( 49.9%)
  <0|H|D>                              ...        0.029 sec (  0.0% of sigma)
  <D|H|D>(0-ext)                       ...     5557.849 sec ( 18.9% of sigma)
  <D|H|D>(2-ext Fock)                  ...        1.777 sec (  0.0% of sigma)
  <D|H|D>(2-ext)                       ...     4250.779 sec ( 14.5% of sigma)
  <D|H|D>(4-ext)                       ...      149.794 sec (  0.5% of sigma)
  <D|H|D>(4-ext-corr)                  ...      912.667 sec (  3.1% of sigma)
  CCSD doubles correction              ...      511.934 sec (  1.7% of sigma)
  <S|H|S>                              ...      750.858 sec (  2.6% of sigma)
  <S|H|D>(1-ext)                       ...      233.307 sec (  0.8% of sigma)
  <D|H|S>(1-ext)                       ...        0.869 sec (  0.0% of sigma)
  <S|H|D>(3-ext)                       ...       20.090 sec (  0.1% of sigma)
  CCSD singles correction              ...        0.004 sec (  0.0% of sigma)
  Fock-dressing                        ...     8734.762 sec ( 29.8% of sigma)
  Singles amplitudes                   ...      106.420 sec (  0.4% of sigma)
  (ik|jl)-dressing                     ...     6495.175 sec ( 22.1% of sigma)
  (ij|ab),(ia|jb)-dressing             ...     1510.219 sec (  5.1% of sigma)
  Pair energies                        ...        0.121 sec (  0.0% of sigma)
Total Time for computing (T)           ...    19940.527 sec ( 33.9% of ALL)


-------------------------   --------------------
FINAL SINGLE POINT ENERGY     -3031.442026987705
-------------------------   --------------------


                            ***************************************
                            *     ORCA property calculations      *
                            ***************************************

                                    ---------------------
                                    Active property flags
                                    ---------------------
   (+) Dipole Moment


------------------------------------------------------------------------------
                       ORCA ELECTRIC PROPERTIES CALCULATION
------------------------------------------------------------------------------

Dipole Moment Calculation                       ... on
Quadrupole Moment Calculation                   ... off
Polarizability Calculation                      ... off
GBWName                                         ... simple-grid-200-210-b3lyp_d3bj-631gd-gas-singlepoint-DLPNO_CCSD_T1-NormalPNO-augtz-gas.gbw
Electron density file                           ... simple-grid-200-210-b3lyp_d3bj-631gd-gas-singlepoint-DLPNO_CCSD_T1-NormalPNO-augtz-gas.scfp.tmp
The origin for moment calculation is the CENTER OF MASS  = ( 0.304260,  0.021102  0.017843)

-------------
DIPOLE MOMENT
-------------
                                X             Y             Z
Electronic contribution:     40.92135       3.19043       2.16127
Nuclear contribution   :    -45.33479      -3.14425      -2.65866
                        -----------------------------------------
Total Dipole Moment    :     -4.41343       0.04617      -0.49739
                        -----------------------------------------
Magnitude (a.u.)       :      4.44161
Magnitude (Debye)      :     11.28969



--------------------
Rotational spectrum 
--------------------
 
Rotational constants in cm-1:     0.019255     0.011637     0.010690 
Rotational constants in MHz :   577.240307   348.871144   320.471483 

 Dipole components along the rotational axes: 
x,y,z [a.u.] :     4.414797     0.022085    -0.486843 
x,y,z [Debye]:    11.221521     0.056135    -1.237457 

 

Timings for individual modules:

Sum of individual times         ...    77259.888 sec (=1287.665 min)
GTO integral calculation        ...       12.579 sec (=   0.210 min)   0.0 %
SCF iterations                  ...    18446.538 sec (= 307.442 min)  23.9 %
MDCI module                     ...    58800.772 sec (= 980.013 min)  76.1 %
                             ****ORCA TERMINATED NORMALLY****
TOTAL RUN TIME: 0 days 21 hours 27 minutes 42 seconds 418 msec
