
                                 *****************
                                 * O   R   C   A *
                                 *****************

           --- An Ab Initio, DFT and Semiempirical electronic structure package ---

                  #######################################################
                  #                        -***-                        #
                  #          Department of theory and spectroscopy      #
                  #               Directorship: Frank Neese             #
                  #        Max Planck Institute fuer Kohlenforschung    #
                  #                Kaiser Wilhelm Platz 1               #
                  #                 D-45470 Muelheim/Ruhr               #
                  #                      Germany                        #
                  #                                                     #
                  #                  All rights reserved                #
                  #                        -***-                        #
                  #######################################################


                         Program Version 4.1.2  - RELEASE  -


 With contributions from (in alphabetic order):
   Daniel Aravena         : Magnetic Properties
   Michael Atanasov       : Ab Initio Ligand Field Theory
   Alexander A. Auer      : GIAO ZORA
   Ute Becker             : Parallelization
   Giovanni Bistoni       : ED, Open-shell LED
   Martin Brehm           : Molecular dynamics
   Dmytro Bykov           : SCF Hessian
   Vijay G. Chilkuri      : MRCI spin determinant printing
   Dipayan Datta          : RHF DLPNO-CCSD density
   Achintya Kumar Dutta   : EOM-CC, STEOM-CC
   Dmitry Ganyushin       : Spin-Orbit,Spin-Spin,Magnetic field MRCI
   Miquel Garcia          : C-PCM Hessian
   Yang Guo               : DLPNO-NEVPT2, CIM, IAO-localization
   Andreas Hansen         : Spin unrestricted coupled pair/coupled cluster methods
   Benjamin Helmich-Paris : CASSCF linear response (MC-RPA)
   Lee Huntington         : MR-EOM, pCC
   Robert Izsak           : Overlap fitted RIJCOSX, COSX-SCS-MP3, EOM
   Christian Kollmar      : KDIIS, OOCD, Brueckner-CCSD(T), CCSD density
   Simone Kossmann        : Meta GGA functionals, TD-DFT gradient, OOMP2, MP2 Hessian
   Martin Krupicka        : AUTO-CI
   Lucas Lang             : DCDCAS
   Dagmar Lenk            : GEPOL surface, SMD
   Dimitrios Liakos       : Extrapolation schemes; parallel MDCI
   Dimitrios Manganas     : ROCIS; embedding schemes
   Dimitrios Pantazis     : SARC Basis sets
   Taras Petrenko         : DFT Hessian,TD-DFT gradient, ASA, ECA, R-Raman, ABS, FL, XAS/XES, NRVS
   Peter Pinski           : DLPNO-MP2, DLPNO-MP2 Gradient
   Christoph Reimann      : Effective Core Potentials
   Marius Retegan         : Local ZFS, SOC
   Christoph Riplinger    : Optimizer, TS searches, QM/MM, DLPNO-CCSD(T), (RO)-DLPNO pert. Triples
   Tobias Risthaus        : Range-separated hybrids, TD-DFT gradient, RPA, STAB
   Michael Roemelt        : Restricted open shell CIS
   Masaaki Saitow         : Open-shell DLPNO
   Barbara Sandhoefer     : DKH picture change effects
   Avijit Sen             : IP-ROCIS
   Kantharuban Sivalingam : CASSCF convergence, NEVPT2, FIC-MRCI
   Bernardo de Souza      : ESD, SOC TD-DFT
   Georgi Stoychev        : AutoAux, RI-MP2 NMR
   Willem Van den Heuvel  : Paramagnetic NMR
   Boris Wezisla          : Elementary symmetry handling
   Frank Wennmohs         : Technical directorship


 We gratefully acknowledge several colleagues who have allowed us to
 interface, adapt or use parts of their codes:
   Stefan Grimme, W. Hujo, H. Kruse,             : VdW corrections, initial TS optimization,
                  C. Bannwarth                     DFT functionals, gCP, sTDA/sTD-DF
   Ed Valeev                                     : LibInt (2-el integral package), F12 methods
   Garnet Chan, S. Sharma, J. Yang, R. Olivares  : DMRG
   Ulf Ekstrom                                   : XCFun DFT Library
   Mihaly Kallay                                 : mrcc  (arbitrary order and MRCC methods)
   Andreas Klamt, Michael Diedenhofen            : otool_cosmo (COSMO solvation model)
   Jiri Pittner, Ondrej Demel                    : Mk-CCSD
   Frank Weinhold                                : gennbo (NPA and NBO analysis)
   Christopher J. Cramer and Donald G. Truhlar   : smd solvation model
   Lars Goerigk                                  : TD-DFT with DH, B97 family of functionals
   V. Asgeirsson, H. Jonsson                     : NEB implementation
   FAccTs GmbH                                   : IRC, NEB, NEB-TS, Multilevel


 Your calculation uses the libint2 library for the computation of 2-el integrals
 For citations please refer to: http://libint.valeyev.net

 This ORCA versions uses:
   CBLAS   interface :  Fast vector & matrix operations
   LAPACKE interface :  Fast linear algebra routines
   SCALAPACK package :  Parallel linear algebra routines


----- Orbital basis set information -----
Your calculation utilizes the basis: aug-cc-pVTZ 
    H, B-Ne : Obtained from the ccRepo (grant-hill.group.shef.ac.uk/ccrepo) Feb. 2017
              R. A. Kendall, T. H. Dunning, Jr., R. J. Harrison, J. Chem. Phys. 96, 6796 (1992)
         He : Obtained from the ccRepo (grant-hill.group.shef.ac.uk/ccrepo) Feb. 2017
              D. E. Woon, T. H. Dunning, Jr., J. Chem. Phys. 100, 2975 (1994)
  Li-Be, Na : Obtained from the ccRepo (grant-hill.group.shef.ac.uk/ccrepo) Feb. 2017
              B. P. Prascher, D. E. Woon, K. A. Peterson, T. H. Dunning, Jr., A. K. Wilson, Theor. Chem. Acc. 128, 69 (2011)
         Mg : Obtained from the Peterson Research Group Website (tyr0.chem.wsu.edu/~kipeters) Feb. 2017
              B. P. Prascher, D. E. Woon, K. A. Peterson, T. H. Dunning, Jr., A. K. Wilson, Theor. Chem. Acc. 128, 69 (2011)
      Al-Ar : Obtained from the ccRepo (grant-hill.group.shef.ac.uk/ccrepo) Feb. 2017
              D. E. Woon, T. H. Dunning, Jr., J. Chem. Phys. 98, 1358 (1993)
      Sc-Zn : Obtained from the ccRepo (grant-hill.group.shef.ac.uk/ccrepo) Feb. 2017
              N. B. Balabanov, K. A. Peterson, J. Chem. Phys. 123, 064107 (2005)
              N. B. Balabanov, K. A. Peterson, J. Chem. Phys. 125, 074110 (2006)
      Ga-Kr : Obtained from the ccRepo (grant-hill.group.shef.ac.uk/ccrepo) Feb. 2017
              A. K. Wilson, D. E. Woon, K. A. Peterson, T. H. Dunning, Jr., J. Chem. Phys. 110, 7667 (1999)
     Ag, Au : Obtained from the Peterson Research Group Website (tyr0.chem.wsu.edu/~kipeters) Feb. 2017
              K. A. Peterson, C. Puzzarini, Theor. Chem. Acc. 114, 283 (2005)

----- AuxJ basis set information -----
Your calculation utilizes the AutoAux generation procedure.
  G. L. Stoychev, A. A. Auer, F. Neese, J. Chem. Theory Comput. 13, 554 (2017)

----- AuxC basis set information -----
Your calculation utilizes the auxiliary basis: aug-cc-pVTZ/C 
  H-He, B-F, Al-Ar, Ga-Kr : Obtained from the EMSL Basis Set Exchange (bse.pnl.gov) Feb. 2017
                            F. Weigend, A. Kohn, C. Hattig, J. Chem. Phys. 116, 3175 (2002)
                   Be, Mg : Obtained from the TURBOMOLE 7.0 basis set library
                            C. Haettig, Phys. Chem. Chem. Phys. 7, 59 (2005)
                       Ne : Obtained from the EMSL Basis Set Exchange (bse.pnl.gov) Feb. 2017
                            C. Haettig, Phys. Chem. Chem. Phys. 7, 59 (2005)
                            F. Weigend, A. Kohn, C. Hattig, J. Chem. Phys. 116, 3175 (2002)
                    Sc-Zn : Obtained from the EMSL Basis Set Exchange (bse.pnl.gov) Feb. 2017
                            J. G. Hill, J. A. Platts, J. Chem. Phys. 128, 044104 (2008)

----- AuxJK basis set information -----
Your calculation utilizes the AutoAux generation procedure.
  G. L. Stoychev, A. A. Auer, F. Neese, J. Chem. Theory Comput. 13, 554 (2017)

================================================================================
                                        WARNINGS
                       Please study these warnings very carefully!
================================================================================


WARNING: your system is open-shell and RHF/RKS was chosen
  ===> : WILL SWITCH to UHF/UKS


WARNING: MDCI localization with Augmented Hessian Foster-Boys
  ===> : Switching off randomization!

WARNING: Post HF methods need fully converged wavefunctions
  ===> : Setting SCFConvForced true
         You can overwrite this default with %scf ConvForced false 


INFO   : the flag for use of LIBINT has been found!

================================================================================
                                       INPUT FILE
================================================================================
NAME = simple-grid-230-280-b3lyp_d3bj-631gd-gas-singlepoint-DLPNO_CCSD_T1-NormalPNO-augtz-gas.inp
|  1> ! aug-cc-pVTZ aug-cc-pVTZ/C DLPNO-CCSD(T1) TightSCF NormalPNO UNO MiniPrint AutoAux
|  2> %pal nproc 10 end
|  3> %maxcore 20000
|  4> %mdci
|  5>      density none
|  6> end
|  7> 
|  8> * xyz 0 6
|  9>  O     -0.24676200     -0.27781500     -0.80213100
| 10>  C     -1.11287200     -1.19464900     -0.62605400
| 11>  C     -2.84487600     -0.27604400      0.57658100
| 12>  C     -2.67637500      0.90849700     -0.07435600
| 13>  C     -3.34812200      1.19442900     -1.38412600
| 14> Fe      1.46855400      0.15360200     -0.01938800
| 15> Cl      2.01335500      2.04946900     -0.95531400
| 16>  C     -1.76857000      1.98815000      0.41696300
| 17> Cl      2.69720200     -1.57580200     -0.56425700
| 18> Cl      1.18188500      0.32106200      2.15897300
| 19>  H     -3.57954300     -0.96215900      0.15777700
| 20>  H     -2.29409600      2.95096900      0.43019100
| 21>  H     -1.35189200      1.79883600      1.40541600
| 22>  H     -0.93278400      2.10325900     -0.28808700
| 23>  H     -3.96695300      2.09564300     -1.28494400
| 24>  H     -2.60603700      1.41593000     -2.16287900
| 25>  H     -3.99163400      0.37734900     -1.71815800
| 26>  C     -2.52536000     -0.48961200      2.03913500
| 27>  H     -3.25650500      0.05189900      2.65281900
| 28>  H     -2.59959800     -1.54444100      2.31249400
| 29>  H     -1.53172600     -0.13591200      2.32122300
| 30>  C     -0.83443800     -2.27222600      0.38922400
| 31>  H     -1.70593700     -2.89777000      0.58721400
| 32>  H     -0.05236700     -2.89738400     -0.06525900
| 33>  H     -0.42884300     -1.87168500      1.31763000
| 34>  C     -1.88430600     -1.61533700     -1.85308700
| 35>  H     -1.21969900     -2.30006800     -2.39785800
| 36>  H     -2.80210900     -2.15503000     -1.61464900
| 37>  H     -2.09058700     -0.77018900     -2.50732400
| 38> *
| 39> 
| 40> 
| 41>                          ****END OF INPUT****
================================================================================

                       ****************************
                       * Single Point Calculation *
                       ****************************

---------------------------------
CARTESIAN COORDINATES (ANGSTROEM)
---------------------------------
  O     -0.246762   -0.277815   -0.802131
  C     -1.112872   -1.194649   -0.626054
  C     -2.844876   -0.276044    0.576581
  C     -2.676375    0.908497   -0.074356
  C     -3.348122    1.194429   -1.384126
  Fe     1.468554    0.153602   -0.019388
  Cl     2.013355    2.049469   -0.955314
  C     -1.768570    1.988150    0.416963
  Cl     2.697202   -1.575802   -0.564257
  Cl     1.181885    0.321062    2.158973
  H     -3.579543   -0.962159    0.157777
  H     -2.294096    2.950969    0.430191
  H     -1.351892    1.798836    1.405416
  H     -0.932784    2.103259   -0.288087
  H     -3.966953    2.095643   -1.284944
  H     -2.606037    1.415930   -2.162879
  H     -3.991634    0.377349   -1.718158
  C     -2.525360   -0.489612    2.039135
  H     -3.256505    0.051899    2.652819
  H     -2.599598   -1.544441    2.312494
  H     -1.531726   -0.135912    2.321223
  C     -0.834438   -2.272226    0.389224
  H     -1.705937   -2.897770    0.587214
  H     -0.052367   -2.897384   -0.065259
  H     -0.428843   -1.871685    1.317630
  C     -1.884306   -1.615337   -1.853087
  H     -1.219699   -2.300068   -2.397858
  H     -2.802109   -2.155030   -1.614649
  H     -2.090587   -0.770189   -2.507324

----------------------------
CARTESIAN COORDINATES (A.U.)
----------------------------
  NO LB      ZA    FRAG     MASS         X           Y           Z
   0 O     8.0000    0    15.999   -0.466313   -0.524994   -1.515808
   1 C     6.0000    0    12.011   -2.103023   -2.257559   -1.183071
   2 C     6.0000    0    12.011   -5.376037   -0.521648    1.089580
   3 C     6.0000    0    12.011   -5.057616    1.716811   -0.140512
   4 C     6.0000    0    12.011   -6.327034    2.257144   -2.615619
   5 Fe   26.0000    0    55.850    2.775165    0.290266   -0.036638
   6 Cl   17.0000    0    35.453    3.804690    3.872935   -1.805282
   7 C     6.0000    0    12.011   -3.342113    3.757059    0.787946
   8 Cl   17.0000    0    35.453    5.096973   -2.977834   -1.066291
   9 Cl   17.0000    0    35.453    2.233439    0.606719    4.079868
  10 H     1.0000    0     1.008   -6.764356   -1.818217    0.298155
  11 H     1.0000    0     1.008   -4.335213    5.576523    0.812943
  12 H     1.0000    0     1.008   -2.554706    3.399307    2.655851
  13 H     1.0000    0     1.008   -1.762706    3.974583   -0.544406
  14 H     1.0000    0     1.008   -7.496455    3.960191   -2.428192
  15 H     1.0000    0     1.008   -4.924696    2.675720   -4.087249
  16 H     1.0000    0     1.008   -7.543095    0.713086   -3.246848
  17 C     6.0000    0    12.011   -4.772239   -0.925233    3.853407
  18 H     1.0000    0     1.008   -6.153903    0.098075    5.013101
  19 H     1.0000    0     1.008   -4.912528   -2.918571    4.369980
  20 H     1.0000    0     1.008   -2.894543   -0.256836    4.386476
  21 C     6.0000    0    12.011   -1.576859   -4.293885    0.735527
  22 H     1.0000    0     1.008   -3.223754   -5.475992    1.109674
  23 H     1.0000    0     1.008   -0.098959   -5.475262   -0.123322
  24 H     1.0000    0     1.008   -0.810396   -3.536972    2.489960
  25 C     6.0000    0    12.011   -3.560822   -3.052545   -3.501827
  26 H     1.0000    0     1.008   -2.304897   -4.346499   -4.531295
  27 H     1.0000    0     1.008   -5.295219   -4.072417   -3.051244
  28 H     1.0000    0     1.008   -3.950637   -1.455446   -4.738156



           ************************************************************
           *        Program running with 10 parallel MPI-processes    *
           *              working on a common directory               *
           ************************************************************


           ************************************************************
           *        Program running with 10 parallel MPI-processes    *
           *              working on a common directory               *
           ************************************************************

Diagonalization of the overlap matrix:
Smallest eigenvalue                        ... 8.326e-07
Time for diagonalization                   ...    0.330 sec
Threshold for overlap eigenvalues          ... 1.000e-08
Number of eigenvalues below threshold      ... 0
Time for construction of square roots      ...    0.273 sec
Total time needed                          ...    0.609 sec

-------------------
DFT GRID GENERATION
-------------------

General Integration Accuracy     IntAcc      ...  4.340
Radial Grid Type                 RadialGrid  ... Gauss-Chebyshev
Angular Grid (max. acc.)         AngularGrid ... Lebedev-110
Angular grid pruning method      GridPruning ... 3 (G Style)
Weight generation scheme         WeightScheme... Becke
Basis function cutoff            BFCut       ...    1.0000e-11
Integration weight cutoff        WCut        ...    1.0000e-14
Grids for H and He will be reduced by one unit

# of grid points (after initial pruning)     ...  36112 (   0.0 sec)
# of grid points (after weights+screening)   ...  32388 (   0.1 sec)
nearest neighbour list constructed           ...    0.0 sec
Grid point re-assignment to atoms done       ...    0.0 sec
Grid point division into batches done        ...    0.0 sec
Reduced shell lists constructed in    0.2 sec

Total number of grid points                  ...    32388
Total number of batches                      ...      525
Average number of points per batch           ...       61
Average number of grid points per atom       ...     1117
Average number of shells per batch           ...   290.13 (84.59%)
Average number of basis functions per batch  ...   862.17 (84.11%)
Average number of large shells per batch     ...   235.91 (81.31%)
Average number of large basis fcns per batch ...   701.39 (81.35%)
Maximum spatial batch extension              ...   3.93,  4.35,  3.99 au
Average spatial batch extension              ...   0.18,  0.18,  0.17 au

Time for grid setup =    0.357 sec

Loading Hartree-Fock densities                     ... done
Calculating cut-offs                               ... done
Setting up the integral package                    ... done
Initializing the effective Hamiltonian             ... done
Starting the Coulomb interaction                   ... done (   1.1 sec)
Reading the grid                                   ... done
Mapping shells                                     ... done
Starting the XC term evaluation                    ... done (   0.8 sec)
Transforming the Hamiltonian                       ... done (   0.2 sec)
Diagonalizing the Hamiltonian                      ... done (   0.3 sec)
Back transforming the eigenvectors                 ... done (   0.1 sec)
Now organizing SCF variables                       ... done
--------------
SCF ITERATIONS
--------------
ITER       Energy         Delta-E        Max-DP      RMS-DP      [F,P]     Damp
               ***  Starting incremental Fock matrix formation  ***
  0  -3027.5840713423   0.000000000000 0.22228537  0.00104559  0.2590910 0.7000
  1  -3027.8343985731  -0.250327230828 0.16308170  0.00081506  0.1558295 0.7000
                               ***Turning on DIIS***
  2  -3028.0024213107  -0.168022737615 0.11327850  0.00059886  0.1094742 0.7000
  3  -3029.6043157746  -1.601894463824 0.25165228  0.00149834  0.0819387 0.0000
  4  -3028.3021225932   1.302193181343 0.04492221  0.00021591  0.0199969 0.0000
  5  -3028.4197427526  -0.117620159403 0.03970270  0.00017264  0.0112660 0.0000
  6  -3028.4641897378  -0.044446985213 0.02041917  0.00007039  0.0052027 0.0000
  7  -3028.4775917049  -0.013401967056 0.00891861  0.00003268  0.0033563 0.0000
  8  -3028.4671711521   0.010420552792 0.00613185  0.00001871  0.0015257 0.0000
  9  -3028.4624881273   0.004683024810 0.00236314  0.00001100  0.0007239 0.0000
 10  -3028.4505425503   0.011945576993 0.00091692  0.00000316  0.0003992 0.0000
 11  -3028.4560093190  -0.005466768727 0.00026511  0.00000171  0.0000705 0.0000
 12  -3028.4540193249   0.001989994177 0.00035364  0.00000130  0.0000224 0.0000
 13  -3028.4540636505  -0.000044325689 0.00059006  0.00000191  0.0000082 0.0000
 14  -3028.4540955115  -0.000031860995 0.00068035  0.00000194  0.0000046 0.0000
 15  -3028.4540364020   0.000059109550 0.00051193  0.00000163  0.0000028 0.0000
 16  -3028.4540522088  -0.000015806809 0.00074746  0.00000211  0.0000020 0.0000
 17  -3028.4540689360  -0.000016727206 0.00056023  0.00000171  0.0000013 0.0000
 18  -3028.4540524467   0.000016489327 0.00135488  0.00000346  0.0000010 0.0000
                            ***DIIS convergence achieved***

               *****************************************************
               *                     SUCCESS                       *
               *           SCF CONVERGED AFTER  19 CYCLES          *
               *****************************************************

Total Energy       :        -3028.45405713 Eh          -82408.42446 eV
  Last Energy change         ...   -4.6827e-06  Tolerance :   1.0000e-08
  Last MAX-Density change    ...    7.4141e-04  Tolerance :   1.0000e-07
             **** THE GBW FILE WAS UPDATED (simple-grid-230-280-b3lyp_d3bj-631gd-gas-singlepoint-DLPNO_CCSD_T1-NormalPNO-augtz-gas.gbw) ****
             **** DENSITY FILE WAS UPDATED (simple-grid-230-280-b3lyp_d3bj-631gd-gas-singlepoint-DLPNO_CCSD_T1-NormalPNO-augtz-gas.scfp.tmp) ****
             **** ENERGY FILE WAS UPDATED (simple-grid-230-280-b3lyp_d3bj-631gd-gas-singlepoint-DLPNO_CCSD_T1-NormalPNO-augtz-gas.en.tmp) ****
----------------------
UHF SPIN CONTAMINATION
----------------------

Expectation value of <S**2>     :     8.764710
Ideal value S*(S+1) for S=2.5   :     8.750000
Deviation                       :     0.014710

----------------
ORBITAL ENERGIES
----------------
                 SPIN UP ORBITALS
  NO   OCC          E(Eh)            E(eV) 
   0   1.0000    -261.567154     -7117.6041 
   1   1.0000    -104.788499     -2851.4400 
   2   1.0000    -104.784571     -2851.3331 
   3   1.0000    -104.782814     -2851.2853 
   4   1.0000     -32.234959      -877.1578 
   5   1.0000     -27.711269      -754.0620 
   6   1.0000     -27.710402      -754.0384 
   7   1.0000     -27.710210      -754.0332 
   8   1.0000     -20.598609      -560.5167 
   9   1.0000     -11.415012      -310.6183 
  10   1.0000     -11.296372      -307.3899 
  11   1.0000     -11.271370      -306.7096 
  12   1.0000     -11.266428      -306.5751 
  13   1.0000     -11.257101      -306.3213 
  14   1.0000     -11.257014      -306.3189 
  15   1.0000     -11.240848      -305.8790 
  16   1.0000     -11.240429      -305.8676 
  17   1.0000     -10.515195      -286.1330 
  18   1.0000     -10.511242      -286.0254 
  19   1.0000     -10.509434      -285.9762 
  20   1.0000      -7.982048      -217.2026 
  21   1.0000      -7.981250      -217.1809 
  22   1.0000      -7.981219      -217.1800 
  23   1.0000      -7.978101      -217.0952 
  24   1.0000      -7.977342      -217.0745 
  25   1.0000      -7.977285      -217.0730 
  26   1.0000      -7.976241      -217.0445 
  27   1.0000      -7.975556      -217.0259 
  28   1.0000      -7.975492      -217.0242 
  29   1.0000      -4.590044      -124.9015 
  30   1.0000      -3.203059       -87.1597 
  31   1.0000      -3.201622       -87.1206 
  32   1.0000      -3.201413       -87.1149 
  33   1.0000      -1.442413       -39.2501 
  34   1.0000      -1.144748       -31.1502 
  35   1.0000      -1.093000       -29.7420 
  36   1.0000      -1.060638       -28.8614 
  37   1.0000      -1.054734       -28.7008 
  38   1.0000      -1.051622       -28.6161 
  39   1.0000      -1.028873       -27.9971 
  40   1.0000      -1.002780       -27.2870 
  41   1.0000      -0.972622       -26.4664 
  42   1.0000      -0.935445       -25.4548 
  43   1.0000      -0.919144       -25.0112 
  44   1.0000      -0.919044       -25.0085 
  45   1.0000      -0.909289       -24.7430 
  46   1.0000      -0.908317       -24.7166 
  47   1.0000      -0.907332       -24.6898 
  48   1.0000      -0.803983       -21.8775 
  49   1.0000      -0.744491       -20.2586 
  50   1.0000      -0.699513       -19.0347 
  51   1.0000      -0.690581       -18.7917 
  52   1.0000      -0.682786       -18.5796 
  53   1.0000      -0.666221       -18.1288 
  54   1.0000      -0.633289       -17.2327 
  55   1.0000      -0.622258       -16.9325 
  56   1.0000      -0.605342       -16.4722 
  57   1.0000      -0.596197       -16.2234 
  58   1.0000      -0.582873       -15.8608 
  59   1.0000      -0.575451       -15.6588 
  60   1.0000      -0.563275       -15.3275 
  61   1.0000      -0.559551       -15.2262 
  62   1.0000      -0.551732       -15.0134 
  63   1.0000      -0.544774       -14.8241 
  64   1.0000      -0.536414       -14.5966 
  65   1.0000      -0.528530       -14.3820 
  66   1.0000      -0.507019       -13.7967 
  67   1.0000      -0.493404       -13.4262 
  68   1.0000      -0.471861       -12.8400 
  69   1.0000      -0.468756       -12.7555 
  70   1.0000      -0.440394       -11.9837 
  71   1.0000      -0.435416       -11.8483 
  72   1.0000      -0.433420       -11.7940 
  73   1.0000      -0.424880       -11.5616 
  74   1.0000      -0.423545       -11.5253 
  75   1.0000      -0.422374       -11.4934 
  76   1.0000      -0.369853       -10.0642 
  77   0.0000       0.011724         0.3190 
  78   0.0000       0.022003         0.5987 
  79   0.0000       0.023328         0.6348 
  80   0.0000       0.029693         0.8080 
  81   0.0000       0.038211         1.0398 
  82   0.0000       0.040222         1.0945 
  83   0.0000       0.042203         1.1484 
  84   0.0000       0.044242         1.2039 
  85   0.0000       0.044638         1.2147 
  86   0.0000       0.052216         1.4209 
  87   0.0000       0.057072         1.5530 
  88   0.0000       0.061158         1.6642 
  89   0.0000       0.062533         1.7016 
  90   0.0000       0.063128         1.7178 
  91   0.0000       0.064915         1.7664 
  92   0.0000       0.071883         1.9560 
  93   0.0000       0.077095         2.0979 
  94   0.0000       0.082415         2.2426 
  95   0.0000       0.089732         2.4417 
  96   0.0000       0.091265         2.4835 
  97   0.0000       0.094000         2.5579 
  98   0.0000       0.098769         2.6876 
  99   0.0000       0.100266         2.7284 
 100   0.0000       0.104112         2.8330 
 101   0.0000       0.107412         2.9228 
 102   0.0000       0.115875         3.1531 
 103   0.0000       0.121663         3.3106 
 104   0.0000       0.123108         3.3499 
 105   0.0000       0.123925         3.3722 
 106   0.0000       0.125988         3.4283 
 107   0.0000       0.128449         3.4953 
 108   0.0000       0.130641         3.5549 
 109   0.0000       0.133491         3.6325 
 110   0.0000       0.133780         3.6403 
 111   0.0000       0.137959         3.7541 
 112   0.0000       0.144688         3.9372 
 113   0.0000       0.145102         3.9484 
 114   0.0000       0.151592         4.1250 
 115   0.0000       0.152197         4.1415 
 116   0.0000       0.156585         4.2609 
 117   0.0000       0.160467         4.3665 
 118   0.0000       0.161686         4.3997 
 119   0.0000       0.167247         4.5510 
 120   0.0000       0.168989         4.5984 
 121   0.0000       0.171955         4.6791 
 122   0.0000       0.173439         4.7195 
 123   0.0000       0.178406         4.8547 
 124   0.0000       0.182026         4.9532 
 125   0.0000       0.185520         5.0483 
 126   0.0000       0.187264         5.0957 
 127   0.0000       0.190218         5.1761 
 128   0.0000       0.194829         5.3016 
 129   0.0000       0.198130         5.3914 
 130   0.0000       0.199973         5.4416 
 131   0.0000       0.200494         5.4557 
 132   0.0000       0.205267         5.5856 
 133   0.0000       0.208334         5.6691 
 134   0.0000       0.213491         5.8094 
 135   0.0000       0.219127         5.9628 
 136   0.0000       0.219470         5.9721 
 137   0.0000       0.224180         6.1003 
 138   0.0000       0.227813         6.1991 
 139   0.0000       0.232347         6.3225 
 140   0.0000       0.234333         6.3765 
 141   0.0000       0.236955         6.4479 
 142   0.0000       0.239196         6.5089 
 143   0.0000       0.240887         6.5549 
 144   0.0000       0.242880         6.6091 
 145   0.0000       0.246236         6.7004 
 146   0.0000       0.252447         6.8694 
 147   0.0000       0.256875         6.9899 
 148   0.0000       0.258788         7.0420 
 149   0.0000       0.261081         7.1044 
 150   0.0000       0.263984         7.1834 
 151   0.0000       0.269318         7.3285 
 152   0.0000       0.277608         7.5541 
 153   0.0000       0.280807         7.6411 
 154   0.0000       0.283618         7.7176 
 155   0.0000       0.284852         7.7512 
 156   0.0000       0.288835         7.8596 
 157   0.0000       0.291209         7.9242 
 158   0.0000       0.294935         8.0256 
 159   0.0000       0.303876         8.2689 
 160   0.0000       0.309532         8.4228 
 161   0.0000       0.311316         8.4713 
 162   0.0000       0.318661         8.6712 
 163   0.0000       0.320250         8.7144 
 164   0.0000       0.324399         8.8273 
 165   0.0000       0.326122         8.8742 
 166   0.0000       0.333328         9.0703 
 167   0.0000       0.335020         9.1163 
 168   0.0000       0.340716         9.2713 
 169   0.0000       0.341765         9.2999 
 170   0.0000       0.343997         9.3606 
 171   0.0000       0.351516         9.5652 
 172   0.0000       0.355238         9.6665 
 173   0.0000       0.358844         9.7647 
 174   0.0000       0.360661         9.8141 
 175   0.0000       0.367150         9.9907 
 176   0.0000       0.369849        10.0641 
 177   0.0000       0.372726        10.1424 
 178   0.0000       0.374344        10.1864 
 179   0.0000       0.377737        10.2788 
 180   0.0000       0.382166        10.3993 
 181   0.0000       0.384416        10.4605 
 182   0.0000       0.385552        10.4914 
 183   0.0000       0.386085        10.5059 
 184   0.0000       0.387854        10.5541 
 185   0.0000       0.389352        10.5948 
 186   0.0000       0.396114        10.7788 
 187   0.0000       0.398535        10.8447 
 188   0.0000       0.402522        10.9532 
 189   0.0000       0.404078        10.9955 
 190   0.0000       0.414243        11.2721 
 191   0.0000       0.414534        11.2801 
 192   0.0000       0.421566        11.4714 
 193   0.0000       0.423765        11.5312 
 194   0.0000       0.428202        11.6520 
 195   0.0000       0.433108        11.7855 
 196   0.0000       0.437073        11.8934 
 197   0.0000       0.441738        12.0203 
 198   0.0000       0.444984        12.1086 
 199   0.0000       0.446158        12.1406 
 200   0.0000       0.448843        12.2136 
 201   0.0000       0.451869        12.2960 
 202   0.0000       0.452902        12.3241 
 203   0.0000       0.459777        12.5112 
 204   0.0000       0.461646        12.5620 
 205   0.0000       0.465698        12.6723 
 206   0.0000       0.471328        12.8255 
 207   0.0000       0.472616        12.8605 
 208   0.0000       0.479149        13.0383 
 209   0.0000       0.480758        13.0821 
 210   0.0000       0.484553        13.1854 
 211   0.0000       0.489179        13.3112 
 212   0.0000       0.489750        13.3268 
 213   0.0000       0.494855        13.4657 
 214   0.0000       0.498966        13.5775 
 215   0.0000       0.500222        13.6117 
 216   0.0000       0.503729        13.7072 
 217   0.0000       0.507430        13.8079 
 218   0.0000       0.512479        13.9453 
 219   0.0000       0.514066        13.9884 
 220   0.0000       0.515633        14.0311 
 221   0.0000       0.518006        14.0957 
 222   0.0000       0.523980        14.2582 
 223   0.0000       0.524167        14.2633 
 224   0.0000       0.527100        14.3431 
 225   0.0000       0.530186        14.4271 
 226   0.0000       0.532409        14.4876 
 227   0.0000       0.536429        14.5970 
 228   0.0000       0.540232        14.7005 
 229   0.0000       0.542629        14.7657 
 230   0.0000       0.545027        14.8309 
 231   0.0000       0.552970        15.0471 
 232   0.0000       0.555487        15.1156 
 233   0.0000       0.556750        15.1500 
 234   0.0000       0.563413        15.3312 
 235   0.0000       0.565687        15.3931 
 236   0.0000       0.571305        15.5460 
 237   0.0000       0.573326        15.6010 
 238   0.0000       0.578184        15.7332 
 239   0.0000       0.584327        15.9004 
 240   0.0000       0.587061        15.9747 
 241   0.0000       0.587829        15.9956 
 242   0.0000       0.590237        16.0612 
 243   0.0000       0.593930        16.1617 
 244   0.0000       0.598895        16.2968 
 245   0.0000       0.601708        16.3733 
 246   0.0000       0.603505        16.4222 
 247   0.0000       0.611754        16.6467 
 248   0.0000       0.613878        16.7045 
 249   0.0000       0.616982        16.7889 
 250   0.0000       0.622863        16.9490 
 251   0.0000       0.626626        17.0514 
 252   0.0000       0.628652        17.1065 
 253   0.0000       0.633202        17.2303 
 254   0.0000       0.639264        17.3953 
 255   0.0000       0.644190        17.5293 
 256   0.0000       0.647505        17.6195 
 257   0.0000       0.650486        17.7006 
 258   0.0000       0.653406        17.7801 
 259   0.0000       0.660366        17.9695 
 260   0.0000       0.661484        17.9999 
 261   0.0000       0.664671        18.0866 
 262   0.0000       0.668631        18.1944 
 263   0.0000       0.672059        18.2876 
 264   0.0000       0.674060        18.3421 
 265   0.0000       0.682284        18.5659 
 266   0.0000       0.687194        18.6995 
 267   0.0000       0.692518        18.8444 
 268   0.0000       0.695795        18.9335 
 269   0.0000       0.699268        19.0280 
 270   0.0000       0.702774        19.1234 
 271   0.0000       0.712502        19.3882 
 272   0.0000       0.713556        19.4168 
 273   0.0000       0.717883        19.5346 
 274   0.0000       0.721300        19.6276 
 275   0.0000       0.726998        19.7826 
 276   0.0000       0.729181        19.8420 
 277   0.0000       0.732694        19.9376 
 278   0.0000       0.738961        20.1082 
 279   0.0000       0.741192        20.1689 
 280   0.0000       0.745374        20.2827 
 281   0.0000       0.747192        20.3321 
 282   0.0000       0.759342        20.6627 
 283   0.0000       0.767175        20.8759 
 284   0.0000       0.773238        21.0409 
 285   0.0000       0.776293        21.1240 
 286   0.0000       0.781666        21.2702 
 287   0.0000       0.787537        21.4300 
 288   0.0000       0.796180        21.6652 
 289   0.0000       0.800855        21.7924 
 290   0.0000       0.812337        22.1048 
 291   0.0000       0.818203        22.2644 
 292   0.0000       0.821050        22.3419 
 293   0.0000       0.828833        22.5537 
 294   0.0000       0.829604        22.5747 
 295   0.0000       0.837972        22.8024 
 296   0.0000       0.840409        22.8687 
 297   0.0000       0.844525        22.9807 
 298   0.0000       0.850992        23.1567 
 299   0.0000       0.854359        23.2483 
 300   0.0000       0.864118        23.5138 
 301   0.0000       0.866034        23.5660 
 302   0.0000       0.870989        23.7008 
 303   0.0000       0.874027        23.7835 
 304   0.0000       0.876586        23.8531 
 305   0.0000       0.881077        23.9753 
 306   0.0000       0.888722        24.1833 
 307   0.0000       0.891619        24.2622 
 308   0.0000       0.905148        24.6303 
 309   0.0000       0.905223        24.6324 
 310   0.0000       0.910261        24.7695 
 311   0.0000       0.917976        24.9794 
 312   0.0000       0.921210        25.0674 
 313   0.0000       0.923718        25.1356 
 314   0.0000       0.925847        25.1936 
 315   0.0000       0.930482        25.3197 
 316   0.0000       0.931733        25.3538 
 317   0.0000       0.937310        25.5055 
 318   0.0000       0.939375        25.5617 
 319   0.0000       0.940043        25.5799 
 320   0.0000       0.941124        25.6093 
 321   0.0000       0.948870        25.8201 
 322   0.0000       0.952090        25.9077 
 323   0.0000       0.957764        26.0621 
 324   0.0000       0.961846        26.1732 
 325   0.0000       0.964706        26.2510 
 326   0.0000       0.968577        26.3563 
 327   0.0000       0.971231        26.4285 
 328   0.0000       0.977229        26.5918 
 329   0.0000       0.980030        26.6680 
 330   0.0000       0.983083        26.7511 
 331   0.0000       0.987213        26.8634 
 332   0.0000       0.988688        26.9036 
 333   0.0000       0.992811        27.0158 
 334   0.0000       0.999276        27.1917 
 335   0.0000       1.001126        27.2420 
 336   0.0000       1.003651        27.3107 
 337   0.0000       1.011191        27.5159 
 338   0.0000       1.012110        27.5409 
 339   0.0000       1.019013        27.7288 
 340   0.0000       1.019821        27.7507 
 341   0.0000       1.024017        27.8649 
 342   0.0000       1.026834        27.9416 
 343   0.0000       1.028254        27.9802 
 344   0.0000       1.033166        28.1139 
 345   0.0000       1.036376        28.2012 
 346   0.0000       1.039043        28.2738 
 347   0.0000       1.043388        28.3920 
 348   0.0000       1.046446        28.4753 
 349   0.0000       1.053358        28.6633 
 350   0.0000       1.055509        28.7219 
 351   0.0000       1.057095        28.7650 
 352   0.0000       1.061685        28.8899 
 353   0.0000       1.066936        29.0328 
 354   0.0000       1.076369        29.2895 
 355   0.0000       1.077635        29.3239 
 356   0.0000       1.079118        29.3643 
 357   0.0000       1.082658        29.4606 
 358   0.0000       1.086994        29.5786 
 359   0.0000       1.089456        29.6456 
 360   0.0000       1.091638        29.7050 
 361   0.0000       1.097897        29.8753 
 362   0.0000       1.101477        29.9727 
 363   0.0000       1.103049        30.0155 
 364   0.0000       1.109391        30.1881 
 365   0.0000       1.114556        30.3286 
 366   0.0000       1.116779        30.3891 
 367   0.0000       1.122229        30.5374 
 368   0.0000       1.127249        30.6740 
 369   0.0000       1.129467        30.7344 
 370   0.0000       1.129988        30.7485 
 371   0.0000       1.139233        31.0001 
 372   0.0000       1.141971        31.0746 
 373   0.0000       1.146366        31.1942 
 374   0.0000       1.152362        31.3574 
 375   0.0000       1.163681        31.6654 
 376   0.0000       1.164859        31.6974 
 377   0.0000       1.170814        31.8595 
 378   0.0000       1.172046        31.8930 
 379   0.0000       1.176230        32.0068 
 380   0.0000       1.179372        32.0924 
 381   0.0000       1.188995        32.3542 
 382   0.0000       1.190894        32.4059 
 383   0.0000       1.195577        32.5333 
 384   0.0000       1.198574        32.6148 
 385   0.0000       1.201424        32.6924 
 386   0.0000       1.205101        32.7925 
 387   0.0000       1.215137        33.0656 
 388   0.0000       1.219983        33.1974 
 389   0.0000       1.228186        33.4206 
 390   0.0000       1.229208        33.4485 
 391   0.0000       1.235070        33.6080 
 392   0.0000       1.237890        33.6847 
 393   0.0000       1.239587        33.7309 
 394   0.0000       1.243959        33.8498 
 395   0.0000       1.250018        34.0147 
 396   0.0000       1.257384        34.2152 
 397   0.0000       1.258356        34.2416 
 398   0.0000       1.264022        34.3958 
 399   0.0000       1.270400        34.5693 
 400   0.0000       1.273622        34.6570 
 401   0.0000       1.278474        34.7891 
 402   0.0000       1.280481        34.8436 
 403   0.0000       1.291078        35.1320 
 404   0.0000       1.297207        35.2988 
 405   0.0000       1.301357        35.4117 
 406   0.0000       1.306144        35.5420 
 407   0.0000       1.310886        35.6710 
 408   0.0000       1.316774        35.8312 
 409   0.0000       1.320723        35.9387 
 410   0.0000       1.321294        35.9542 
 411   0.0000       1.326320        36.0910 
 412   0.0000       1.329835        36.1867 
 413   0.0000       1.335589        36.3432 
 414   0.0000       1.344025        36.5728 
 415   0.0000       1.349567        36.7236 
 416   0.0000       1.352241        36.7964 
 417   0.0000       1.356765        36.9194 
 418   0.0000       1.364305        37.1246 
 419   0.0000       1.366663        37.1888 
 420   0.0000       1.376220        37.4488 
 421   0.0000       1.377578        37.4858 
 422   0.0000       1.385943        37.7134 
 423   0.0000       1.392222        37.8843 
 424   0.0000       1.396996        38.0142 
 425   0.0000       1.406542        38.2740 
 426   0.0000       1.408695        38.3325 
 427   0.0000       1.416076        38.5334 
 428   0.0000       1.417543        38.5733 
 429   0.0000       1.421246        38.6741 
 430   0.0000       1.427025        38.8313 
 431   0.0000       1.431669        38.9577 
 432   0.0000       1.435143        39.0522 
 433   0.0000       1.443094        39.2686 
 434   0.0000       1.448383        39.4125 
 435   0.0000       1.452368        39.5209 
 436   0.0000       1.460869        39.7523 
 437   0.0000       1.466310        39.9003 
 438   0.0000       1.474252        40.1164 
 439   0.0000       1.479941        40.2712 
 440   0.0000       1.484467        40.3944 
 441   0.0000       1.490471        40.5578 
 442   0.0000       1.492621        40.6163 
 443   0.0000       1.498518        40.7767 
 444   0.0000       1.503798        40.9204 
 445   0.0000       1.511467        41.1291 
 446   0.0000       1.514711        41.2174 
 447   0.0000       1.517605        41.2961 
 448   0.0000       1.524048        41.4714 
 449   0.0000       1.529893        41.6305 
 450   0.0000       1.531569        41.6761 
 451   0.0000       1.537723        41.8436 
 452   0.0000       1.543839        42.0100 
 453   0.0000       1.545592        42.0577 
 454   0.0000       1.550737        42.1977 
 455   0.0000       1.558259        42.4024 
 456   0.0000       1.565657        42.6037 
 457   0.0000       1.573259        42.8105 
 458   0.0000       1.578240        42.9461 
 459   0.0000       1.581126        43.0246 
 460   0.0000       1.583676        43.0940 
 461   0.0000       1.590208        43.2718 
 462   0.0000       1.591903        43.3179 
 463   0.0000       1.604448        43.6592 
 464   0.0000       1.611138        43.8413 
 465   0.0000       1.614982        43.9459 
 466   0.0000       1.618151        44.0321 
 467   0.0000       1.625098        44.2212 
 468   0.0000       1.628769        44.3211 
 469   0.0000       1.633855        44.4594 
 470   0.0000       1.637046        44.5463 
 471   0.0000       1.643801        44.7301 
 472   0.0000       1.645542        44.7775 
 473   0.0000       1.653974        45.0069 
 474   0.0000       1.656697        45.0810 
 475   0.0000       1.664410        45.2909 
 476   0.0000       1.670233        45.4494 
 477   0.0000       1.675020        45.5796 
 478   0.0000       1.680993        45.7421 
 479   0.0000       1.683671        45.8150 
 480   0.0000       1.693313        46.0774 
 481   0.0000       1.698588        46.2209 
 482   0.0000       1.700411        46.2705 
 483   0.0000       1.704174        46.3729 
 484   0.0000       1.713401        46.6240 
 485   0.0000       1.718071        46.7511 
 486   0.0000       1.721388        46.8413 
 487   0.0000       1.729411        47.0597 
 488   0.0000       1.734704        47.2037 
 489   0.0000       1.741204        47.3806 
 490   0.0000       1.748916        47.5904 
 491   0.0000       1.752463        47.6870 
 492   0.0000       1.757135        47.8141 
 493   0.0000       1.761854        47.9425 
 494   0.0000       1.766012        48.0556 
 495   0.0000       1.768408        48.1208 
 496   0.0000       1.775386        48.3107 
 497   0.0000       1.777499        48.3682 
 498   0.0000       1.785154        48.5765 
 499   0.0000       1.785880        48.5963 
 500   0.0000       1.799625        48.9703 
 501   0.0000       1.802732        49.0548 
 502   0.0000       1.807440        49.1830 
 503   0.0000       1.810785        49.2740 
 504   0.0000       1.815227        49.3948 
 505   0.0000       1.820742        49.5449 
 506   0.0000       1.830490        49.8102 
 507   0.0000       1.833258        49.8855 
 508   0.0000       1.839721        50.0614 
 509   0.0000       1.848653        50.3044 
 510   0.0000       1.850413        50.3523 
 511   0.0000       1.855812        50.4992 
 512   0.0000       1.862388        50.6782 
 513   0.0000       1.867303        50.8119 
 514   0.0000       1.870321        50.8940 
 515   0.0000       1.877138        51.0795 
 516   0.0000       1.883142        51.2429 
 517   0.0000       1.885276        51.3010 
 518   0.0000       1.893096        51.5138 
 519   0.0000       1.896984        51.6195 
 520   0.0000       1.900104        51.7045 
 521   0.0000       1.900617        51.7184 
 522   0.0000       1.907169        51.8967 
 523   0.0000       1.912358        52.0379 
 524   0.0000       1.917398        52.1750 
 525   0.0000       1.921786        52.2945 
 526   0.0000       1.926153        52.4133 
 527   0.0000       1.937292        52.7164 
 528   0.0000       1.941662        52.8353 
 529   0.0000       1.943277        52.8792 
 530   0.0000       1.948273        53.0152 
 531   0.0000       1.953931        53.1692 
 532   0.0000       1.962577        53.4044 
 533   0.0000       1.965004        53.4705 
 534   0.0000       1.970722        53.6261 
 535   0.0000       1.982282        53.9406 
 536   0.0000       1.986003        54.0419 
 537   0.0000       1.992658        54.2230 
 538   0.0000       1.999732        54.4155 
 539   0.0000       2.004989        54.5585 
 540   0.0000       2.014113        54.8068 
 541   0.0000       2.025387        55.1136 
 542   0.0000       2.029761        55.2326 
 543   0.0000       2.033688        55.3395 
 544   0.0000       2.040845        55.5342 
 545   0.0000       2.048760        55.7496 
 546   0.0000       2.053800        55.8867 
 547   0.0000       2.056374        55.9568 
 548   0.0000       2.057352        55.9834 
 549   0.0000       2.071123        56.3581 
 550   0.0000       2.083975        56.7079 
 551   0.0000       2.089545        56.8594 
 552   0.0000       2.091479        56.9120 
 553   0.0000       2.099715        57.1362 
 554   0.0000       2.109466        57.4015 
 555   0.0000       2.117709        57.6258 
 556   0.0000       2.122913        57.7674 
 557   0.0000       2.129081        57.9352 
 558   0.0000       2.135734        58.1163 
 559   0.0000       2.136788        58.1450 
 560   0.0000       2.143526        58.3283 
 561   0.0000       2.154289        58.6212 
 562   0.0000       2.158810        58.7442 
 563   0.0000       2.168856        59.0176 
 564   0.0000       2.176209        59.2176 
 565   0.0000       2.190199        59.5983 
 566   0.0000       2.194057        59.7033 
 567   0.0000       2.201929        59.9175 
 568   0.0000       2.205027        60.0018 
 569   0.0000       2.214173        60.2507 
 570   0.0000       2.216372        60.3106 
 571   0.0000       2.220180        60.4142 
 572   0.0000       2.230753        60.7019 
 573   0.0000       2.238940        60.9246 
 574   0.0000       2.244174        61.0671 
 575   0.0000       2.248226        61.1773 
 576   0.0000       2.260789        61.5192 
 577   0.0000       2.263975        61.6059 
 578   0.0000       2.275951        61.9318 
 579   0.0000       2.284142        62.1547 
 580   0.0000       2.289521        62.3010 
 581   0.0000       2.295584        62.4660 
 582   0.0000       2.307362        62.7865 
 583   0.0000       2.315790        63.0159 
 584   0.0000       2.322486        63.1980 
 585   0.0000       2.330364        63.4124 
 586   0.0000       2.341891        63.7261 
 587   0.0000       2.346066        63.8397 
 588   0.0000       2.350899        63.9712 
 589   0.0000       2.353960        64.0545 
 590   0.0000       2.365429        64.3666 
 591   0.0000       2.374976        64.6264 
 592   0.0000       2.380378        64.7734 
 593   0.0000       2.385021        64.8997 
 594   0.0000       2.398304        65.2612 
 595   0.0000       2.402674        65.3801 
 596   0.0000       2.407674        65.5161 
 597   0.0000       2.418301        65.8053 
 598   0.0000       2.421187        65.8838 
 599   0.0000       2.431266        66.1581 
 600   0.0000       2.437835        66.3369 
 601   0.0000       2.446458        66.5715 
 602   0.0000       2.450102        66.6707 
 603   0.0000       2.461630        66.9844 
 604   0.0000       2.470416        67.2234 
 605   0.0000       2.478672        67.4481 
 606   0.0000       2.490065        67.7581 
 607   0.0000       2.510719        68.3201 
 608   0.0000       2.513347        68.3917 
 609   0.0000       2.522710        68.6464 
 610   0.0000       2.539795        69.1113 
 611   0.0000       2.540313        69.1254 
 612   0.0000       2.557108        69.5824 
 613   0.0000       2.582451        70.2721 
 614   0.0000       2.592491        70.5453 
 615   0.0000       2.596103        70.6436 
 616   0.0000       2.610180        71.0266 
 617   0.0000       2.622269        71.3556 
 618   0.0000       2.635568        71.7174 
 619   0.0000       2.644759        71.9675 
 620   0.0000       2.653930        72.2171 
 621   0.0000       2.661237        72.4159 
 622   0.0000       2.670480        72.6675 
 623   0.0000       2.676903        72.8422 
 624   0.0000       2.681219        72.9597 
 625   0.0000       2.689541        73.1861 
 626   0.0000       2.697821        73.4114 
 627   0.0000       2.709417        73.7270 
 628   0.0000       2.719480        74.0008 
 629   0.0000       2.728026        74.2334 
 630   0.0000       2.735587        74.4391 
 631   0.0000       2.753323        74.9217 
 632   0.0000       2.766144        75.2706 
 633   0.0000       2.772962        75.4561 
 634   0.0000       2.783825        75.7517 
 635   0.0000       2.789807        75.9145 
 636   0.0000       2.799061        76.1663 
 637   0.0000       2.811911        76.5160 
 638   0.0000       2.822126        76.7939 
 639   0.0000       2.827865        76.9501 
 640   0.0000       2.852367        77.6168 
 641   0.0000       2.854800        77.6831 
 642   0.0000       2.860180        77.8295 
 643   0.0000       2.877434        78.2989 
 644   0.0000       2.882009        78.4234 
 645   0.0000       2.894150        78.7538 
 646   0.0000       2.905032        79.0499 
 647   0.0000       2.921528        79.4988 
 648   0.0000       2.942406        80.0669 
 649   0.0000       2.953041        80.3563 
 650   0.0000       2.955454        80.4220 
 651   0.0000       2.968323        80.7722 
 652   0.0000       2.980812        81.1120 
 653   0.0000       3.000491        81.6475 
 654   0.0000       3.022587        82.2488 
 655   0.0000       3.043864        82.8277 
 656   0.0000       3.053324        83.0852 
 657   0.0000       3.075286        83.6828 
 658   0.0000       3.083196        83.8980 
 659   0.0000       3.092366        84.1476 
 660   0.0000       3.113113        84.7121 
 661   0.0000       3.124651        85.0261 
 662   0.0000       3.134517        85.2945 
 663   0.0000       3.160873        86.0117 
 664   0.0000       3.167214        86.1843 
 665   0.0000       3.185884        86.6923 
 666   0.0000       3.197663        87.0128 
 667   0.0000       3.204365        87.1952 
 668   0.0000       3.214654        87.4752 
 669   0.0000       3.222729        87.6949 
 670   0.0000       3.228736        87.8584 
 671   0.0000       3.232995        87.9743 
 672   0.0000       3.245772        88.3219 
 673   0.0000       3.254657        88.5637 
 674   0.0000       3.260089        88.7115 
 675   0.0000       3.271746        89.0287 
 676   0.0000       3.281560        89.2958 
 677   0.0000       3.286712        89.4360 
 678   0.0000       3.294410        89.6455 
 679   0.0000       3.309004        90.0426 
 680   0.0000       3.328158        90.5638 
 681   0.0000       3.329214        90.5925 
 682   0.0000       3.334117        90.7259 
 683   0.0000       3.339451        90.8711 
 684   0.0000       3.353329        91.2487 
 685   0.0000       3.357590        91.3647 
 686   0.0000       3.361990        91.4844 
 687   0.0000       3.395508        92.3965 
 688   0.0000       3.400126        92.5221 
 689   0.0000       3.414202        92.9052 
 690   0.0000       3.417606        92.9978 
 691   0.0000       3.435657        93.4890 
 692   0.0000       3.446327        93.7793 
 693   0.0000       3.457534        94.0843 
 694   0.0000       3.461733        94.1985 
 695   0.0000       3.469473        94.4092 
 696   0.0000       3.478629        94.6583 
 697   0.0000       3.483564        94.7926 
 698   0.0000       3.495628        95.1209 
 699   0.0000       3.501987        95.2939 
 700   0.0000       3.506545        95.4179 
 701   0.0000       3.513419        95.6050 
 702   0.0000       3.526474        95.9602 
 703   0.0000       3.532629        96.1277 
 704   0.0000       3.537299        96.2548 
 705   0.0000       3.547329        96.5277 
 706   0.0000       3.552303        96.6631 
 707   0.0000       3.556084        96.7660 
 708   0.0000       3.560156        96.8768 
 709   0.0000       3.579423        97.4011 
 710   0.0000       3.581029        97.4447 
 711   0.0000       3.592966        97.7696 
 712   0.0000       3.602874        98.0392 
 713   0.0000       3.606343        98.1336 
 714   0.0000       3.626092        98.6710 
 715   0.0000       3.631979        98.8312 
 716   0.0000       3.635011        98.9137 
 717   0.0000       3.642086        99.1062 
 718   0.0000       3.651145        99.3527 
 719   0.0000       3.663701        99.6944 
 720   0.0000       3.670942        99.8914 
 721   0.0000       3.677794       100.0779 
 722   0.0000       3.685240       100.2805 
 723   0.0000       3.695389       100.5567 
 724   0.0000       3.699239       100.6614 
 725   0.0000       3.713864       101.0594 
 726   0.0000       3.722128       101.2842 
 727   0.0000       3.724183       101.3402 
 728   0.0000       3.733600       101.5964 
 729   0.0000       3.741656       101.8156 
 730   0.0000       3.745343       101.9160 
 731   0.0000       3.754412       102.1627 
 732   0.0000       3.760738       102.3349 
 733   0.0000       3.769729       102.5795 
 734   0.0000       3.777699       102.7964 
 735   0.0000       3.785303       103.0033 
 736   0.0000       3.786873       103.0460 
 737   0.0000       3.788966       103.1030 
 738   0.0000       3.795304       103.2755 
 739   0.0000       3.810859       103.6987 
 740   0.0000       3.813367       103.7670 
 741   0.0000       3.826316       104.1194 
 742   0.0000       3.836768       104.4038 
 743   0.0000       3.840467       104.5044 
 744   0.0000       3.846489       104.6683 
 745   0.0000       3.852700       104.8373 
 746   0.0000       3.864373       105.1549 
 747   0.0000       3.874739       105.4370 
 748   0.0000       3.877656       105.5164 
 749   0.0000       3.886675       105.7618 
 750   0.0000       3.895657       106.0062 
 751   0.0000       3.904724       106.2530 
 752   0.0000       3.910303       106.4048 
 753   0.0000       3.915185       106.5376 
 754   0.0000       3.920846       106.6916 
 755   0.0000       3.928450       106.8986 
 756   0.0000       3.930987       106.9676 
 757   0.0000       3.941776       107.2612 
 758   0.0000       3.948350       107.4401 
 759   0.0000       3.955015       107.6214 
 760   0.0000       3.964632       107.8831 
 761   0.0000       3.966147       107.9244 
 762   0.0000       3.971216       108.0623 
 763   0.0000       3.973342       108.1201 
 764   0.0000       3.989192       108.5514 
 765   0.0000       3.992747       108.6482 
 766   0.0000       4.002745       108.9202 
 767   0.0000       4.009487       109.1037 
 768   0.0000       4.021849       109.4401 
 769   0.0000       4.029065       109.6364 
 770   0.0000       4.030425       109.6735 
 771   0.0000       4.039149       109.9108 
 772   0.0000       4.047377       110.1347 
 773   0.0000       4.053940       110.3133 
 774   0.0000       4.061572       110.5210 
 775   0.0000       4.064764       110.6079 
 776   0.0000       4.077299       110.9489 
 777   0.0000       4.083602       111.1205 
 778   0.0000       4.098280       111.5199 
 779   0.0000       4.103641       111.6657 
 780   0.0000       4.107744       111.7774 
 781   0.0000       4.115681       111.9934 
 782   0.0000       4.121082       112.1404 
 783   0.0000       4.131721       112.4298 
 784   0.0000       4.139832       112.6506 
 785   0.0000       4.141984       112.7091 
 786   0.0000       4.149380       112.9104 
 787   0.0000       4.159840       113.1950 
 788   0.0000       4.164318       113.3168 
 789   0.0000       4.173671       113.5714 
 790   0.0000       4.184675       113.8708 
 791   0.0000       4.196977       114.2056 
 792   0.0000       4.216535       114.7378 
 793   0.0000       4.220310       114.8405 
 794   0.0000       4.227809       115.0445 
 795   0.0000       4.234014       115.2134 
 796   0.0000       4.240551       115.3913 
 797   0.0000       4.261047       115.9490 
 798   0.0000       4.269429       116.1771 
 799   0.0000       4.276885       116.3799 
 800   0.0000       4.287097       116.6578 
 801   0.0000       4.292028       116.7920 
 802   0.0000       4.297765       116.9481 
 803   0.0000       4.313631       117.3799 
 804   0.0000       4.322020       117.6081 
 805   0.0000       4.324733       117.6820 
 806   0.0000       4.332715       117.8992 
 807   0.0000       4.338204       118.0485 
 808   0.0000       4.350559       118.3847 
 809   0.0000       4.355294       118.5136 
 810   0.0000       4.363542       118.7380 
 811   0.0000       4.374993       119.0496 
 812   0.0000       4.388954       119.4295 
 813   0.0000       4.393876       119.5635 
 814   0.0000       4.404506       119.8527 
 815   0.0000       4.407039       119.9216 
 816   0.0000       4.419825       120.2696 
 817   0.0000       4.429062       120.5209 
 818   0.0000       4.445762       120.9753 
 819   0.0000       4.451255       121.1248 
 820   0.0000       4.468954       121.6064 
 821   0.0000       4.476284       121.8059 
 822   0.0000       4.485370       122.0531 
 823   0.0000       4.497939       122.3951 
 824   0.0000       4.501749       122.4988 
 825   0.0000       4.511736       122.7706 
 826   0.0000       4.522294       123.0579 
 827   0.0000       4.531811       123.3169 
 828   0.0000       4.535957       123.4297 
 829   0.0000       4.540494       123.5531 
 830   0.0000       4.549023       123.7852 
 831   0.0000       4.558283       124.0372 
 832   0.0000       4.571925       124.4084 
 833   0.0000       4.585033       124.7651 
 834   0.0000       4.593135       124.9856 
 835   0.0000       4.599255       125.1521 
 836   0.0000       4.610852       125.4677 
 837   0.0000       4.631569       126.0314 
 838   0.0000       4.647153       126.4555 
 839   0.0000       4.655841       126.6919 
 840   0.0000       4.672398       127.1424 
 841   0.0000       4.674156       127.1903 
 842   0.0000       4.678838       127.3176 
 843   0.0000       4.696257       127.7917 
 844   0.0000       4.703302       127.9834 
 845   0.0000       4.712742       128.2402 
 846   0.0000       4.714369       128.2845 
 847   0.0000       4.738509       128.9414 
 848   0.0000       4.743422       129.0751 
 849   0.0000       4.748219       129.2056 
 850   0.0000       4.777291       129.9967 
 851   0.0000       4.782898       130.1493 
 852   0.0000       4.798365       130.5702 
 853   0.0000       4.806807       130.7999 
 854   0.0000       4.822806       131.2352 
 855   0.0000       4.823905       131.2651 
 856   0.0000       4.840450       131.7153 
 857   0.0000       4.848606       131.9373 
 858   0.0000       4.857163       132.1701 
 859   0.0000       4.879531       132.7788 
 860   0.0000       4.893278       133.1529 
 861   0.0000       4.900934       133.3612 
 862   0.0000       4.915563       133.7593 
 863   0.0000       4.926951       134.0692 
 864   0.0000       4.934642       134.2784 
 865   0.0000       4.948306       134.6503 
 866   0.0000       4.966278       135.1393 
 867   0.0000       4.968147       135.1902 
 868   0.0000       4.979036       135.4864 
 869   0.0000       4.991638       135.8294 
 870   0.0000       5.004152       136.1699 
 871   0.0000       5.010661       136.3470 
 872   0.0000       5.014386       136.4484 
 873   0.0000       5.023096       136.6854 
 874   0.0000       5.034151       136.9862 
 875   0.0000       5.048711       137.3824 
 876   0.0000       5.063692       137.7901 
 877   0.0000       5.073418       138.0547 
 878   0.0000       5.089430       138.4904 
 879   0.0000       5.103320       138.8684 
 880   0.0000       5.113916       139.1567 
 881   0.0000       5.121169       139.3541 
 882   0.0000       5.134869       139.7269 
 883   0.0000       5.145011       140.0029 
 884   0.0000       5.158931       140.3816 
 885   0.0000       5.165579       140.5626 
 886   0.0000       5.180392       140.9656 
 887   0.0000       5.191772       141.2753 
 888   0.0000       5.210883       141.7953 
 889   0.0000       5.217520       141.9759 
 890   0.0000       5.227568       142.2494 
 891   0.0000       5.237021       142.5066 
 892   0.0000       5.247929       142.8034 
 893   0.0000       5.264418       143.2521 
 894   0.0000       5.273486       143.4989 
 895   0.0000       5.291930       144.0007 
 896   0.0000       5.303564       144.3173 
 897   0.0000       5.307583       144.4267 
 898   0.0000       5.315511       144.6424 
 899   0.0000       5.337431       145.2389 
 900   0.0000       5.348464       145.5391 
 901   0.0000       5.374352       146.2436 
 902   0.0000       5.385707       146.5525 
 903   0.0000       5.391667       146.7147 
 904   0.0000       5.419224       147.4646 
 905   0.0000       5.430119       147.7611 
 906   0.0000       5.434068       147.8685 
 907   0.0000       5.449866       148.2984 
 908   0.0000       5.456479       148.4783 
 909   0.0000       5.458489       148.5330 
 910   0.0000       5.473215       148.9338 
 911   0.0000       5.476822       149.0319 
 912   0.0000       5.491956       149.4437 
 913   0.0000       5.506680       149.8444 
 914   0.0000       5.518489       150.1657 
 915   0.0000       5.544883       150.8839 
 916   0.0000       5.551533       151.0649 
 917   0.0000       5.574982       151.7030 
 918   0.0000       5.579052       151.8137 
 919   0.0000       5.589346       152.0938 
 920   0.0000       5.595876       152.2715 
 921   0.0000       5.597806       152.3240 
 922   0.0000       5.616950       152.8450 
 923   0.0000       5.619302       152.9090 
 924   0.0000       5.625155       153.0682 
 925   0.0000       5.646666       153.6536 
 926   0.0000       5.659210       153.9949 
 927   0.0000       5.663655       154.1159 
 928   0.0000       5.679201       154.5389 
 929   0.0000       5.690198       154.8381 
 930   0.0000       5.697827       155.0458 
 931   0.0000       5.716244       155.5469 
 932   0.0000       5.721720       155.6959 
 933   0.0000       5.741720       156.2401 
 934   0.0000       5.750952       156.4913 
 935   0.0000       5.766462       156.9134 
 936   0.0000       5.773091       157.0938 
 937   0.0000       5.798921       157.7967 
 938   0.0000       5.807025       158.0172 
 939   0.0000       5.829274       158.6226 
 940   0.0000       5.842547       158.9838 
 941   0.0000       5.853232       159.2745 
 942   0.0000       5.874533       159.8542 
 943   0.0000       5.894104       160.3867 
 944   0.0000       5.913510       160.9148 
 945   0.0000       6.020523       163.8268 
 946   0.0000       6.061331       164.9372 
 947   0.0000       6.066199       165.0697 
 948   0.0000       6.107266       166.1872 
 949   0.0000       6.116300       166.4330 
 950   0.0000       6.151578       167.3930 
 951   0.0000       6.157947       167.5663 
 952   0.0000       6.183972       168.2744 
 953   0.0000       6.191563       168.4810 
 954   0.0000       6.214451       169.1038 
 955   0.0000       6.238653       169.7624 
 956   0.0000       6.245826       169.9576 
 957   0.0000       6.254185       170.1850 
 958   0.0000       6.275379       170.7618 
 959   0.0000       6.284147       171.0003 
 960   0.0000       6.306998       171.6221 
 961   0.0000       6.317065       171.8961 
 962   0.0000       6.329894       172.2452 
 963   0.0000       6.351213       172.8253 
 964   0.0000       6.364958       173.1993 
 965   0.0000       6.371461       173.3763 
 966   0.0000       6.386488       173.7852 
 967   0.0000       6.403176       174.2393 
 968   0.0000       6.457298       175.7120 
 969   0.0000       6.528820       177.6582 
 970   0.0000       6.564243       178.6221 
 971   0.0000       6.656455       181.1313 
 972   0.0000       6.823555       185.6784 
 973   0.0000       6.848266       186.3508 
 974   0.0000       6.885887       187.3745 
 975   0.0000       6.896306       187.6580 
 976   0.0000       6.916638       188.2113 
 977   0.0000       6.944509       188.9697 
 978   0.0000       6.965144       189.5312 
 979   0.0000       6.997495       190.4115 
 980   0.0000       7.012926       190.8314 
 981   0.0000       7.017535       190.9568 
 982   0.0000       7.029439       191.2807 
 983   0.0000       7.060017       192.1128 
 984   0.0000       7.074434       192.5051 
 985   0.0000       7.139008       194.2623 
 986   0.0000       7.253364       197.3741 
 987   0.0000       7.332036       199.5148 
 988   0.0000       7.361952       200.3289 
 989   0.0000       7.426402       202.0827 
 990   0.0000       7.520400       204.6405 
 991   0.0000       7.589505       206.5209 
 992   0.0000       7.665961       208.6014 
 993   0.0000       7.692318       209.3186 
 994   0.0000       7.779716       211.6968 
 995   0.0000       7.903034       215.0525 
 996   0.0000       7.947291       216.2568 
 997   0.0000       8.032694       218.5807 
 998   0.0000       8.288366       225.5379 
 999   0.0000       9.413386       256.1513 
 1000   0.0000       9.435254       256.7463 
 1001   0.0000       9.437479       256.8069 
 1002   0.0000       9.448957       257.1192 
 1003   0.0000       9.466345       257.5924 
 1004   0.0000       9.491331       258.2723 
 1005   0.0000       9.698474       263.9089 
 1006   0.0000      10.091374       274.6002 
 1007   0.0000      10.099153       274.8119 
 1008   0.0000      10.114591       275.2320 
 1009   0.0000      10.208881       277.7978 
 1010   0.0000      10.215267       277.9716 
 1011   0.0000      10.239470       278.6301 
 1012   0.0000      10.354821       281.7690 
 1013   0.0000      10.398084       282.9462 
 1014   0.0000      10.493255       285.5360 
 1015   0.0000      12.634565       343.8040 
 1016   0.0000      17.079377       464.7535 
 1017   0.0000      17.713992       482.0222 
 1018   0.0000      18.331483       498.8250 
 1019   0.0000      18.467845       502.5356 
 1020   0.0000      18.737660       509.8776 
 1021   0.0000      18.852189       512.9941 
 1022   0.0000      20.324340       553.0534 
 1023   0.0000      20.889076       568.4207 
 1024   0.0000      21.669954       589.6694 

                 SPIN DOWN ORBITALS
  NO   OCC          E(Eh)            E(eV) 
   0   1.0000    -261.563587     -7117.5070 
   1   1.0000    -104.787053     -2851.4007 
   2   1.0000    -104.783047     -2851.2917 
   3   1.0000    -104.781303     -2851.2442 
   4   1.0000     -32.072922      -872.7486 
   5   1.0000     -27.550847      -749.6967 
   6   1.0000     -27.550792      -749.6952 
   7   1.0000     -27.550594      -749.6898 
   8   1.0000     -20.594637      -560.4086 
   9   1.0000     -11.414919      -310.6157 
  10   1.0000     -11.296235      -307.3862 
  11   1.0000     -11.271258      -306.7065 
  12   1.0000     -11.266413      -306.5747 
  13   1.0000     -11.257121      -306.3218 
  14   1.0000     -11.257051      -306.3199 
  15   1.0000     -11.240841      -305.8788 
  16   1.0000     -11.240462      -305.8685 
  17   1.0000     -10.513646      -286.0909 
  18   1.0000     -10.509615      -285.9812 
  19   1.0000     -10.507826      -285.9325 
  20   1.0000      -7.979543      -217.1344 
  21   1.0000      -7.978889      -217.1166 
  22   1.0000      -7.978839      -217.1153 
  23   1.0000      -7.975522      -217.0250 
  24   1.0000      -7.974819      -217.0059 
  25   1.0000      -7.974733      -217.0035 
  26   1.0000      -7.973801      -216.9782 
  27   1.0000      -7.972985      -216.9560 
  28   1.0000      -7.972897      -216.9535 
  29   1.0000      -4.147822      -112.8680 
  30   1.0000      -2.669457       -72.6396 
  31   1.0000      -2.669415       -72.6385 
  32   1.0000      -2.668812       -72.6221 
  33   1.0000      -1.432453       -38.9790 
  34   1.0000      -1.144249       -31.1366 
  35   1.0000      -1.090303       -29.6687 
  36   1.0000      -1.045438       -28.4478 
  37   1.0000      -1.033176       -28.1142 
  38   1.0000      -1.029751       -28.0209 
  39   1.0000      -1.028100       -27.9760 
  40   1.0000      -1.002057       -27.2674 
  41   1.0000      -0.972533       -26.4640 
  42   1.0000      -0.907978       -24.7073 
  43   1.0000      -0.817931       -22.2570 
  44   1.0000      -0.744601       -20.2616 
  45   1.0000      -0.702230       -19.1086 
  46   1.0000      -0.689640       -18.7661 
  47   1.0000      -0.682015       -18.5586 
  48   1.0000      -0.666072       -18.1247 
  49   1.0000      -0.633241       -17.2314 
  50   1.0000      -0.621771       -16.9192 
  51   1.0000      -0.604836       -16.4584 
  52   1.0000      -0.596102       -16.2207 
  53   1.0000      -0.582629       -15.8541 
  54   1.0000      -0.574011       -15.6196 
  55   1.0000      -0.563166       -15.3245 
  56   1.0000      -0.559317       -15.2198 
  57   1.0000      -0.551537       -15.0081 
  58   1.0000      -0.542704       -14.7677 
  59   1.0000      -0.535275       -14.5656 
  60   1.0000      -0.517732       -14.0882 
  61   1.0000      -0.506830       -13.7915 
  62   1.0000      -0.494039       -13.4435 
  63   1.0000      -0.479019       -13.0348 
  64   1.0000      -0.476326       -12.9615 
  65   1.0000      -0.448848       -12.2138 
  66   1.0000      -0.445253       -12.1160 
  67   1.0000      -0.442630       -12.0446 
  68   1.0000      -0.427246       -11.6259 
  69   1.0000      -0.423018       -11.5109 
  70   1.0000      -0.408465       -11.1149 
  71   1.0000      -0.368478       -10.0268 
  72   0.0000       0.011709         0.3186 
  73   0.0000       0.021978         0.5980 
  74   0.0000       0.023306         0.6342 
  75   0.0000       0.029528         0.8035 
  76   0.0000       0.037812         1.0289 
  77   0.0000       0.040009         1.0887 
  78   0.0000       0.042042         1.1440 
  79   0.0000       0.044267         1.2046 
  80   0.0000       0.044575         1.2129 
  81   0.0000       0.049695         1.3523 
  82   0.0000       0.057021         1.5516 
  83   0.0000       0.061033         1.6608 
  84   0.0000       0.062048         1.6884 
  85   0.0000       0.062911         1.7119 
  86   0.0000       0.064602         1.7579 
  87   0.0000       0.071203         1.9375 
  88   0.0000       0.076856         2.0913 
  89   0.0000       0.082337         2.2405 
  90   0.0000       0.089328         2.4307 
  91   0.0000       0.091251         2.4831 
  92   0.0000       0.093600         2.5470 
  93   0.0000       0.098603         2.6831 
  94   0.0000       0.100281         2.7288 
  95   0.0000       0.103411         2.8140 
  96   0.0000       0.105463         2.8698 
  97   0.0000       0.110816         3.0154 
  98   0.0000       0.111574         3.0361 
  99   0.0000       0.114197         3.1075 
 100   0.0000       0.116105         3.1594 
 101   0.0000       0.116325         3.1654 
 102   0.0000       0.120284         3.2731 
 103   0.0000       0.122907         3.3445 
 104   0.0000       0.124601         3.3906 
 105   0.0000       0.125124         3.4048 
 106   0.0000       0.127609         3.4724 
 107   0.0000       0.130345         3.5469 
 108   0.0000       0.133090         3.6215 
 109   0.0000       0.135080         3.6757 
 110   0.0000       0.135786         3.6949 
 111   0.0000       0.139193         3.7876 
 112   0.0000       0.145485         3.9588 
 113   0.0000       0.147537         4.0147 
 114   0.0000       0.153171         4.1680 
 115   0.0000       0.153931         4.1887 
 116   0.0000       0.157844         4.2952 
 117   0.0000       0.161151         4.3852 
 118   0.0000       0.162074         4.4103 
 119   0.0000       0.168665         4.5896 
 120   0.0000       0.172798         4.7021 
 121   0.0000       0.173224         4.7137 
 122   0.0000       0.175207         4.7676 
 123   0.0000       0.181285         4.9330 
 124   0.0000       0.182803         4.9743 
 125   0.0000       0.185813         5.0562 
 126   0.0000       0.190032         5.1710 
 127   0.0000       0.191832         5.2200 
 128   0.0000       0.196811         5.3555 
 129   0.0000       0.199909         5.4398 
 130   0.0000       0.201415         5.4808 
 131   0.0000       0.203241         5.5305 
 132   0.0000       0.207525         5.6470 
 133   0.0000       0.211187         5.7467 
 134   0.0000       0.216875         5.9015 
 135   0.0000       0.220732         6.0064 
 136   0.0000       0.225497         6.1361 
 137   0.0000       0.228603         6.2206 
 138   0.0000       0.231117         6.2890 
 139   0.0000       0.235284         6.4024 
 140   0.0000       0.235540         6.4094 
 141   0.0000       0.238647         6.4939 
 142   0.0000       0.241444         6.5700 
 143   0.0000       0.247482         6.7343 
 144   0.0000       0.249451         6.7879 
 145   0.0000       0.251597         6.8463 
 146   0.0000       0.253905         6.9091 
 147   0.0000       0.261969         7.1286 
 148   0.0000       0.264893         7.2081 
 149   0.0000       0.269873         7.3436 
 150   0.0000       0.271746         7.3946 
 151   0.0000       0.276898         7.5348 
 152   0.0000       0.281653         7.6642 
 153   0.0000       0.282771         7.6946 
 154   0.0000       0.286493         7.7959 
 155   0.0000       0.292314         7.9543 
 156   0.0000       0.294661         8.0181 
 157   0.0000       0.297938         8.1073 
 158   0.0000       0.299220         8.1422 
 159   0.0000       0.304631         8.2894 
 160   0.0000       0.311075         8.4648 
 161   0.0000       0.316192         8.6040 
 162   0.0000       0.321776         8.7560 
 163   0.0000       0.324091         8.8190 
 164   0.0000       0.327847         8.9212 
 165   0.0000       0.333817         9.0836 
 166   0.0000       0.336993         9.1700 
 167   0.0000       0.339972         9.2511 
 168   0.0000       0.344996         9.3878 
 169   0.0000       0.345272         9.3953 
 170   0.0000       0.350592         9.5401 
 171   0.0000       0.353258         9.6126 
 172   0.0000       0.358604         9.7581 
 173   0.0000       0.362649         9.8682 
 174   0.0000       0.364275         9.9124 
 175   0.0000       0.367752        10.0070 
 176   0.0000       0.372587        10.1386 
 177   0.0000       0.374771        10.1980 
 178   0.0000       0.379673        10.3314 
 179   0.0000       0.381578        10.3833 
 180   0.0000       0.385068        10.4782 
 181   0.0000       0.387948        10.5566 
 182   0.0000       0.388910        10.5828 
 183   0.0000       0.393491        10.7074 
 184   0.0000       0.394777        10.7424 
 185   0.0000       0.396584        10.7916 
 186   0.0000       0.399092        10.8599 
 187   0.0000       0.402277        10.9465 
 188   0.0000       0.405182        11.0256 
 189   0.0000       0.407029        11.0758 
 190   0.0000       0.416383        11.3304 
 191   0.0000       0.421555        11.4711 
 192   0.0000       0.423009        11.5107 
 193   0.0000       0.429648        11.6913 
 194   0.0000       0.431104        11.7309 
 195   0.0000       0.435724        11.8567 
 196   0.0000       0.438178        11.9234 
 197   0.0000       0.445153        12.1132 
 198   0.0000       0.447191        12.1687 
 199   0.0000       0.448382        12.2011 
 200   0.0000       0.454243        12.3606 
 201   0.0000       0.457538        12.4503 
 202   0.0000       0.458893        12.4871 
 203   0.0000       0.465256        12.6602 
 204   0.0000       0.466926        12.7057 
 205   0.0000       0.469609        12.7787 
 206   0.0000       0.476259        12.9597 
 207   0.0000       0.479766        13.0551 
 208   0.0000       0.483025        13.1438 
 209   0.0000       0.485017        13.1980 
 210   0.0000       0.487823        13.2743 
 211   0.0000       0.490614        13.3503 
 212   0.0000       0.496422        13.5083 
 213   0.0000       0.499435        13.5903 
 214   0.0000       0.501298        13.6410 
 215   0.0000       0.504552        13.7296 
 216   0.0000       0.505692        13.7606 
 217   0.0000       0.510262        13.8849 
 218   0.0000       0.515227        14.0201 
 219   0.0000       0.517236        14.0747 
 220   0.0000       0.521005        14.1773 
 221   0.0000       0.522018        14.2048 
 222   0.0000       0.524947        14.2845 
 223   0.0000       0.527892        14.3647 
 224   0.0000       0.529439        14.4068 
 225   0.0000       0.532213        14.4822 
 226   0.0000       0.538462        14.6523 
 227   0.0000       0.540388        14.7047 
 228   0.0000       0.541601        14.7377 
 229   0.0000       0.545569        14.8457 
 230   0.0000       0.549118        14.9423 
 231   0.0000       0.554163        15.0795 
 232   0.0000       0.557603        15.1731 
 233   0.0000       0.560015        15.2388 
 234   0.0000       0.564412        15.3584 
 235   0.0000       0.567196        15.4342 
 236   0.0000       0.571983        15.5645 
 237   0.0000       0.574698        15.6383 
 238   0.0000       0.580825        15.8050 
 239   0.0000       0.586306        15.9542 
 240   0.0000       0.588489        16.0136 
 241   0.0000       0.590483        16.0679 
 242   0.0000       0.592147        16.1131 
 243   0.0000       0.596615        16.2347 
 244   0.0000       0.599949        16.3254 
 245   0.0000       0.603145        16.4124 
 246   0.0000       0.604725        16.4554 
 247   0.0000       0.614157        16.7121 
 248   0.0000       0.616166        16.7667 
 249   0.0000       0.621114        16.9014 
 250   0.0000       0.625264        17.0143 
 251   0.0000       0.627858        17.0849 
 252   0.0000       0.630803        17.1650 
 253   0.0000       0.636213        17.3122 
 254   0.0000       0.641482        17.4556 
 255   0.0000       0.647460        17.6183 
 256   0.0000       0.650882        17.7114 
 257   0.0000       0.653809        17.7910 
 258   0.0000       0.657537        17.8925 
 259   0.0000       0.661430        17.9984 
 260   0.0000       0.664019        18.0689 
 261   0.0000       0.666871        18.1465 
 262   0.0000       0.672259        18.2931 
 263   0.0000       0.676291        18.4028 
 264   0.0000       0.677517        18.4362 
 265   0.0000       0.685149        18.6439 
 266   0.0000       0.687996        18.7213 
 267   0.0000       0.697471        18.9791 
 268   0.0000       0.699219        19.0267 
 269   0.0000       0.702315        19.1110 
 270   0.0000       0.704677        19.1752 
 271   0.0000       0.715879        19.4801 
 272   0.0000       0.716665        19.5015 
 273   0.0000       0.721674        19.6377 
 274   0.0000       0.725114        19.7314 
 275   0.0000       0.731012        19.8918 
 276   0.0000       0.733884        19.9700 
 277   0.0000       0.737363        20.0647 
 278   0.0000       0.743312        20.2266 
 279   0.0000       0.745304        20.2808 
 280   0.0000       0.748920        20.3792 
 281   0.0000       0.753004        20.4903 
 282   0.0000       0.763586        20.7782 
 283   0.0000       0.767982        20.8978 
[...]
  | sigma^2 in % of trace(Dij) retained ...   9.06e+00
  | sigma^2 in % of trace(Dip) retained ...   2.05e+01
  | sigma^2 in % of trace(Dpq) retained ...   1.36e-01
  | Av. % of trace(Di) retained         ...  99.998525917085
  | Av. % of trace(Dp) retained         ...  99.999999837284
  | sigma^2 in % of trace(Di) retained  ...   6.81e-07
  | sigma^2 in % of trace(Dp) retained  ...   9.43e-15
 Distributions of % trace(Dij) recovered:
  |       >= 99.9  ...   105 ( 21.4 % of all IJ-pairs)
  |   [80.0, 90.0) ...    27 (  5.5 % of all IJ-pairs)
  |   [90.0, 99.0) ...   262 ( 53.4 % of all IJ-pairs)
  |   [99.0, 99.9) ...    97 ( 19.8 % of all IJ-pairs)
 Distributions of % trace(Dip) recovered:
  |   [80.0, 90.0) ...    17 ( 14.4 % of all IP-pairs)
  |   [90.0, 99.0) ...    58 ( 49.2 % of all IP-pairs)
  |   [99.0, 99.9) ...    43 ( 36.4 % of all IP-pairs)
 Distributions of % trace(Dpq) recovered:
  |       >= 99.9  ...     5 ( 33.3 % of all PQ-pairs)
  |   [99.0, 99.9) ...    10 ( 66.7 % of all PQ-pairs)
 Distributions of % trace(Di) recovered :
  |       >= 99.9  ...    43 (100.0 % of all I-pairs )
 Distributions of % trace(Dp) recovered :
  |       >= 99.9  ...     5 (100.0 % of all P-pairs )

                       ===========================
                       1082 OF 1678 PAIRS ARE KEPT
                       ===========================

 Initial PAO correlation energy (all pairs)    ...  -2.6912627754 Eh
 Energy constituents in PAO basis (Eh):
  | Vijab(+0) ...  -2.2636890186
  | Viab (-1) ...  -0.1744030179
  | Vab  (-2) ...  -0.0573471656
  | Va   (-1) ...  -0.0000437841
  | Vija (+1) ...  -0.0717011175
  | Vij  (+2) ...  -0.0155145648
  | Via  (+0) ...  -0.1084030628
  | Vi   (+1) ...  -0.0001610441
 Initial PNO correlation energy                ...  -2.6565847236 Eh
 Energy constituents in PNO basis (Eh):
  | Vijab(+0) ...  -2.2447204381 (err=  0.0189685805)
  | Viab (-1) ...  -0.1603481647 (err=  0.0140548532)
  | Vab  (-2) ...  -0.0568941827 (err=  0.0004529829)
  | Va   (-1) ...  -0.0000253882 (err=  0.0000183959)
  | Vija (+1) ...  -0.0706798720 (err=  0.0010212456)
  | Vij  (+2) ...  -0.0154506032 (err=  0.0000639616)
  | Via  (+0) ...  -0.1083053897 (err=  0.0000976731)
  | Vi   (+1) ...  -0.0001606850 (err=  0.0000003591)
 Sum of total truncation errors ...   0.0346780518 Eh
  | Pair screening ...   0.0119453201 Eh
  | PNO truncation ...   0.0227327317 Eh

 UMP2 correlation energy (PAO) ...  -2.6862894385
  | alpha-alpha ...  -0.3859797419 (NP_aa=  902)
  | alpha-beta  ...  -1.9939566335 (NP_ab= 1653)
  | beta -beta  ...  -0.3063530631 (NP_bb=  718)
 UMP2 correlation energy (PNO) ...  -2.6512270413
  | alpha-alpha ...  -0.3738900832 (err=  0.0120896587, NP_aa=  576)
  | alpha-beta  ...  -1.9751705202 (err=  0.0187861133, NP_ab= 1057)
  | beta -beta  ...  -0.3021664378 (err=  0.0041866253, NP_bb=  448)
 Sum of total UMP2 truncation errors ...   0.0350623972 Eh
  | Pair screening ...   0.0119658676 Eh
  | PNO truncation ...   0.0230965296 Eh
 Timing for NEV-PNO construction (sec.)
  | Intermediate construction  ..           45.849
  | Amplitude construction     ..           61.044
  | Total time                 ..          106.892
 Making pair pair interaction lists ...      ok
 Total size for 2-ext PNO integrals ...     10.8 MB
Checking the number of SOMO/SOMO doubles PNOs ... 
 #Truncate: (72, 72)[165] -> [86] .. 
 #Truncate: (73, 73)[171] -> [86] .. 
 #Truncate: (74, 74)[170] -> [86] .. 
 #Truncate: (75, 75)[168] -> [86] .. 
 #Truncate: (76, 76)[170] -> [86] .. 

--------------------------------
LOCAL RI TRANSFORMATION (VABPAO)
--------------------------------

Number of PAOs:    1030
Basis functions:   1025 (343 shells)
Aux. functions:    2424 (644 shells)

Processing maps (0.0 sec)
Average map sizes:
   Aux shells -> PAOs           1030.0
   PAOs       -> AO shells       343.0

Calculating integrals (192.0 sec, 37370.165 MB)
Finished
-----------------------------
LOCAL RI TRANSFORMATION (IJV)
-----------------------------

Orbital window:      29 to 76
Basis functions:   1025 (343 shells)
Aux. functions:    2424 (644 shells)

Processing maps (0.0 sec)
Average map sizes:
   Aux shells -> MOs(i)           46.5
   Aux shells -> MOs(j)           48.0
   MOs        -> AO shells       338.8

Calculating integrals (23.0 sec, 41.411 MB)
Sorting integrals (0.3 sec, 41.384 MB)
Total time for the integral transformation: 23.4 sec


-------------------------------------
Pair Pair Term precalculation with     
RI-(ij|mn) and (im|jn) transformation  
ON THE FLY                             
-------------------------------------

   IBatch   1 (of   2)              ... done ( 1099.290 sec)
   IBatch   2 (of   2)              ... done ( 1229.952 sec)
Total EXT                           ...        2329.242 sec

---------------------
RI-PNO TRANSFORMATION
---------------------

Total Number of PNOs                   ... 33860
Total Number of IJ-PNOs                ... 29704
Total Number of IP-PNOs                ...  3198
Total Number of PQ-PNOs                ...   958
Total Number of IJ-pairs               ...   939
Total Number of PI-pairs               ...   118
Total Number of PQ-pairs               ...    25
Average number of PNOs per pair        ...    31
Maximal number of PNOs per pair        ...    86
>> Statistics for ij-pairs..
   #pairs with  1 -  5 PNOs   :    0
   #pairs with  6 - 10 PNOs   :    0
   #pairs with 11 - 15 PNOs   :   72
   #pairs with 16 - 20 PNOs   :  212
   #pairs with 21 - 25 PNOs   :  148
   #pairs with 26 - 30 PNOs   :  152
   #pairs with 31 - 35 PNOs   :   60
   #pairs with 36 - 40 PNOs   :   56
   #pairs with 41 - 45 PNOs   :   42
   #pairs with 46 - 50 PNOs   :   30
   #pairs with 51 - 55 PNOs   :   30
   #pairs with 56 - 60 PNOs   :   61
   #pairs with 61 - 65 PNOs   :   71
   #pairs with 66 - 70 PNOs   :    2
   #pairs with 71 - 75 PNOs   :    1
   #pairs with 81 - 85 PNOs   :    2
>> Statistics for ip-pairs..
   #pairs with  1 -  5 PNOs   :    0
   #pairs with  6 - 10 PNOs   :    4
   #pairs with 11 - 15 PNOs   :   14
   #pairs with 16 - 20 PNOs   :    3
   #pairs with 21 - 25 PNOs   :   28
   #pairs with 26 - 30 PNOs   :   11
   #pairs with 31 - 35 PNOs   :   44
   #pairs with 36 - 40 PNOs   :   13
   #pairs with 41 - 45 PNOs   :    1
   #pairs with 46 - 50 PNOs   :    0
>> Statistics for pq-pairs..
   #pairs with  1 -  5 PNOs   :    0
   #pairs with  6 - 10 PNOs   :    0
   #pairs with 11 - 15 PNOs   :    0
   #pairs with 16 - 20 PNOs   :    0
   #pairs with 21 - 25 PNOs   :   10
   #pairs with 26 - 30 PNOs   :   10
   #pairs with 31 - 35 PNOs   :    0
   #pairs with 36 - 40 PNOs   :    0
   #pairs with 41 - 45 PNOs   :    0
   #pairs with 46 - 50 PNOs   :    0
   #pairs with 86 - 90 PNOs   :    5

Generation of (ij|ab)[P] integrals            ... on
Generation of (ia|bc)[P],(ja|bc)[P] integrals ... on
Storage of 3 and 4 external integrals         ... on
Generation of ALL (ka|bc)[P] integrals        ... on
Keep RI integrals in memory                   ... off

Ibatch:  1 (of  1)
Starting 2-4 index PNO integral generation ... done

Timings:
Total PNO integral transformation time     ...       2271.881 sec
Size of the 3-external file                ...       285 MB
Size of the 4-external file                ...      1948 MB
Size of the IKJL file                      ...        17 MB
Size of the all 3-external file            ...      6862 MB
Size of the 1-external file                ...        21 MB

Size of the PAO/PNO coefficient matrices   ...     215.1 MB

Making pair/pair overlap matrices          ... done (  350.926 sec)
Size of the pair overlap file              ...    2377.0 MB
Total # unrestricted pairs ...       2081
  # of alpha-alpha pairs   ...        576
  # of alpha-beta pairs    ...       1057
  # of beta-beta pairs     ...        448
Constructing the guess amplitudes          ... done (    0.689 sec)

-------------------------
FINAL STARTUP INFORMATION
-------------------------

E(0)                                       ...  -3028.446028369
E(SL-UMP2 in NEV-PNO space)                ...     -2.687263672
Initial E(tot)                             ...  -3031.133292040
<T|T>                                      ...      0.535028292
Number of unrestricted pairs included      ... 2081
Total number of pairs                      ... 4095
----------------------------------------------------------
                     OPEN-SHELL COUPLED CLUSTER ITERATIONS
----------------------------------------------------------

Number of PNO amplitudes to be optimized        ...          2089578
Number of canonical amplitudes for strong pairs ...       1879557927
Untruncated number of canonical amplitudes      ...       3698645738

Iter       E(tot)           E(Corr)          Delta-E          Residual     Time
  0  -3031.140480928     -2.658415929      0.028847743      0.020694303 1824.91
                           *** Turning on DIIS ***
  1  -3031.253932556     -2.771867557     -0.113451628      0.009191423 1831.33
  2  -3031.318643425     -2.836578426     -0.064710869      0.008261197 1857.77
  3  -3031.340212292     -2.858147292     -0.021568866      0.003208096 1865.35
  4  -3031.347631467     -2.865566468     -0.007419175      0.002652353 1882.69
  5  -3031.351666026     -2.869601027     -0.004034559      0.001526213 1898.21
  6  -3031.353143849     -2.871078850     -0.001477824      0.000836431 1906.71
  7  -3031.353796946     -2.871731947     -0.000653097      0.000505320 1879.76
  8  -3031.353938879     -2.871873880     -0.000141932      0.000268227 1834.51
  9  -3031.353997477     -2.871932477     -0.000058598      0.000176860 1833.26
 10  -3031.353996067     -2.871931068      0.000001410      0.000112992 1851.55
 11  -3031.354008812     -2.871943812     -0.000012745      0.000073391 1829.53
 12  -3031.354013362     -2.871948363     -0.000004550      0.000037668 1853.12
 13  -3031.354015666     -2.871950667     -0.000002305      0.000017006 1665.85
 14  -3031.354017148     -2.871952149     -0.000001481      0.000005868 1631.80
               --- The CCSD iterations have converged ---

E(0)                                       ...  -3028.446028369
E(CORR)(strong-pairs)                      ...     -2.871952149
E(CORR)(weak-pairs)                        ...     -0.036036630
E(CORR)(corrected)                         ...     -2.907988779
E(TOT)                                     ...  -3031.354017148
Singles norm <S|S>**1/2                    ...      0.194214622 ( 0.065207593, 0.129007029)  
T1 diagnostic                              ...      0.020359224                              
<S**2>(linearized)                         ...      8.7508122 (ideal value:      8.7500000)

----------------------
LARGEST PNO AMPLITUDES
----------------------
  50b-> 76b  -1b-> -1b       0.054486
  48b-> 72b  -1b-> -1b       0.053730
  51b-> 76b  -1b-> -1b       0.053356
  71a-> 78a  71b-> 78b       0.053296
  71a-> 77a  71b-> 77b       0.050832
  48b-> 75b  -1b-> -1b       0.047241
  48b-> 74b  -1b-> -1b       0.045934
  65a-> 77a  65b-> 77b       0.045387
  61a-> 77a  61b-> 77b       0.044559
  54a-> 77a  54b-> 77b       0.044140
  69a-> 77a  69b-> 77b       0.044067
  55a-> 78a  55b-> 78b       0.043513
  57a-> 77a  57b-> 77b       0.043236
  44a-> 77a  -1a-> -1a       0.043186
  63a-> 77a  63b-> 77b       0.042912
  44b-> 77b  -1b-> -1b       0.042862

Total # unrestricted pairs ...       1192
  # of alpha-alpha pairs   ...        326
  # of alpha-beta pairs    ...        596
  # of beta-beta pairs     ...        270

-------------------------------------------
DLPNO BASED TRIPLES CORRECTION
-------------------------------------------

Singles multiplier          ...  1.000000
Fragment selection                          .... not used
TCutTNO                     ... 1.000e-09
TCutMP2Pairs                ... 1.000e-05
TCutDOStrong                ... 2.000e-02
TCutMKNStrong               ... 1.000e-02
TCutDOWeak                  ... 4.000e-02
TCutMKNWeak                 ... 1.000e-01
NTCutTNO                    ... 1

Number of Triples that are to be computed         ...     32972

 . . . . . . . . .
10% done  
20% done  
30% done  
40% done  
50% done  
60% done  
70% done  
80% done  
90% done  
          Batch   1   done (  15221.329 sec)

Triples-Correction TCutTNO=   1.000e-09 (NWeakPairs = 0  1  2  3)  -0.117382800453   -0.001963820043    0.000000000000    0.000000000000
Triples-Correction  -0.119346620496

Triples timings:
Total time                      ... 15883.138 sec

Triples List generation         ...     0.000 sec
TNO generation                  ...   661.558 sec
Pair density generation         ...     0.089 sec
Look up tables                  ...     0.117 sec
Generating 3-index integrals    ...  9264.396 sec
Make 4-ind.int. from 3-ind.int  ...     3.600 sec
Projecting amplitudes (D + S)   ...  5673.003 sec
Sorting integrals for spin cases...    56.735 sec
Calculate W0/W1                 ...   182.441 sec
Energy contr. (sum over a,b,c)  ...    41.004 sec

Everything after 3-index        ...  6088.838 sec

Energy contribution AAA         ...    27.238 sec
Energy contribution AAB         ...   124.059 sec
Energy contribution ABB         ...   113.374 sec
Energy contribution BBB         ...    15.555 sec
prep                ...     3.403 sec
makeTTNO            ...  5615.263 sec
copyij              ...     0.133 sec
copyil              ...     4.203 sec
transposeij         ...     0.082 sec
newMatInDoubleProj  ...    54.195 sec
BlasInDoubleProj    ...  3132.051 sec
ProjSingles         ...    47.518 sec
ProjDoubles         ...  5625.484 sec
overall Doubles for projection      ... 2947183
used Doubles for projection         ... 2947183


Number of Triples   (0, 1, 2, 3 weak pairs; overall):  15417   11879       0       0  ( 27296)
Number of Atoms     (0, 1, 2, 3 weak pairs; overall):   19.3    14.4     0.0     0.0  (    29)
Number of PAOs      (0, 1, 2, 3 weak pairs; overall):  754.9   576.3     0.0     0.0  (  1025)
Number of AuxFcns   (0, 1, 2, 3 weak pairs; overall):  848.6   567.0     0.0     0.0  (  2424)
Number of TNOs (0, 1, 2, 3 weak pairs         ):   79.4    56.4     0.0     0.0
Aver. Number of NTNO, Atoms, PAOs, AuxFcns / Triples:  27296    69.4    17.2   677.1   726.0

Triples Correction (T)                     ...     -0.119346620
    alpha-alpha-alpha ... -0.003860665 (  3.2%)
    alpha-alpha-beta  ... -0.056047310 ( 47.0%)
    alpha-beta -beta  ... -0.055340505 ( 46.4%)
    beta -beta -beta  ... -0.004098141 (  3.4%)
Final correlation energy                   ...     -3.027335399
E(CCSD)                                    ...  -3031.354017148
E(CCSD(T))                                 ...  -3031.473363768

----------------------------
STATISTICS FOR PAIR-ENERGIES
----------------------------
Minimum, maximum and average ratios of UMP and CCSD pair-energies ... 0.34, 1.44, 1.02


------------------------------------------------------------------------------- 
                                     TIMINGS                                   
------------------------------------------------------------------------------- 


Total execution time                   ...    51588.019 sec

Localization of occupied MO's          ...       10.268 sec (  0.0%)
Fock Matrix Formation                  ...     1440.166 sec (  2.8%)
Differential overlap integrals         ...        1.545 sec (  0.0%)
Organizing maps                        ...        1.673 sec (  0.0%)
RI 3-index integral generations        ...      278.926 sec (  0.5%)
RI-PNO integral transformation         ...     5001.835 sec (  9.7%)
Initial Guess                          ...     1807.965 sec (  3.5%)
DIIS Solver                            ...       16.051 sec (  0.0%)
State Vector Update                    ...        0.881 sec (  0.0%)
Sigma-vector construction              ...    27446.328 sec ( 53.2%)
  <0|H|D>                              ...        0.031 sec (  0.0% of sigma)
  <D|H|D>(0-ext)                       ...     5067.875 sec ( 18.5% of sigma)
  <D|H|D>(2-ext Fock)                  ...        1.349 sec (  0.0% of sigma)
  <D|H|D>(2-ext)                       ...     3691.001 sec ( 13.4% of sigma)
  <D|H|D>(4-ext)                       ...      162.959 sec (  0.6% of sigma)
  <D|H|D>(4-ext-corr)                  ...     1000.616 sec (  3.6% of sigma)
  CCSD doubles correction              ...      465.872 sec (  1.7% of sigma)
  <S|H|S>                              ...      711.108 sec (  2.6% of sigma)
  <S|H|D>(1-ext)                       ...      274.355 sec (  1.0% of sigma)
  <D|H|S>(1-ext)                       ...        0.793 sec (  0.0% of sigma)
  <S|H|D>(3-ext)                       ...       22.405 sec (  0.1% of sigma)
  CCSD singles correction              ...        0.005 sec (  0.0% of sigma)
  Fock-dressing                        ...     7859.805 sec ( 28.6% of sigma)
  Singles amplitudes                   ...      110.744 sec (  0.4% of sigma)
  (ik|jl)-dressing                     ...     6521.436 sec ( 23.8% of sigma)
  (ij|ab),(ia|jb)-dressing             ...     1388.045 sec (  5.1% of sigma)
  Pair energies                        ...        0.166 sec (  0.0% of sigma)
Total Time for computing (T)           ...    15920.073 sec ( 30.9% of ALL)


-------------------------   --------------------
FINAL SINGLE POINT ENERGY     -3031.473363768253
-------------------------   --------------------


                            ***************************************
                            *     ORCA property calculations      *
                            ***************************************

                                    ---------------------
                                    Active property flags
                                    ---------------------
   (+) Dipole Moment


------------------------------------------------------------------------------
                       ORCA ELECTRIC PROPERTIES CALCULATION
------------------------------------------------------------------------------

Dipole Moment Calculation                       ... on
Quadrupole Moment Calculation                   ... off
Polarizability Calculation                      ... off
GBWName                                         ... simple-grid-230-280-b3lyp_d3bj-631gd-gas-singlepoint-DLPNO_CCSD_T1-NormalPNO-augtz-gas.gbw
Electron density file                           ... simple-grid-230-280-b3lyp_d3bj-631gd-gas-singlepoint-DLPNO_CCSD_T1-NormalPNO-augtz-gas.scfp.tmp
The origin for moment calculation is the CENTER OF MASS  = ( 0.313393,  0.041838  0.011042)

-------------
DIPOLE MOMENT
-------------
                                X             Y             Z
Electronic contribution:     42.80340       5.17768       1.09854
Nuclear contribution   :    -46.69550      -6.23385      -1.64535
                        -----------------------------------------
Total Dipole Moment    :     -3.89210      -1.05617      -0.54681
                        -----------------------------------------
Magnitude (a.u.)       :      4.06976
Magnitude (Debye)      :     10.34451



--------------------
Rotational spectrum 
--------------------
 
Rotational constants in cm-1:     0.019119     0.010865     0.010226 
Rotational constants in MHz :   573.165048   325.728551   306.569940 

 Dipole components along the rotational axes: 
x,y,z [a.u.] :    -3.886990     1.047990    -0.596643 
x,y,z [Debye]:    -9.879943     2.663779    -1.516546 

 

Timings for individual modules:

Sum of individual times         ...    67997.686 sec (=1133.295 min)
GTO integral calculation        ...       12.097 sec (=   0.202 min)   0.0 %
SCF iterations                  ...    16380.273 sec (= 273.005 min)  24.1 %
MDCI module                     ...    51605.315 sec (= 860.089 min)  75.9 %
                             ****ORCA TERMINATED NORMALLY****
TOTAL RUN TIME: 0 days 18 hours 53 minutes 20 seconds 175 msec
