
                                 *****************
                                 * O   R   C   A *
                                 *****************

           --- An Ab Initio, DFT and Semiempirical electronic structure package ---

                  #######################################################
                  #                        -***-                        #
                  #          Department of theory and spectroscopy      #
                  #               Directorship: Frank Neese             #
                  #        Max Planck Institute fuer Kohlenforschung    #
                  #                Kaiser Wilhelm Platz 1               #
                  #                 D-45470 Muelheim/Ruhr               #
                  #                      Germany                        #
                  #                                                     #
                  #                  All rights reserved                #
                  #                        -***-                        #
                  #######################################################


                         Program Version 4.1.2  - RELEASE  -


 With contributions from (in alphabetic order):
   Daniel Aravena         : Magnetic Properties
   Michael Atanasov       : Ab Initio Ligand Field Theory
   Alexander A. Auer      : GIAO ZORA
   Ute Becker             : Parallelization
   Giovanni Bistoni       : ED, Open-shell LED
   Martin Brehm           : Molecular dynamics
   Dmytro Bykov           : SCF Hessian
   Vijay G. Chilkuri      : MRCI spin determinant printing
   Dipayan Datta          : RHF DLPNO-CCSD density
   Achintya Kumar Dutta   : EOM-CC, STEOM-CC
   Dmitry Ganyushin       : Spin-Orbit,Spin-Spin,Magnetic field MRCI
   Miquel Garcia          : C-PCM Hessian
   Yang Guo               : DLPNO-NEVPT2, CIM, IAO-localization
   Andreas Hansen         : Spin unrestricted coupled pair/coupled cluster methods
   Benjamin Helmich-Paris : CASSCF linear response (MC-RPA)
   Lee Huntington         : MR-EOM, pCC
   Robert Izsak           : Overlap fitted RIJCOSX, COSX-SCS-MP3, EOM
   Christian Kollmar      : KDIIS, OOCD, Brueckner-CCSD(T), CCSD density
   Simone Kossmann        : Meta GGA functionals, TD-DFT gradient, OOMP2, MP2 Hessian
   Martin Krupicka        : AUTO-CI
   Lucas Lang             : DCDCAS
   Dagmar Lenk            : GEPOL surface, SMD
   Dimitrios Liakos       : Extrapolation schemes; parallel MDCI
   Dimitrios Manganas     : ROCIS; embedding schemes
   Dimitrios Pantazis     : SARC Basis sets
   Taras Petrenko         : DFT Hessian,TD-DFT gradient, ASA, ECA, R-Raman, ABS, FL, XAS/XES, NRVS
   Peter Pinski           : DLPNO-MP2, DLPNO-MP2 Gradient
   Christoph Reimann      : Effective Core Potentials
   Marius Retegan         : Local ZFS, SOC
   Christoph Riplinger    : Optimizer, TS searches, QM/MM, DLPNO-CCSD(T), (RO)-DLPNO pert. Triples
   Tobias Risthaus        : Range-separated hybrids, TD-DFT gradient, RPA, STAB
   Michael Roemelt        : Restricted open shell CIS
   Masaaki Saitow         : Open-shell DLPNO
   Barbara Sandhoefer     : DKH picture change effects
   Avijit Sen             : IP-ROCIS
   Kantharuban Sivalingam : CASSCF convergence, NEVPT2, FIC-MRCI
   Bernardo de Souza      : ESD, SOC TD-DFT
   Georgi Stoychev        : AutoAux, RI-MP2 NMR
   Willem Van den Heuvel  : Paramagnetic NMR
   Boris Wezisla          : Elementary symmetry handling
   Frank Wennmohs         : Technical directorship


 We gratefully acknowledge several colleagues who have allowed us to
 interface, adapt or use parts of their codes:
   Stefan Grimme, W. Hujo, H. Kruse,             : VdW corrections, initial TS optimization,
                  C. Bannwarth                     DFT functionals, gCP, sTDA/sTD-DF
   Ed Valeev                                     : LibInt (2-el integral package), F12 methods
   Garnet Chan, S. Sharma, J. Yang, R. Olivares  : DMRG
   Ulf Ekstrom                                   : XCFun DFT Library
   Mihaly Kallay                                 : mrcc  (arbitrary order and MRCC methods)
   Andreas Klamt, Michael Diedenhofen            : otool_cosmo (COSMO solvation model)
   Jiri Pittner, Ondrej Demel                    : Mk-CCSD
   Frank Weinhold                                : gennbo (NPA and NBO analysis)
   Christopher J. Cramer and Donald G. Truhlar   : smd solvation model
   Lars Goerigk                                  : TD-DFT with DH, B97 family of functionals
   V. Asgeirsson, H. Jonsson                     : NEB implementation
   FAccTs GmbH                                   : IRC, NEB, NEB-TS, Multilevel


 Your calculation uses the libint2 library for the computation of 2-el integrals
 For citations please refer to: http://libint.valeyev.net

 This ORCA versions uses:
   CBLAS   interface :  Fast vector & matrix operations
   LAPACKE interface :  Fast linear algebra routines
   SCALAPACK package :  Parallel linear algebra routines


----- Orbital basis set information -----
Your calculation utilizes the basis: aug-cc-pVTZ 
    H, B-Ne : Obtained from the ccRepo (grant-hill.group.shef.ac.uk/ccrepo) Feb. 2017
              R. A. Kendall, T. H. Dunning, Jr., R. J. Harrison, J. Chem. Phys. 96, 6796 (1992)
         He : Obtained from the ccRepo (grant-hill.group.shef.ac.uk/ccrepo) Feb. 2017
              D. E. Woon, T. H. Dunning, Jr., J. Chem. Phys. 100, 2975 (1994)
  Li-Be, Na : Obtained from the ccRepo (grant-hill.group.shef.ac.uk/ccrepo) Feb. 2017
              B. P. Prascher, D. E. Woon, K. A. Peterson, T. H. Dunning, Jr., A. K. Wilson, Theor. Chem. Acc. 128, 69 (2011)
         Mg : Obtained from the Peterson Research Group Website (tyr0.chem.wsu.edu/~kipeters) Feb. 2017
              B. P. Prascher, D. E. Woon, K. A. Peterson, T. H. Dunning, Jr., A. K. Wilson, Theor. Chem. Acc. 128, 69 (2011)
      Al-Ar : Obtained from the ccRepo (grant-hill.group.shef.ac.uk/ccrepo) Feb. 2017
              D. E. Woon, T. H. Dunning, Jr., J. Chem. Phys. 98, 1358 (1993)
      Sc-Zn : Obtained from the ccRepo (grant-hill.group.shef.ac.uk/ccrepo) Feb. 2017
              N. B. Balabanov, K. A. Peterson, J. Chem. Phys. 123, 064107 (2005)
              N. B. Balabanov, K. A. Peterson, J. Chem. Phys. 125, 074110 (2006)
      Ga-Kr : Obtained from the ccRepo (grant-hill.group.shef.ac.uk/ccrepo) Feb. 2017
              A. K. Wilson, D. E. Woon, K. A. Peterson, T. H. Dunning, Jr., J. Chem. Phys. 110, 7667 (1999)
     Ag, Au : Obtained from the Peterson Research Group Website (tyr0.chem.wsu.edu/~kipeters) Feb. 2017
              K. A. Peterson, C. Puzzarini, Theor. Chem. Acc. 114, 283 (2005)

----- AuxJ basis set information -----
Your calculation utilizes the AutoAux generation procedure.
  G. L. Stoychev, A. A. Auer, F. Neese, J. Chem. Theory Comput. 13, 554 (2017)

----- AuxC basis set information -----
Your calculation utilizes the auxiliary basis: aug-cc-pVTZ/C 
  H-He, B-F, Al-Ar, Ga-Kr : Obtained from the EMSL Basis Set Exchange (bse.pnl.gov) Feb. 2017
                            F. Weigend, A. Kohn, C. Hattig, J. Chem. Phys. 116, 3175 (2002)
                   Be, Mg : Obtained from the TURBOMOLE 7.0 basis set library
                            C. Haettig, Phys. Chem. Chem. Phys. 7, 59 (2005)
                       Ne : Obtained from the EMSL Basis Set Exchange (bse.pnl.gov) Feb. 2017
                            C. Haettig, Phys. Chem. Chem. Phys. 7, 59 (2005)
                            F. Weigend, A. Kohn, C. Hattig, J. Chem. Phys. 116, 3175 (2002)
                    Sc-Zn : Obtained from the EMSL Basis Set Exchange (bse.pnl.gov) Feb. 2017
                            J. G. Hill, J. A. Platts, J. Chem. Phys. 128, 044104 (2008)

----- AuxJK basis set information -----
Your calculation utilizes the AutoAux generation procedure.
  G. L. Stoychev, A. A. Auer, F. Neese, J. Chem. Theory Comput. 13, 554 (2017)

================================================================================
                                        WARNINGS
                       Please study these warnings very carefully!
================================================================================


WARNING: your system is open-shell and RHF/RKS was chosen
  ===> : WILL SWITCH to UHF/UKS


WARNING: MDCI localization with Augmented Hessian Foster-Boys
  ===> : Switching off randomization!

WARNING: Post HF methods need fully converged wavefunctions
  ===> : Setting SCFConvForced true
         You can overwrite this default with %scf ConvForced false 


INFO   : the flag for use of LIBINT has been found!

================================================================================
                                       INPUT FILE
================================================================================
NAME = simple-grid-185-295-b3lyp_d3bj-631gd-gas-singlepoint-DLPNO_CCSD_T1-NormalPNO-augtz-gas.inp
|  1> ! aug-cc-pVTZ aug-cc-pVTZ/C DLPNO-CCSD(T1) TightSCF NormalPNO UNO MiniPrint AutoAux
|  2> %pal nproc 10 end
|  3> %maxcore 20000
|  4> %mdci
|  5>      density none
|  6> end
|  7> 
|  8> * xyz 0 6
|  9>  O     -0.29427300     -0.12205700     -0.41988400
| 10>  C     -1.20457500     -1.05112800     -0.17299100
| 11>  C     -2.55196800     -0.27632200      0.83035900
| 12>  C     -3.12030700      0.64788500     -0.06892500
| 13>  C     -4.29338800      0.30562800     -0.91487400
| 14> Fe      1.54157300      0.16856600     -0.10334700
| 15> Cl      1.89399500      2.13055100     -1.02705800
| 16>  C     -2.44035000      1.93622000     -0.29365800
| 17> Cl      2.52756300     -1.54936500     -1.06327300
| 18> Cl      1.86779900      0.20049500      2.08246000
| 19>  H     -3.18901500     -1.14404400      1.00796200
| 20>  H     -2.93601800      2.57346700     -1.02784500
| 21>  H     -2.27336200      2.48729300      0.63821600
| 22>  H     -1.41970600      1.66988300     -0.64725000
| 23>  H     -5.12361300      0.96588100     -0.62127600
| 24>  H     -4.09649300      0.52352600     -1.97203800
| 25>  H     -4.61851200     -0.72982200     -0.80097900
| 26>  C     -1.87264600      0.26822800      2.08606000
| 27>  H     -2.52647000      0.98949000      2.58769200
| 28>  H     -1.66902800     -0.53842800      2.79111800
| 29>  H     -0.92412000      0.75682600      1.85757300
| 30>  C     -0.73958400     -2.15865200      0.77815400
| 31>  H     -1.55479200     -2.82706400      1.06726500
| 32>  H      0.00991900     -2.73706100      0.22502700
| 33>  H     -0.25079100     -1.75458800      1.66444400
| 34>  C     -1.81864100     -1.61284100     -1.45228300
| 35>  H     -1.05006100     -2.22554500     -1.93536500
| 36>  H     -2.69077600     -2.24400700     -1.25697900
| 37>  H     -2.08419500     -0.81475300     -2.14871300
| 38> *
| 39> 
| 40> 
| 41>                          ****END OF INPUT****
================================================================================

                       ****************************
                       * Single Point Calculation *
                       ****************************

---------------------------------
CARTESIAN COORDINATES (ANGSTROEM)
---------------------------------
  O     -0.294273   -0.122057   -0.419884
  C     -1.204575   -1.051128   -0.172991
  C     -2.551968   -0.276322    0.830359
  C     -3.120307    0.647885   -0.068925
  C     -4.293388    0.305628   -0.914874
  Fe     1.541573    0.168566   -0.103347
  Cl     1.893995    2.130551   -1.027058
  C     -2.440350    1.936220   -0.293658
  Cl     2.527563   -1.549365   -1.063273
  Cl     1.867799    0.200495    2.082460
  H     -3.189015   -1.144044    1.007962
  H     -2.936018    2.573467   -1.027845
  H     -2.273362    2.487293    0.638216
  H     -1.419706    1.669883   -0.647250
  H     -5.123613    0.965881   -0.621276
  H     -4.096493    0.523526   -1.972038
  H     -4.618512   -0.729822   -0.800979
  C     -1.872646    0.268228    2.086060
  H     -2.526470    0.989490    2.587692
  H     -1.669028   -0.538428    2.791118
  H     -0.924120    0.756826    1.857573
  C     -0.739584   -2.158652    0.778154
  H     -1.554792   -2.827064    1.067265
  H      0.009919   -2.737061    0.225027
  H     -0.250791   -1.754588    1.664444
  C     -1.818641   -1.612841   -1.452283
  H     -1.050061   -2.225545   -1.935365
  H     -2.690776   -2.244007   -1.256979
  H     -2.084195   -0.814753   -2.148713

----------------------------
CARTESIAN COORDINATES (A.U.)
----------------------------
  NO LB      ZA    FRAG     MASS         X           Y           Z
   0 O     8.0000    0    15.999   -0.556095   -0.230654   -0.793466
   1 C     6.0000    0    12.011   -2.276317   -1.986344   -0.326906
   2 C     6.0000    0    12.011   -4.822521   -0.522173    1.569151
   3 C     6.0000    0    12.011   -5.896526    1.224325   -0.130249
   4 C     6.0000    0    12.011   -8.113328    0.577553   -1.728861
   5 Fe   26.0000    0    55.850    2.913151    0.318544   -0.195298
   6 Cl   17.0000    0    35.453    3.579132    4.026158   -1.940858
   7 C     6.0000    0    12.011   -4.611593    3.658926   -0.554933
   8 Cl   17.0000    0    35.453    4.776402   -2.927876   -2.009295
   9 Cl   17.0000    0    35.453    3.529629    0.378881    3.935279
  10 H     1.0000    0     1.008   -6.026365   -2.161930    1.904772
  11 H     1.0000    0     1.008   -5.548270    4.863148   -1.942346
  12 H     1.0000    0     1.008   -4.296032    4.700303    1.206053
  13 H     1.0000    0     1.008   -2.682856    3.155622   -1.223125
  14 H     1.0000    0     1.008   -9.682225    1.825251   -1.174041
  15 H     1.0000    0     1.008   -7.741250    0.989321   -3.726612
  16 H     1.0000    0     1.008   -8.727723   -1.379164   -1.513631
  17 C     6.0000    0    12.011   -3.538788    0.506877    3.942082
  18 H     1.0000    0     1.008   -4.774336    1.869865    4.890029
  19 H     1.0000    0     1.008   -3.154006   -1.017481    5.274449
  20 H     1.0000    0     1.008   -1.746334    1.430194    3.510304
  21 C     6.0000    0    12.011   -1.397611   -4.079261    1.470498
  22 H     1.0000    0     1.008   -2.938131   -5.342377    2.016839
  23 H     1.0000    0     1.008    0.018744   -5.172296    0.425239
  24 H     1.0000    0     1.008   -0.473926   -3.315691    3.145343
  25 C     6.0000    0    12.011   -3.436733   -3.047828   -2.744417
  26 H     1.0000    0     1.008   -1.984328   -4.205671   -3.657310
  27 H     1.0000    0     1.008   -5.084830   -4.240559   -2.375346
  28 H     1.0000    0     1.008   -3.938558   -1.539660   -4.060479



           ************************************************************
           *        Program running with 10 parallel MPI-processes    *
           *              working on a common directory               *
           ************************************************************


           ************************************************************
           *        Program running with 10 parallel MPI-processes    *
           *              working on a common directory               *
           ************************************************************

Diagonalization of the overlap matrix:
Smallest eigenvalue                        ... 6.849e-07
Time for diagonalization                   ...    0.333 sec
Threshold for overlap eigenvalues          ... 1.000e-08
Number of eigenvalues below threshold      ... 0
Time for construction of square roots      ...    0.290 sec
Total time needed                          ...    0.629 sec

-------------------
DFT GRID GENERATION
-------------------

General Integration Accuracy     IntAcc      ...  4.340
Radial Grid Type                 RadialGrid  ... Gauss-Chebyshev
Angular Grid (max. acc.)         AngularGrid ... Lebedev-110
Angular grid pruning method      GridPruning ... 3 (G Style)
Weight generation scheme         WeightScheme... Becke
Basis function cutoff            BFCut       ...    1.0000e-11
Integration weight cutoff        WCut        ...    1.0000e-14
Grids for H and He will be reduced by one unit

# of grid points (after initial pruning)     ...  36112 (   0.0 sec)
# of grid points (after weights+screening)   ...  32352 (   0.1 sec)
nearest neighbour list constructed           ...    0.0 sec
Grid point re-assignment to atoms done       ...    0.0 sec
Grid point division into batches done        ...    0.0 sec
Reduced shell lists constructed in    0.3 sec

Total number of grid points                  ...    32352
Total number of batches                      ...      520
Average number of points per batch           ...       62
Average number of grid points per atom       ...     1116
Average number of shells per batch           ...   292.91 (85.40%)
Average number of basis functions per batch  ...   869.70 (84.85%)
Average number of large shells per batch     ...   240.21 (82.01%)
Average number of large basis fcns per batch ...   713.64 (82.06%)
Maximum spatial batch extension              ...   3.02,  3.42,  3.85 au
Average spatial batch extension              ...   0.17,  0.18,  0.18 au

Time for grid setup =    0.369 sec

Loading Hartree-Fock densities                     ... done
Calculating cut-offs                               ... done
Setting up the integral package                    ... done
Initializing the effective Hamiltonian             ... done
Starting the Coulomb interaction                   ... done (   1.1 sec)
Reading the grid                                   ... done
Mapping shells                                     ... done
Starting the XC term evaluation                    ... done (   0.8 sec)
Transforming the Hamiltonian                       ... done (   0.2 sec)
Diagonalizing the Hamiltonian                      ... done (   0.3 sec)
Back transforming the eigenvectors                 ... done (   0.1 sec)
Now organizing SCF variables                       ... done
--------------
SCF ITERATIONS
--------------
ITER       Energy         Delta-E        Max-DP      RMS-DP      [F,P]     Damp
               ***  Starting incremental Fock matrix formation  ***
  0  -3027.5512604613   0.000000000000 0.29009828  0.00105047  0.2781657 0.7000
  1  -3027.8036822469  -0.252421785635 0.22303811  0.00082926  0.1631002 0.7000
                               ***Turning on DIIS***
  2  -3027.9730574484  -0.169375201515 0.15879534  0.00061291  0.1097791 0.7000
  3  -3029.6028431431  -1.629785694632 0.34871962  0.00153703  0.0823541 0.0000
  4  -3028.2869040993   1.315939043765 0.04845219  0.00021665  0.0206134 0.0000
  5  -3028.4011702011  -0.114266101747 0.04048736  0.00017123  0.0116268 0.0000
  6  -3028.4386966469  -0.037526445847 0.02162836  0.00007219  0.0057350 0.0000
  7  -3028.4586763649  -0.019979717976 0.00919858  0.00003428  0.0034291 0.0000
  8  -3028.4492740958   0.009402269090 0.00584511  0.00001923  0.0015033 0.0000
  9  -3028.4430626855   0.006211410253 0.00325444  0.00001177  0.0007071 0.0000
 10  -3028.4332658763   0.009796809252 0.00083428  0.00000364  0.0003383 0.0000
 11  -3028.4373229589  -0.004057082655 0.00044415  0.00000248  0.0001211 0.0000
 12  -3028.4339225935   0.003400365462 0.00033815  0.00000227  0.0000354 0.0000
 13  -3028.4345127960  -0.000590202519 0.00123260  0.00000244  0.0000153 0.0000
 14  -3028.4346383386  -0.000125542562 0.00024074  0.00000234  0.0000099 0.0000
 15  -3028.4345368182   0.000101520333 0.00151466  0.00000317  0.0000089 0.0000
 16  -3028.4346029299  -0.000066111656 0.00075171  0.00000271  0.0000077 0.0000
 17  -3028.4345244934   0.000078436472 0.00300563  0.00000561  0.0000067 0.0000
 18  -3028.4345431061  -0.000018612652 0.00090905  0.00000355  0.0000050 0.0000
 19  -3028.4346024107  -0.000059304654 0.00074150  0.00000187  0.0000032 0.0000
               *** Restarting incremental Fock matrix formation ***
                                   *** Resetting DIIS ***
 20  -3028.4346279132  -0.000025502488 0.00702544  0.00001282  0.0000023 0.0000
 21  -3028.4346266749   0.000001238341 0.00152278  0.00000308  0.0000021 0.0000
 22  -3028.4346172408   0.000009434018 0.00167516  0.00000275  0.0000019 0.0000
 23  -3028.4346239265  -0.000006685614 0.00200920  0.00000364  0.0000018 0.0000
 24  -3028.4346244084  -0.000000481943 0.00314850  0.00000613  0.0000016 0.0000
 25  -3028.4346211160   0.000003292442 0.00155584  0.00000387  0.0000013 0.0000
                            ***DIIS convergence achieved***

               *****************************************************
               *                     SUCCESS                       *
               *           SCF CONVERGED AFTER  26 CYCLES          *
               *****************************************************

Total Energy       :        -3028.43462108 Eh          -82407.89558 eV
  Last Energy change         ...    3.4631e-08  Tolerance :   1.0000e-08
  Last MAX-Density change    ...    3.3350e-04  Tolerance :   1.0000e-07
             **** THE GBW FILE WAS UPDATED (simple-grid-185-295-b3lyp_d3bj-631gd-gas-singlepoint-DLPNO_CCSD_T1-NormalPNO-augtz-gas.gbw) ****
             **** DENSITY FILE WAS UPDATED (simple-grid-185-295-b3lyp_d3bj-631gd-gas-singlepoint-DLPNO_CCSD_T1-NormalPNO-augtz-gas.scfp.tmp) ****
             **** ENERGY FILE WAS UPDATED (simple-grid-185-295-b3lyp_d3bj-631gd-gas-singlepoint-DLPNO_CCSD_T1-NormalPNO-augtz-gas.en.tmp) ****
----------------------
UHF SPIN CONTAMINATION
----------------------

Expectation value of <S**2>     :     8.764558
Ideal value S*(S+1) for S=2.5   :     8.750000
Deviation                       :     0.014558

----------------
ORBITAL ENERGIES
----------------
                 SPIN UP ORBITALS
  NO   OCC          E(Eh)            E(eV) 
   0   1.0000    -261.544142     -7116.9779 
   1   1.0000    -104.770022     -2850.9372 
   2   1.0000    -104.767832     -2850.8776 
   3   1.0000    -104.766971     -2850.8542 
   4   1.0000     -32.212039      -876.5341 
   5   1.0000     -27.688067      -753.4306 
   6   1.0000     -27.687634      -753.4188 
   7   1.0000     -27.687475      -753.4145 
   8   1.0000     -20.550950      -559.2198 
   9   1.0000     -11.379235      -309.6447 
  10   1.0000     -11.371302      -309.4289 
  11   1.0000     -11.299353      -307.4710 
  12   1.0000     -11.285136      -307.0842 
  13   1.0000     -11.276010      -306.8358 
  14   1.0000     -11.251964      -306.1815 
  15   1.0000     -11.251632      -306.1725 
  16   1.0000     -11.242609      -305.9270 
  17   1.0000     -10.496671      -285.6290 
  18   1.0000     -10.494430      -285.5679 
  19   1.0000     -10.493602      -285.5454 
  20   1.0000      -7.963539      -216.6989 
  21   1.0000      -7.962728      -216.6768 
  22   1.0000      -7.962681      -216.6756 
  23   1.0000      -7.961247      -216.6365 
  24   1.0000      -7.960548      -216.6175 
  25   1.0000      -7.960466      -216.6153 
  26   1.0000      -7.960449      -216.6148 
  27   1.0000      -7.959697      -216.5944 
  28   1.0000      -7.959613      -216.5921 
  29   1.0000      -4.567415      -124.2857 
  30   1.0000      -3.180089       -86.5346 
  31   1.0000      -3.179399       -86.5158 
  32   1.0000      -3.178971       -86.5042 
  33   1.0000      -1.386146       -37.7189 
  34   1.0000      -1.191932       -32.4341 
  35   1.0000      -1.080602       -29.4047 
  36   1.0000      -1.046672       -28.4814 
  37   1.0000      -1.041234       -28.3334 
  38   1.0000      -1.035903       -28.1884 
  39   1.0000      -1.033888       -28.1335 
  40   1.0000      -1.015907       -27.6442 
  41   1.0000      -0.975667       -26.5492 
  42   1.0000      -0.929140       -25.2832 
  43   1.0000      -0.911115       -24.7927 
  44   1.0000      -0.896830       -24.4040 
  45   1.0000      -0.896817       -24.4036 
  46   1.0000      -0.887817       -24.1587 
  47   1.0000      -0.887412       -24.1477 
  48   1.0000      -0.793452       -21.5909 
  49   1.0000      -0.769353       -20.9352 
  50   1.0000      -0.705300       -19.1922 
  51   1.0000      -0.692976       -18.8568 
  52   1.0000      -0.669858       -18.2278 
  53   1.0000      -0.658805       -17.9270 
  54   1.0000      -0.652818       -17.7641 
  55   1.0000      -0.634423       -17.2635 
  56   1.0000      -0.605934       -16.4883 
  57   1.0000      -0.600799       -16.3486 
  58   1.0000      -0.590697       -16.0737 
  59   1.0000      -0.582115       -15.8402 
  60   1.0000      -0.578029       -15.7290 
  61   1.0000      -0.563222       -15.3260 
  62   1.0000      -0.557948       -15.1825 
  63   1.0000      -0.540709       -14.7134 
  64   1.0000      -0.534620       -14.5478 
  65   1.0000      -0.522523       -14.2186 
  66   1.0000      -0.505214       -13.7476 
  67   1.0000      -0.468036       -12.7359 
  68   1.0000      -0.457165       -12.4401 
  69   1.0000      -0.444335       -12.0910 
  70   1.0000      -0.424631       -11.5548 
  71   1.0000      -0.420828       -11.4513 
  72   1.0000      -0.416784       -11.3413 
  73   1.0000      -0.408783       -11.1236 
  74   1.0000      -0.406891       -11.0721 
  75   1.0000      -0.406344       -11.0572 
  76   1.0000      -0.399953       -10.8833 
  77   0.0000       0.002767         0.0753 
  78   0.0000       0.003242         0.0882 
  79   0.0000       0.017535         0.4772 
  80   0.0000       0.018577         0.5055 
  81   0.0000       0.027350         0.7442 
  82   0.0000       0.037519         1.0209 
  83   0.0000       0.038521         1.0482 
  84   0.0000       0.040882         1.1125 
  85   0.0000       0.043806         1.1920 
  86   0.0000       0.048463         1.3187 
  87   0.0000       0.056714         1.5433 
  88   0.0000       0.058001         1.5783 
  89   0.0000       0.059875         1.6293 
  90   0.0000       0.062304         1.6954 
  91   0.0000       0.065424         1.7803 
  92   0.0000       0.072494         1.9727 
  93   0.0000       0.074870         2.0373 
  94   0.0000       0.081995         2.2312 
  95   0.0000       0.084947         2.3115 
  96   0.0000       0.088656         2.4125 
  97   0.0000       0.091672         2.4945 
  98   0.0000       0.092980         2.5301 
  99   0.0000       0.096574         2.6279 
 100   0.0000       0.101769         2.7693 
 101   0.0000       0.104447         2.8422 
 102   0.0000       0.114401         3.1130 
 103   0.0000       0.115450         3.1416 
 104   0.0000       0.120019         3.2659 
 105   0.0000       0.123516         3.3610 
 106   0.0000       0.127910         3.4806 
 107   0.0000       0.130483         3.5506 
 108   0.0000       0.131866         3.5883 
 109   0.0000       0.134788         3.6678 
 110   0.0000       0.140388         3.8202 
 111   0.0000       0.143039         3.8923 
 112   0.0000       0.145277         3.9532 
 113   0.0000       0.149860         4.0779 
 114   0.0000       0.151539         4.1236 
 115   0.0000       0.156047         4.2463 
 116   0.0000       0.156516         4.2590 
 117   0.0000       0.158741         4.3196 
 118   0.0000       0.160060         4.3555 
 119   0.0000       0.162510         4.4221 
 120   0.0000       0.163334         4.4445 
 121   0.0000       0.169167         4.6033 
 122   0.0000       0.175592         4.7781 
 123   0.0000       0.177204         4.8220 
 124   0.0000       0.177431         4.8281 
 125   0.0000       0.184180         5.0118 
 126   0.0000       0.188304         5.1240 
 127   0.0000       0.190542         5.1849 
 128   0.0000       0.194742         5.2992 
 129   0.0000       0.202127         5.5001 
 130   0.0000       0.202514         5.5107 
 131   0.0000       0.207373         5.6429 
 132   0.0000       0.212839         5.7917 
 133   0.0000       0.215969         5.8768 
 134   0.0000       0.216702         5.8968 
 135   0.0000       0.219447         5.9715 
 136   0.0000       0.219992         5.9863 
 137   0.0000       0.224441         6.1074 
 138   0.0000       0.227792         6.1985 
 139   0.0000       0.228380         6.2145 
 140   0.0000       0.233414         6.3515 
 141   0.0000       0.238623         6.4933 
 142   0.0000       0.240149         6.5348 
 143   0.0000       0.243190         6.6175 
 144   0.0000       0.245860         6.6902 
 145   0.0000       0.251884         6.8541 
 146   0.0000       0.254017         6.9122 
 147   0.0000       0.255724         6.9586 
 148   0.0000       0.262038         7.1304 
 149   0.0000       0.263537         7.1712 
 150   0.0000       0.267148         7.2695 
 151   0.0000       0.275906         7.5078 
 152   0.0000       0.280434         7.6310 
 153   0.0000       0.282182         7.6786 
 154   0.0000       0.284202         7.7335 
 155   0.0000       0.290535         7.9059 
 156   0.0000       0.293555         7.9880 
 157   0.0000       0.297842         8.1047 
 158   0.0000       0.300209         8.1691 
 159   0.0000       0.303521         8.2592 
 160   0.0000       0.307559         8.3691 
 161   0.0000       0.311054         8.4642 
 162   0.0000       0.314391         8.5550 
 163   0.0000       0.320418         8.7190 
 164   0.0000       0.322539         8.7767 
 165   0.0000       0.328006         8.9255 
 166   0.0000       0.331242         9.0136 
 167   0.0000       0.333547         9.0763 
 168   0.0000       0.335129         9.1193 
 169   0.0000       0.340278         9.2594 
 170   0.0000       0.343396         9.3443 
 171   0.0000       0.348095         9.4721 
 172   0.0000       0.350032         9.5249 
 173   0.0000       0.355365         9.6700 
 174   0.0000       0.357636         9.7318 
 175   0.0000       0.360453         9.8084 
 176   0.0000       0.363304         9.8860 
 177   0.0000       0.368151        10.0179 
 178   0.0000       0.371259        10.1025 
 179   0.0000       0.375632        10.2215 
 180   0.0000       0.379475        10.3261 
 181   0.0000       0.381584        10.3834 
 182   0.0000       0.384087        10.4515 
 183   0.0000       0.389094        10.5878 
 184   0.0000       0.393321        10.7028 
 185   0.0000       0.394022        10.7219 
 186   0.0000       0.396309        10.7841 
 187   0.0000       0.401062        10.9134 
 188   0.0000       0.404111        10.9964 
 189   0.0000       0.406924        11.0730 
 190   0.0000       0.409347        11.1389 
 191   0.0000       0.411963        11.2101 
 192   0.0000       0.417564        11.3625 
 193   0.0000       0.421429        11.4677 
 194   0.0000       0.428587        11.6625 
 195   0.0000       0.431627        11.7452 
 196   0.0000       0.433296        11.7906 
 197   0.0000       0.434463        11.8224 
 198   0.0000       0.439064        11.9475 
 199   0.0000       0.446871        12.1600 
 200   0.0000       0.447601        12.1799 
 201   0.0000       0.448414        12.2020 
 202   0.0000       0.452886        12.3237 
 203   0.0000       0.455391        12.3918 
 204   0.0000       0.462798        12.5934 
 205   0.0000       0.464668        12.6443 
 206   0.0000       0.470554        12.8044 
 207   0.0000       0.472826        12.8663 
 208   0.0000       0.476228        12.9588 
 209   0.0000       0.479711        13.0536 
 210   0.0000       0.481375        13.0989 
 211   0.0000       0.487366        13.2619 
 212   0.0000       0.489366        13.3163 
 213   0.0000       0.491980        13.3874 
 214   0.0000       0.493880        13.4392 
 215   0.0000       0.497831        13.5467 
 216   0.0000       0.501841        13.6558 
 217   0.0000       0.503400        13.6982 
 218   0.0000       0.507201        13.8017 
 219   0.0000       0.513113        13.9625 
 220   0.0000       0.513555        13.9745 
 221   0.0000       0.518117        14.0987 
 222   0.0000       0.520246        14.1566 
 223   0.0000       0.526634        14.3304 
 224   0.0000       0.528148        14.3716 
 225   0.0000       0.530044        14.4232 
 226   0.0000       0.532826        14.4989 
 227   0.0000       0.536115        14.5884 
 228   0.0000       0.538139        14.6435 
 229   0.0000       0.542809        14.7706 
 230   0.0000       0.545107        14.8331 
 231   0.0000       0.548115        14.9150 
 232   0.0000       0.551453        15.0058 
 233   0.0000       0.552056        15.0222 
 234   0.0000       0.559569        15.2266 
 235   0.0000       0.564442        15.3593 
 236   0.0000       0.569885        15.5074 
 237   0.0000       0.572802        15.5867 
 238   0.0000       0.574010        15.6196 
 239   0.0000       0.576714        15.6932 
 240   0.0000       0.581944        15.8355 
 241   0.0000       0.585361        15.9285 
 242   0.0000       0.587527        15.9874 
 243   0.0000       0.590294        16.0627 
 244   0.0000       0.597968        16.2715 
 245   0.0000       0.601339        16.3633 
 246   0.0000       0.605970        16.4893 
 247   0.0000       0.610585        16.6149 
 248   0.0000       0.613726        16.7003 
 249   0.0000       0.617076        16.7915 
 250   0.0000       0.621363        16.9082 
 251   0.0000       0.623054        16.9542 
 252   0.0000       0.626488        17.0476 
 253   0.0000       0.626701        17.0534 
 254   0.0000       0.628724        17.1084 
 255   0.0000       0.638928        17.3861 
 256   0.0000       0.644370        17.5342 
 257   0.0000       0.649399        17.6710 
 258   0.0000       0.652070        17.7437 
 259   0.0000       0.658717        17.9246 
 260   0.0000       0.660422        17.9710 
 261   0.0000       0.667640        18.1674 
 262   0.0000       0.672544        18.3009 
 263   0.0000       0.675918        18.3927 
 264   0.0000       0.678639        18.4667 
 265   0.0000       0.680830        18.5263 
 266   0.0000       0.684988        18.6395 
 267   0.0000       0.693077        18.8596 
 268   0.0000       0.697407        18.9774 
 269   0.0000       0.702168        19.1070 
 270   0.0000       0.705456        19.1964 
 271   0.0000       0.706343        19.2206 
 272   0.0000       0.711313        19.3558 
 273   0.0000       0.715649        19.4738 
 274   0.0000       0.718927        19.5630 
 275   0.0000       0.721300        19.6276 
 276   0.0000       0.724960        19.7272 
 277   0.0000       0.731136        19.8952 
 278   0.0000       0.736335        20.0367 
 279   0.0000       0.739076        20.1113 
 280   0.0000       0.751870        20.4594 
 281   0.0000       0.753306        20.4985 
 282   0.0000       0.759166        20.6580 
 283   0.0000       0.762724        20.7548 
 284   0.0000       0.765473        20.8296 
 285   0.0000       0.780185        21.2299 
 286   0.0000       0.782844        21.3023 
 287   0.0000       0.789669        21.4880 
 288   0.0000       0.792154        21.5556 
 289   0.0000       0.795931        21.6584 
 290   0.0000       0.804610        21.8946 
 291   0.0000       0.815312        22.1858 
 292   0.0000       0.818114        22.2620 
 293   0.0000       0.823500        22.4086 
 294   0.0000       0.833934        22.6925 
 295   0.0000       0.834156        22.6985 
 296   0.0000       0.839971        22.8568 
 297   0.0000       0.847312        23.0565 
 298   0.0000       0.852288        23.1919 
 299   0.0000       0.855271        23.2731 
 300   0.0000       0.858352        23.3570 
 301   0.0000       0.863042        23.4846 
 302   0.0000       0.867064        23.5940 
 303   0.0000       0.869511        23.6606 
 304   0.0000       0.871539        23.7158 
 305   0.0000       0.878886        23.9157 
 306   0.0000       0.883158        24.0319 
 307   0.0000       0.885859        24.1055 
 308   0.0000       0.897981        24.4353 
 309   0.0000       0.899362        24.4729 
 310   0.0000       0.908803        24.7298 
 311   0.0000       0.910566        24.7778 
 312   0.0000       0.912568        24.8322 
 313   0.0000       0.916233        24.9320 
 314   0.0000       0.922741        25.1091 
 315   0.0000       0.928343        25.2615 
 316   0.0000       0.932738        25.3811 
 317   0.0000       0.936207        25.4755 
 318   0.0000       0.939534        25.5660 
 319   0.0000       0.943412        25.6715 
 320   0.0000       0.946159        25.7463 
 321   0.0000       0.950297        25.8589 
 322   0.0000       0.956897        26.0385 
 323   0.0000       0.959664        26.1138 
 324   0.0000       0.960112        26.1260 
 325   0.0000       0.964561        26.2470 
 326   0.0000       0.969109        26.3708 
 327   0.0000       0.974267        26.5111 
 328   0.0000       0.977359        26.5953 
 329   0.0000       0.985216        26.8091 
 330   0.0000       0.987434        26.8695 
 331   0.0000       0.988897        26.9093 
 332   0.0000       0.991226        26.9726 
 333   0.0000       0.993133        27.0245 
 334   0.0000       0.998306        27.1653 
 335   0.0000       1.002961        27.2920 
 336   0.0000       1.007223        27.4079 
 337   0.0000       1.011008        27.5109 
 338   0.0000       1.011785        27.5321 
 339   0.0000       1.017167        27.6785 
 340   0.0000       1.021345        27.7922 
 341   0.0000       1.022264        27.8172 
 342   0.0000       1.026044        27.9201 
 343   0.0000       1.031476        28.0679 
 344   0.0000       1.035899        28.1882 
 345   0.0000       1.039756        28.2932 
 346   0.0000       1.044943        28.4343 
 347   0.0000       1.046087        28.4655 
 348   0.0000       1.049557        28.5599 
 349   0.0000       1.050201        28.5774 
 350   0.0000       1.055934        28.7334 
 351   0.0000       1.058168        28.7942 
 352   0.0000       1.062100        28.9012 
 353   0.0000       1.065715        28.9996 
 354   0.0000       1.068073        29.0637 
 355   0.0000       1.074510        29.2389 
 356   0.0000       1.079864        29.3846 
 357   0.0000       1.082469        29.4555 
 358   0.0000       1.084874        29.5209 
 359   0.0000       1.091997        29.7148 
 360   0.0000       1.094164        29.7737 
 361   0.0000       1.100584        29.9484 
 362   0.0000       1.102594        30.0031 
 363   0.0000       1.104462        30.0539 
 364   0.0000       1.106962        30.1220 
 365   0.0000       1.115630        30.3578 
 366   0.0000       1.116544        30.3827 
 367   0.0000       1.126228        30.6462 
 368   0.0000       1.127488        30.6805 
 369   0.0000       1.131469        30.7888 
 370   0.0000       1.133976        30.8571 
 371   0.0000       1.140771        31.0420 
 372   0.0000       1.145918        31.1820 
 373   0.0000       1.148356        31.2483 
 374   0.0000       1.155103        31.4319 
 375   0.0000       1.158509        31.5246 
 376   0.0000       1.164049        31.6754 
 377   0.0000       1.167263        31.7628 
 378   0.0000       1.171411        31.8757 
 379   0.0000       1.176440        32.0126 
 380   0.0000       1.179690        32.1010 
 381   0.0000       1.185766        32.2663 
 382   0.0000       1.189259        32.3614 
 383   0.0000       1.196858        32.5682 
 384   0.0000       1.198817        32.6215 
 385   0.0000       1.201111        32.6839 
 386   0.0000       1.210298        32.9339 
 387   0.0000       1.210949        32.9516 
 388   0.0000       1.218360        33.1533 
 389   0.0000       1.223141        33.2834 
 390   0.0000       1.224722        33.3264 
 391   0.0000       1.229562        33.4581 
 392   0.0000       1.232266        33.5317 
 393   0.0000       1.235982        33.6328 
 394   0.0000       1.245634        33.8954 
 395   0.0000       1.254709        34.1424 
 396   0.0000       1.260672        34.3046 
 397   0.0000       1.262275        34.3483 
 398   0.0000       1.265122        34.4257 
 399   0.0000       1.272862        34.6363 
 400   0.0000       1.277723        34.7686 
 401   0.0000       1.285101        34.9694 
 402   0.0000       1.287401        35.0320 
 403   0.0000       1.294113        35.2146 
 404   0.0000       1.296552        35.2810 
 405   0.0000       1.300484        35.3880 
 406   0.0000       1.306454        35.5504 
 407   0.0000       1.311492        35.6875 
 408   0.0000       1.314919        35.7808 
 409   0.0000       1.318519        35.8787 
 410   0.0000       1.323557        36.0158 
 411   0.0000       1.327462        36.1221 
 412   0.0000       1.332635        36.2629 
 413   0.0000       1.347103        36.6565 
 414   0.0000       1.347823        36.6761 
 415   0.0000       1.352343        36.7991 
 416   0.0000       1.360503        37.0212 
 417   0.0000       1.366700        37.1898 
 418   0.0000       1.371937        37.3323 
 419   0.0000       1.375445        37.4278 
 420   0.0000       1.379103        37.5273 
 421   0.0000       1.380947        37.5775 
 422   0.0000       1.386757        37.7356 
 423   0.0000       1.390130        37.8274 
 424   0.0000       1.395491        37.9732 
 425   0.0000       1.406007        38.2594 
 426   0.0000       1.413010        38.4499 
 427   0.0000       1.417938        38.5841 
 428   0.0000       1.426823        38.8258 
 429   0.0000       1.436804        39.0974 
 430   0.0000       1.440004        39.1845 
 431   0.0000       1.444351        39.3028 
 432   0.0000       1.446748        39.3680 
 433   0.0000       1.452087        39.5133 
 434   0.0000       1.457314        39.6555 
 435   0.0000       1.460680        39.7471 
 436   0.0000       1.462673        39.8014 
 437   0.0000       1.465092        39.8672 
 438   0.0000       1.471738        40.0480 
 439   0.0000       1.478000        40.2184 
 440   0.0000       1.481839        40.3229 
 441   0.0000       1.486483        40.4493 
 442   0.0000       1.487915        40.4882 
 443   0.0000       1.499390        40.8005 
 444   0.0000       1.500559        40.8323 
 445   0.0000       1.511573        41.1320 
 446   0.0000       1.512504        41.1573 
 447   0.0000       1.519602        41.3505 
 448   0.0000       1.522901        41.4402 
 449   0.0000       1.533708        41.7343 
 450   0.0000       1.540631        41.9227 
 451   0.0000       1.542918        41.9849 
 452   0.0000       1.545081        42.0438 
 453   0.0000       1.551301        42.2131 
 454   0.0000       1.559204        42.4281 
 455   0.0000       1.564971        42.5850 
 456   0.0000       1.567302        42.6484 
 457   0.0000       1.571337        42.7583 
 458   0.0000       1.577941        42.9380 
 459   0.0000       1.578764        42.9604 
 460   0.0000       1.586094        43.1598 
 461   0.0000       1.589513        43.2528 
 462   0.0000       1.598608        43.5003 
 463   0.0000       1.601091        43.5679 
 464   0.0000       1.602237        43.5991 
 465   0.0000       1.613418        43.9033 
 466   0.0000       1.615979        43.9730 
 467   0.0000       1.625784        44.2398 
 468   0.0000       1.634401        44.4743 
 469   0.0000       1.637321        44.5538 
 470   0.0000       1.642161        44.6855 
 471   0.0000       1.647819        44.8394 
 472   0.0000       1.653359        44.9902 
 473   0.0000       1.655486        45.0481 
 474   0.0000       1.665762        45.3277 
 475   0.0000       1.670151        45.4471 
 476   0.0000       1.674647        45.5695 
 477   0.0000       1.681266        45.7496 
 478   0.0000       1.685159        45.8555 
 479   0.0000       1.689559        45.9752 
 480   0.0000       1.695697        46.1423 
 481   0.0000       1.696574        46.1661 
 482   0.0000       1.699850        46.2553 
 483   0.0000       1.702400        46.3247 
 484   0.0000       1.707324        46.4586 
 485   0.0000       1.715058        46.6691 
 486   0.0000       1.721276        46.8383 
 487   0.0000       1.727020        46.9946 
 488   0.0000       1.731597        47.1191 
 489   0.0000       1.739863        47.3441 
 490   0.0000       1.742888        47.4264 
 491   0.0000       1.755660        47.7739 
 492   0.0000       1.756521        47.7974 
 493   0.0000       1.760656        47.9099 
 494   0.0000       1.762762        47.9672 
 495   0.0000       1.779342        48.4184 
 496   0.0000       1.781061        48.4651 
 497   0.0000       1.788629        48.6711 
 498   0.0000       1.796758        48.8923 
 499   0.0000       1.800317        48.9891 
 500   0.0000       1.804554        49.1044 
 501   0.0000       1.810434        49.2644 
 502   0.0000       1.811465        49.2925 
 503   0.0000       1.816996        49.4430 
 504   0.0000       1.825656        49.6786 
 505   0.0000       1.830834        49.8195 
 506   0.0000       1.835337        49.9421 
 507   0.0000       1.838291        50.0225 
 508   0.0000       1.843435        50.1624 
 509   0.0000       1.846712        50.2516 
 510   0.0000       1.858249        50.5655 
 511   0.0000       1.859078        50.5881 
 512   0.0000       1.865549        50.7642 
 513   0.0000       1.870154        50.8895 
 514   0.0000       1.873156        50.9712 
 515   0.0000       1.876838        51.0714 
 516   0.0000       1.885140        51.2973 
 517   0.0000       1.889447        51.4145 
 518   0.0000       1.896347        51.6022 
 519   0.0000       1.897367        51.6300 
 520   0.0000       1.903146        51.7872 
 521   0.0000       1.909093        51.9491 
 522   0.0000       1.915943        52.1354 
 523   0.0000       1.919088        52.2210 
 524   0.0000       1.928881        52.4875 
 525   0.0000       1.932276        52.5799 
 526   0.0000       1.936445        52.6933 
 527   0.0000       1.937576        52.7241 
 528   0.0000       1.949880        53.0589 
 529   0.0000       1.953085        53.1461 
 530   0.0000       1.957566        53.2681 
 531   0.0000       1.967566        53.5402 
 532   0.0000       1.969967        53.6055 
 533   0.0000       1.971882        53.6576 
 534   0.0000       1.978595        53.8403 
 535   0.0000       1.982593        53.9491 
 536   0.0000       1.988470        54.1090 
 537   0.0000       1.998898        54.3928 
 538   0.0000       2.009303        54.6759 
 539   0.0000       2.015630        54.8481 
 540   0.0000       2.018479        54.9256 
 541   0.0000       2.023729        55.0685 
 542   0.0000       2.029060        55.2135 
 543   0.0000       2.041979        55.5651 
 544   0.0000       2.049964        55.7824 
 545   0.0000       2.055492        55.9328 
 546   0.0000       2.059807        56.0502 
 547   0.0000       2.063981        56.1638 
 548   0.0000       2.068349        56.2826 
 549   0.0000       2.071451        56.3671 
 550   0.0000       2.084487        56.7218 
 551   0.0000       2.088812        56.8395 
 552   0.0000       2.094709        56.9999 
 553   0.0000       2.104208        57.2584 
 554   0.0000       2.111763        57.4640 
 555   0.0000       2.118482        57.6468 
 556   0.0000       2.124097        57.7996 
 557   0.0000       2.138759        58.1986 
 558   0.0000       2.144285        58.3490 
 559   0.0000       2.147008        58.4231 
 560   0.0000       2.156579        58.6835 
 561   0.0000       2.160219        58.7826 
 562   0.0000       2.165816        58.9348 
 563   0.0000       2.173925        59.1555 
 564   0.0000       2.182931        59.4006 
 565   0.0000       2.190532        59.6074 
 566   0.0000       2.201146        59.8962 
 567   0.0000       2.205110        60.0041 
 568   0.0000       2.210854        60.1604 
 569   0.0000       2.219773        60.4031 
 570   0.0000       2.222751        60.4841 
 571   0.0000       2.231059        60.7102 
 572   0.0000       2.234709        60.8095 
 573   0.0000       2.246419        61.1282 
 574   0.0000       2.249724        61.2181 
 575   0.0000       2.252633        61.2973 
 576   0.0000       2.265693        61.6526 
 577   0.0000       2.272193        61.8295 
 578   0.0000       2.277735        61.9803 
 579   0.0000       2.290781        62.3353 
 580   0.0000       2.292532        62.3830 
 581   0.0000       2.300760        62.6069 
 582   0.0000       2.305840        62.7451 
 583   0.0000       2.313052        62.9413 
 584   0.0000       2.321522        63.1718 
 585   0.0000       2.329889        63.3995 
 586   0.0000       2.331827        63.4522 
 587   0.0000       2.334950        63.5372 
 588   0.0000       2.346706        63.8571 
 589   0.0000       2.353725        64.0481 
 590   0.0000       2.362561        64.2885 
 591   0.0000       2.378685        64.7273 
 592   0.0000       2.382041        64.8186 
 593   0.0000       2.389433        65.0198 
 594   0.0000       2.401265        65.3417 
 595   0.0000       2.407683        65.5164 
 596   0.0000       2.415065        65.7173 
 597   0.0000       2.425242        65.9942 
 598   0.0000       2.428730        66.0891 
 599   0.0000       2.431195        66.1562 
 600   0.0000       2.446436        66.5709 
 601   0.0000       2.462542        67.0092 
 602   0.0000       2.470709        67.2314 
 603   0.0000       2.476608        67.3919 
 604   0.0000       2.480019        67.4847 
 605   0.0000       2.500374        68.0386 
 606   0.0000       2.509692        68.2922 
 607   0.0000       2.521615        68.6166 
 608   0.0000       2.533689        68.9452 
 609   0.0000       2.537764        69.0561 
 610   0.0000       2.558620        69.6236 
 611   0.0000       2.573114        70.0180 
 612   0.0000       2.598001        70.6952 
 613   0.0000       2.604235        70.8648 
 614   0.0000       2.609743        71.0147 
 615   0.0000       2.623196        71.3808 
 616   0.0000       2.629265        71.5459 
 617   0.0000       2.647162        72.0329 
 618   0.0000       2.654828        72.2415 
 619   0.0000       2.655755        72.2668 
 620   0.0000       2.665236        72.5248 
 621   0.0000       2.677011        72.8452 
 622   0.0000       2.682813        73.0030 
 623   0.0000       2.691881        73.2498 
 624   0.0000       2.698208        73.4220 
 625   0.0000       2.707219        73.6672 
 626   0.0000       2.711583        73.7859 
 627   0.0000       2.722794        74.0910 
 628   0.0000       2.728054        74.2341 
 629   0.0000       2.733101        74.3715 
 630   0.0000       2.741110        74.5894 
 631   0.0000       2.745889        74.7194 
 632   0.0000       2.753584        74.9288 
 633   0.0000       2.765093        75.2420 
 634   0.0000       2.780463        75.6602 
 635   0.0000       2.785859        75.8071 
 636   0.0000       2.797769        76.1312 
 637   0.0000       2.813212        76.5514 
 638   0.0000       2.834430        77.1288 
 639   0.0000       2.844162        77.3936 
 640   0.0000       2.854314        77.6698 
 641   0.0000       2.879160        78.3459 
 642   0.0000       2.891091        78.6706 
 643   0.0000       2.896529        78.8186 
 644   0.0000       2.899419        78.8972 
 645   0.0000       2.928182        79.6799 
 646   0.0000       2.933785        79.8324 
 647   0.0000       2.942054        80.0574 
 648   0.0000       2.961206        80.5785 
 649   0.0000       2.971493        80.8584 
 650   0.0000       2.984222        81.2048 
 651   0.0000       2.988862        81.3311 
 652   0.0000       3.002351        81.6981 
 653   0.0000       3.021216        82.2115 
 654   0.0000       3.037541        82.6557 
 655   0.0000       3.050767        83.0156 
 656   0.0000       3.078925        83.7818 
 657   0.0000       3.087948        84.0273 
 658   0.0000       3.098744        84.3211 
 659   0.0000       3.099639        84.3455 
 660   0.0000       3.131957        85.2249 
 661   0.0000       3.141833        85.4936 
 662   0.0000       3.159566        85.9762 
 663   0.0000       3.169717        86.2524 
 664   0.0000       3.172996        86.3416 
 665   0.0000       3.190529        86.8187 
 666   0.0000       3.201809        87.1257 
 667   0.0000       3.203286        87.1658 
 668   0.0000       3.224930        87.7548 
 669   0.0000       3.234314        88.0102 
 670   0.0000       3.237850        88.1064 
 671   0.0000       3.249883        88.4338 
 672   0.0000       3.261283        88.7440 
 673   0.0000       3.263646        88.8083 
 674   0.0000       3.278034        89.1998 
 675   0.0000       3.282079        89.3099 
 676   0.0000       3.301942        89.8504 
 677   0.0000       3.308340        90.0245 
 678   0.0000       3.311319        90.1056 
 679   0.0000       3.320592        90.3579 
 680   0.0000       3.334606        90.7392 
 681   0.0000       3.337715        90.8238 
 682   0.0000       3.344967        91.0212 
 683   0.0000       3.357827        91.3711 
 684   0.0000       3.364247        91.5458 
 685   0.0000       3.371981        91.7563 
 686   0.0000       3.373462        91.7966 
 687   0.0000       3.398077        92.4664 
 688   0.0000       3.400265        92.5259 
 689   0.0000       3.409926        92.7888 
 690   0.0000       3.412578        92.8610 
 691   0.0000       3.427788        93.2749 
 692   0.0000       3.439406        93.5910 
 693   0.0000       3.443321        93.6975 
 694   0.0000       3.454744        94.0084 
 695   0.0000       3.468338        94.3783 
 696   0.0000       3.479007        94.6686 
 697   0.0000       3.486283        94.8666 
 698   0.0000       3.493294        95.0574 
 699   0.0000       3.498821        95.2077 
 700   0.0000       3.506171        95.4078 
 701   0.0000       3.509119        95.4880 
 702   0.0000       3.520862        95.8075 
 703   0.0000       3.524594        95.9091 
 704   0.0000       3.531138        96.0872 
 705   0.0000       3.543573        96.4255 
 706   0.0000       3.548646        96.5636 
 707   0.0000       3.559457        96.8578 
 708   0.0000       3.569287        97.1252 
 709   0.0000       3.581825        97.4664 
 710   0.0000       3.584638        97.5430 
 711   0.0000       3.592248        97.7500 
 712   0.0000       3.599484        97.9469 
 713   0.0000       3.614087        98.3443 
 714   0.0000       3.621513        98.5464 
 715   0.0000       3.631419        98.8159 
 716   0.0000       3.646065        99.2145 
 717   0.0000       3.648292        99.2751 
 718   0.0000       3.657568        99.5275 
 719   0.0000       3.663071        99.6772 
 720   0.0000       3.677956       100.0823 
 721   0.0000       3.681740       100.1853 
 722   0.0000       3.687020       100.3289 
 723   0.0000       3.700896       100.7065 
 724   0.0000       3.705107       100.8211 
 725   0.0000       3.719923       101.2243 
 726   0.0000       3.722342       101.2901 
 727   0.0000       3.729905       101.4959 
 728   0.0000       3.743270       101.8596 
 729   0.0000       3.754629       102.1687 
 730   0.0000       3.762077       102.3713 
 731   0.0000       3.764268       102.4309 
 732   0.0000       3.776973       102.7767 
 733   0.0000       3.778360       102.8144 
 734   0.0000       3.788744       103.0970 
 735   0.0000       3.791888       103.1825 
 736   0.0000       3.798081       103.3510 
 737   0.0000       3.800122       103.4066 
 738   0.0000       3.811763       103.7234 
 739   0.0000       3.817653       103.8836 
 740   0.0000       3.825181       104.0885 
 741   0.0000       3.828184       104.1702 
 742   0.0000       3.830275       104.2271 
 743   0.0000       3.847115       104.6853 
 744   0.0000       3.857030       104.9551 
 745   0.0000       3.866968       105.2256 
 746   0.0000       3.872365       105.3724 
 747   0.0000       3.878079       105.5279 
 748   0.0000       3.889467       105.8378 
 749   0.0000       3.897757       106.0634 
 750   0.0000       3.898699       106.0890 
 751   0.0000       3.905463       106.2731 
 752   0.0000       3.916497       106.5733 
 753   0.0000       3.920975       106.6951 
 754   0.0000       3.927925       106.8843 
 755   0.0000       3.932965       107.0214 
 756   0.0000       3.944228       107.3279 
 757   0.0000       3.946499       107.3897 
 758   0.0000       3.958297       107.7107 
 759   0.0000       3.963445       107.8508 
 760   0.0000       3.970528       108.0436 
 761   0.0000       3.978636       108.2642 
 762   0.0000       3.986840       108.4874 
 763   0.0000       3.998244       108.7978 
 764   0.0000       4.003127       108.9306 
 765   0.0000       4.005677       109.0000 
 766   0.0000       4.020138       109.3935 
 767   0.0000       4.021786       109.4384 
 768   0.0000       4.021999       109.4442 
 769   0.0000       4.032183       109.7213 
 770   0.0000       4.040164       109.9385 
 771   0.0000       4.051403       110.2443 
 772   0.0000       4.056826       110.3919 
 773   0.0000       4.059244       110.4576 
 774   0.0000       4.080788       111.0439 
 775   0.0000       4.085783       111.1798 
 776   0.0000       4.086389       111.1963 
 777   0.0000       4.090533       111.3091 
 778   0.0000       4.104747       111.6958 
 779   0.0000       4.105950       111.7286 
 780   0.0000       4.112464       111.9058 
 781   0.0000       4.123412       112.2037 
 782   0.0000       4.128572       112.3441 
 783   0.0000       4.143620       112.7536 
 784   0.0000       4.150246       112.9339 
 785   0.0000       4.150861       112.9507 
 786   0.0000       4.170804       113.4933 
 787   0.0000       4.181384       113.7812 
 788   0.0000       4.187450       113.9463 
 789   0.0000       4.190595       114.0319 
 790   0.0000       4.197329       114.2151 
 791   0.0000       4.207746       114.4986 
 792   0.0000       4.220371       114.8421 
 793   0.0000       4.229106       115.0798 
 794   0.0000       4.238379       115.3322 
 795   0.0000       4.242277       115.4382 
 796   0.0000       4.256544       115.8265 
 797   0.0000       4.260956       115.9465 
 798   0.0000       4.264262       116.0365 
 799   0.0000       4.275995       116.3557 
 800   0.0000       4.292996       116.8184 
 801   0.0000       4.295338       116.8821 
 802   0.0000       4.304480       117.1308 
 803   0.0000       4.314331       117.3989 
 804   0.0000       4.326448       117.7286 
 805   0.0000       4.332067       117.8815 
 806   0.0000       4.339531       118.0846 
 807   0.0000       4.348254       118.3220 
 808   0.0000       4.351825       118.4192 
 809   0.0000       4.369418       118.8979 
 810   0.0000       4.371750       118.9614 
 811   0.0000       4.377076       119.1063 
 812   0.0000       4.400017       119.7306 
 813   0.0000       4.403479       119.8248 
 814   0.0000       4.423846       120.3790 
 815   0.0000       4.434505       120.6690 
 816   0.0000       4.449007       121.0636 
 817   0.0000       4.449602       121.0798 
 818   0.0000       4.453958       121.1983 
 819   0.0000       4.457459       121.2936 
 820   0.0000       4.464282       121.4793 
 821   0.0000       4.479154       121.8840 
 822   0.0000       4.492172       122.2382 
 823   0.0000       4.502025       122.5063 
 824   0.0000       4.508764       122.6897 
 825   0.0000       4.523977       123.1037 
 826   0.0000       4.527399       123.1968 
 827   0.0000       4.540588       123.5557 
 828   0.0000       4.548047       123.7587 
 829   0.0000       4.548132       123.7610 
 830   0.0000       4.571181       124.3881 
 831   0.0000       4.585206       124.7698 
 832   0.0000       4.594666       125.0272 
 833   0.0000       4.602155       125.2310 
 834   0.0000       4.612850       125.5220 
 835   0.0000       4.630047       125.9900 
 836   0.0000       4.635063       126.1265 
 837   0.0000       4.655153       126.6731 
 838   0.0000       4.659694       126.7967 
 839   0.0000       4.667427       127.0071 
 840   0.0000       4.689394       127.6049 
 841   0.0000       4.699637       127.8836 
 842   0.0000       4.712185       128.2251 
 843   0.0000       4.714183       128.2794 
 844   0.0000       4.731705       128.7562 
 845   0.0000       4.740185       128.9870 
 846   0.0000       4.756702       129.4364 
 847   0.0000       4.765136       129.6659 
 848   0.0000       4.770473       129.8112 
 849   0.0000       4.776641       129.9790 
 850   0.0000       4.788327       130.2970 
 851   0.0000       4.792934       130.4224 
 852   0.0000       4.804478       130.7365 
 853   0.0000       4.820639       131.1762 
 854   0.0000       4.833599       131.5289 
 855   0.0000       4.841756       131.7509 
 856   0.0000       4.850105       131.9781 
 857   0.0000       4.867295       132.4458 
 858   0.0000       4.878150       132.7412 
 859   0.0000       4.883280       132.8808 
 860   0.0000       4.900583       133.3517 
 861   0.0000       4.911511       133.6490 
 862   0.0000       4.923660       133.9796 
 863   0.0000       4.941815       134.4736 
 864   0.0000       4.952076       134.7528 
 865   0.0000       4.965416       135.1158 
 866   0.0000       4.967871       135.1826 
 867   0.0000       4.981643       135.5574 
 868   0.0000       4.988904       135.7550 
 869   0.0000       4.993591       135.8825 
 870   0.0000       5.016591       136.5084 
 871   0.0000       5.020493       136.6146 
 872   0.0000       5.022753       136.6760 
 873   0.0000       5.047009       137.3361 
 874   0.0000       5.050037       137.4185 
 875   0.0000       5.062588       137.7600 
 876   0.0000       5.085342       138.3792 
 877   0.0000       5.087036       138.4253 
 878   0.0000       5.100513       138.7920 
 879   0.0000       5.114599       139.1753 
 880   0.0000       5.128853       139.5632 
 881   0.0000       5.141145       139.8977 
 882   0.0000       5.156756       140.3225 
 883   0.0000       5.174826       140.8142 
 884   0.0000       5.177030       140.8742 
 885   0.0000       5.193778       141.3299 
 886   0.0000       5.207684       141.7083 
 887   0.0000       5.209518       141.7582 
 888   0.0000       5.215077       141.9094 
 889   0.0000       5.232196       142.3753 
 890   0.0000       5.252703       142.9333 
 891   0.0000       5.261435       143.1709 
 892   0.0000       5.271107       143.4341 
 893   0.0000       5.289058       143.9226 
 894   0.0000       5.296369       144.1215 
 895   0.0000       5.314779       144.6225 
 896   0.0000       5.326865       144.9514 
 897   0.0000       5.333526       145.1326 
 898   0.0000       5.351736       145.6281 
 899   0.0000       5.355976       145.7435 
 900   0.0000       5.367619       146.0603 
 901   0.0000       5.387628       146.6048 
 902   0.0000       5.401751       146.9891 
 903   0.0000       5.419087       147.4609 
 904   0.0000       5.429583       147.7465 
 905   0.0000       5.446874       148.2170 
 906   0.0000       5.453645       148.4012 
 907   0.0000       5.471615       148.8902 
 908   0.0000       5.472604       148.9171 
 909   0.0000       5.489551       149.3783 
 910   0.0000       5.501297       149.6979 
 911   0.0000       5.504951       149.7973 
 912   0.0000       5.519395       150.1904 
 913   0.0000       5.531568       150.5216 
 914   0.0000       5.544908       150.8846 
 915   0.0000       5.555038       151.1603 
 916   0.0000       5.566173       151.4633 
 917   0.0000       5.579689       151.8310 
 918   0.0000       5.585497       151.9891 
 919   0.0000       5.588992       152.0842 
 920   0.0000       5.613726       152.7572 
 921   0.0000       5.632722       153.2742 
 922   0.0000       5.645756       153.6288 
 923   0.0000       5.648484       153.7031 
 924   0.0000       5.660630       154.0336 
 925   0.0000       5.674068       154.3992 
 926   0.0000       5.679035       154.5344 
 927   0.0000       5.696662       155.0141 
 928   0.0000       5.707391       155.3060 
 929   0.0000       5.716126       155.5437 
 930   0.0000       5.729329       155.9030 
 931   0.0000       5.745772       156.3504 
 932   0.0000       5.752291       156.5278 
 933   0.0000       5.770252       157.0165 
 934   0.0000       5.782955       157.3622 
 935   0.0000       5.797237       157.7508 
 936   0.0000       5.805466       157.9748 
 937   0.0000       5.816051       158.2628 
 938   0.0000       5.828192       158.5932 
 939   0.0000       5.841111       158.9447 
 940   0.0000       5.842788       158.9904 
 941   0.0000       5.889050       160.2492 
 942   0.0000       5.903541       160.6435 
 943   0.0000       5.929478       161.3493 
 944   0.0000       5.936717       161.5463 
 945   0.0000       5.956404       162.0820 
 946   0.0000       5.985527       162.8745 
 947   0.0000       6.048743       164.5947 
 948   0.0000       6.101230       166.0229 
 949   0.0000       6.124582       166.6583 
 950   0.0000       6.145773       167.2350 
 951   0.0000       6.180811       168.1884 
 952   0.0000       6.183225       168.2541 
 953   0.0000       6.194265       168.5545 
 954   0.0000       6.218197       169.2058 
 955   0.0000       6.231427       169.5658 
 956   0.0000       6.243561       169.8959 
 957   0.0000       6.251099       170.1011 
 958   0.0000       6.265180       170.4842 
 959   0.0000       6.297540       171.3648 
 960   0.0000       6.304487       171.5538 
 961   0.0000       6.309190       171.6818 
 962   0.0000       6.332928       172.3277 
 963   0.0000       6.348160       172.7422 
 964   0.0000       6.365526       173.2148 
 965   0.0000       6.378973       173.5807 
 966   0.0000       6.400896       174.1772 
 967   0.0000       6.429181       174.9469 
 968   0.0000       6.467935       176.0015 
 969   0.0000       6.497788       176.8138 
 970   0.0000       6.546847       178.1488 
 971   0.0000       6.696414       182.2187 
 972   0.0000       6.804225       185.1524 
 973   0.0000       6.859425       186.6545 
 974   0.0000       6.877151       187.1368 
 975   0.0000       6.915960       188.1928 
 976   0.0000       6.919843       188.2985 
 977   0.0000       6.934602       188.7001 
 978   0.0000       6.958506       189.3506 
 979   0.0000       6.994984       190.3432 
 980   0.0000       7.015785       190.9092 
 981   0.0000       7.036295       191.4673 
 982   0.0000       7.062312       192.1753 
 983   0.0000       7.080130       192.6601 
 984   0.0000       7.145127       194.4288 
 985   0.0000       7.205991       196.0850 
 986   0.0000       7.296128       198.5377 
 987   0.0000       7.381210       200.8529 
 988   0.0000       7.388574       201.0533 
 989   0.0000       7.490902       203.8378 
 990   0.0000       7.552866       205.5239 
 991   0.0000       7.609738       207.0715 
 992   0.0000       7.662959       208.5197 
 993   0.0000       7.772036       211.4878 
 994   0.0000       7.792708       212.0504 
 995   0.0000       7.899139       214.9465 
 996   0.0000       8.040193       218.7848 
 997   0.0000       8.137097       221.4217 
 998   0.0000       8.344698       227.0708 
 999   0.0000       9.446023       257.0394 
 1000   0.0000       9.457989       257.3650 
 1001   0.0000       9.471718       257.7386 
 1002   0.0000       9.478830       257.9321 
 1003   0.0000       9.486222       258.1332 
 1004   0.0000       9.519218       259.0311 
 1005   0.0000       9.757092       265.5040 
 1006   0.0000      10.110970       275.1335 
 1007   0.0000      10.125932       275.5406 
 1008   0.0000      10.149814       276.1905 
 1009   0.0000      10.230233       278.3788 
 1010   0.0000      10.236054       278.5372 
 1011   0.0000      10.261492       279.2294 
 1012   0.0000      10.405260       283.1415 
 1013   0.0000      10.432993       283.8962 
 1014   0.0000      10.559652       287.3427 
 1015   0.0000      16.018808       435.8939 
 1016   0.0000      17.453340       474.9295 
 1017   0.0000      18.121567       493.1129 
 1018   0.0000      18.451375       502.0874 
 1019   0.0000      18.692948       508.6610 
 1020   0.0000      19.041625       518.1490 
 1021   0.0000      19.072280       518.9831 
 1022   0.0000      19.557215       532.1789 
 1023   0.0000      20.352728       553.8259 
 1024   0.0000      21.820640       593.7698 

                 SPIN DOWN ORBITALS
  NO   OCC          E(Eh)            E(eV) 
   0   1.0000    -261.540587     -7116.8812 
   1   1.0000    -104.768628     -2850.8993 
   2   1.0000    -104.766435     -2850.8396 
   3   1.0000    -104.765534     -2850.8151 
   4   1.0000     -32.049945      -872.1234 
   5   1.0000     -27.527971      -749.0742 
   6   1.0000     -27.527865      -749.0713 
   7   1.0000     -27.527441      -749.0597 
   8   1.0000     -20.545877      -559.0817 
   9   1.0000     -11.379037      -309.6393 
  10   1.0000     -11.371256      -309.4276 
  11   1.0000     -11.299381      -307.4718 
  12   1.0000     -11.285043      -307.0816 
  13   1.0000     -11.276035      -306.8365 
  14   1.0000     -11.251860      -306.1787 
  15   1.0000     -11.251664      -306.1733 
  16   1.0000     -11.242594      -305.9265 
  17   1.0000     -10.495174      -285.5882 
  18   1.0000     -10.492936      -285.5273 
  19   1.0000     -10.492062      -285.5035 
  20   1.0000      -7.961074      -216.6318 
  21   1.0000      -7.960484      -216.6158 
  22   1.0000      -7.960418      -216.6140 
  23   1.0000      -7.958913      -216.5730 
  24   1.0000      -7.958216      -216.5541 
  25   1.0000      -7.958112      -216.5512 
  26   1.0000      -7.957979      -216.5476 
  27   1.0000      -7.957344      -216.5303 
  28   1.0000      -7.957257      -216.5280 
  29   1.0000      -4.125078      -112.2491 
  30   1.0000      -2.646885       -72.0254 
  31   1.0000      -2.646821       -72.0237 
  32   1.0000      -2.645985       -72.0009 
  33   1.0000      -1.373132       -37.3648 
  34   1.0000      -1.190933       -32.4069 
  35   1.0000      -1.078098       -29.3365 
  36   1.0000      -1.045832       -28.4585 
  37   1.0000      -1.026738       -27.9390 
  38   1.0000      -1.015852       -27.6427 
  39   1.0000      -1.014854       -27.6156 
  40   1.0000      -1.013375       -27.5753 
  41   1.0000      -0.975048       -26.5324 
  42   1.0000      -0.928718       -25.2717 
  43   1.0000      -0.802299       -21.8317 
  44   1.0000      -0.774300       -21.0698 
  45   1.0000      -0.705819       -19.2063 
  46   1.0000      -0.692245       -18.8369 
  47   1.0000      -0.669902       -18.2290 
  48   1.0000      -0.661665       -18.0048 
  49   1.0000      -0.651155       -17.7188 
  50   1.0000      -0.633916       -17.2497 
  51   1.0000      -0.605848       -16.4860 
  52   1.0000      -0.600640       -16.3443 
  53   1.0000      -0.589937       -16.0530 
  54   1.0000      -0.581784       -15.8312 
  55   1.0000      -0.577581       -15.7168 
  56   1.0000      -0.562846       -15.3158 
  57   1.0000      -0.558020       -15.1845 
  58   1.0000      -0.539893       -14.6912 
  59   1.0000      -0.534375       -14.5411 
  60   1.0000      -0.517874       -14.0921 
  61   1.0000      -0.497713       -13.5434 
  62   1.0000      -0.465766       -12.6741 
  63   1.0000      -0.460351       -12.5268 
  64   1.0000      -0.453622       -12.3437 
  65   1.0000      -0.431349       -11.7376 
  66   1.0000      -0.429003       -11.6738 
  67   1.0000      -0.426714       -11.6115 
  68   1.0000      -0.423095       -11.5130 
  69   1.0000      -0.405996       -11.0477 
  70   1.0000      -0.392796       -10.6885 
  71   1.0000      -0.392329       -10.6758 
  72   0.0000       0.002735         0.0744 
  73   0.0000       0.003282         0.0893 
  74   0.0000       0.017532         0.4771 
  75   0.0000       0.018552         0.5048 
  76   0.0000       0.027352         0.7443 
  77   0.0000       0.037497         1.0204 
  78   0.0000       0.038500         1.0476 
  79   0.0000       0.040805         1.1104 
  80   0.0000       0.043753         1.1906 
  81   0.0000       0.048550         1.3211 
  82   0.0000       0.056711         1.5432 
  83   0.0000       0.057902         1.5756 
  84   0.0000       0.059820         1.6278 
  85   0.0000       0.062264         1.6943 
  86   0.0000       0.065372         1.7789 
  87   0.0000       0.072478         1.9722 
  88   0.0000       0.074843         2.0366 
  89   0.0000       0.082018         2.2318 
  90   0.0000       0.084868         2.3094 
  91   0.0000       0.088427         2.4062 
  92   0.0000       0.091626         2.4933 
  93   0.0000       0.092900         2.5279 
  94   0.0000       0.096552         2.6273 
  95   0.0000       0.101693         2.7672 
  96   0.0000       0.104398         2.8408 
  97   0.0000       0.114131         3.1057 
  98   0.0000       0.115050         3.1307 
  99   0.0000       0.119862         3.2616 
 100   0.0000       0.123204         3.3525 
 101   0.0000       0.126700         3.4477 
 102   0.0000       0.129100         3.5130 
 103   0.0000       0.130700         3.5565 
 104   0.0000       0.131268         3.5720 
 105   0.0000       0.133396         3.6299 
 106   0.0000       0.134747         3.6666 
 107   0.0000       0.136944         3.7264 
 108   0.0000       0.139850         3.8055 
 109   0.0000       0.141650         3.8545 
 110   0.0000       0.143180         3.8961 
 111   0.0000       0.146015         3.9733 
 112   0.0000       0.149388         4.0651 
 113   0.0000       0.151882         4.1329 
 114   0.0000       0.152612         4.1528 
 115   0.0000       0.157174         4.2769 
 116   0.0000       0.157555         4.2873 
 117   0.0000       0.159931         4.3520 
 118   0.0000       0.161896         4.4054 
 119   0.0000       0.163974         4.4620 
 120   0.0000       0.164829         4.4852 
 121   0.0000       0.170011         4.6262 
 122   0.0000       0.176333         4.7983 
 123   0.0000       0.177910         4.8412 
 124   0.0000       0.178538         4.8583 
 125   0.0000       0.185494         5.0475 
 126   0.0000       0.189746         5.1633 
 127   0.0000       0.192923         5.2497 
 128   0.0000       0.195282         5.3139 
 129   0.0000       0.203226         5.5301 
 130   0.0000       0.203983         5.5507 
 131   0.0000       0.208782         5.6812 
 132   0.0000       0.217813         5.9270 
 133   0.0000       0.218735         5.9521 
 134   0.0000       0.219402         5.9702 
 135   0.0000       0.220940         6.0121 
 136   0.0000       0.224511         6.1093 
 137   0.0000       0.228099         6.2069 
 138   0.0000       0.229882         6.2554 
 139   0.0000       0.233335         6.3494 
 140   0.0000       0.237322         6.4579 
 141   0.0000       0.241707         6.5772 
 142   0.0000       0.243490         6.6257 
 143   0.0000       0.245263         6.6739 
 144   0.0000       0.248708         6.7677 
 145   0.0000       0.255128         6.9424 
 146   0.0000       0.258293         7.0285 
 147   0.0000       0.262970         7.1558 
 148   0.0000       0.264014         7.1842 
 149   0.0000       0.268163         7.2971 
 150   0.0000       0.274101         7.4587 
 151   0.0000       0.278762         7.5855 
 152   0.0000       0.283421         7.7123 
 153   0.0000       0.286815         7.8046 
 154   0.0000       0.291214         7.9243 
 155   0.0000       0.294491         8.0135 
 156   0.0000       0.297114         8.0849 
 157   0.0000       0.301157         8.1949 
 158   0.0000       0.303328         8.2540 
 159   0.0000       0.312367         8.4999 
 160   0.0000       0.314382         8.5548 
 161   0.0000       0.316714         8.6182 
 162   0.0000       0.318175         8.6580 
 163   0.0000       0.322987         8.7889 
 164   0.0000       0.328447         8.9375 
 165   0.0000       0.331016         9.0074 
 166   0.0000       0.333683         9.0800 
 167   0.0000       0.335874         9.1396 
 168   0.0000       0.340935         9.2773 
 169   0.0000       0.343914         9.3584 
 170   0.0000       0.347679         9.4608 
 171   0.0000       0.349711         9.5161 
 172   0.0000       0.353972         9.6321 
 173   0.0000       0.357305         9.7228 
 174   0.0000       0.361348         9.8328 
 175   0.0000       0.363179         9.8826 
 176   0.0000       0.367677        10.0050 
 177   0.0000       0.369941        10.0666 
 178   0.0000       0.373410        10.1610 
 179   0.0000       0.378279        10.2935 
 180   0.0000       0.382881        10.4187 
 181   0.0000       0.386616        10.5204 
 182   0.0000       0.389748        10.6056 
 183   0.0000       0.391599        10.6559 
 184   0.0000       0.398084        10.8324 
 185   0.0000       0.400872        10.9083 
 186   0.0000       0.402166        10.9435 
 187   0.0000       0.403919        10.9912 
 188   0.0000       0.408842        11.1252 
 189   0.0000       0.411911        11.2087 
 190   0.0000       0.413797        11.2600 
 191   0.0000       0.415670        11.3110 
 192   0.0000       0.420139        11.4326 
 193   0.0000       0.428536        11.6611 
 194   0.0000       0.430396        11.7117 
 195   0.0000       0.434570        11.8253 
 196   0.0000       0.438133        11.9222 
 197   0.0000       0.439968        11.9721 
 198   0.0000       0.442643        12.0449 
 199   0.0000       0.450175        12.2499 
 200   0.0000       0.452708        12.3188 
 201   0.0000       0.454149        12.3580 
 202   0.0000       0.456089        12.4108 
 203   0.0000       0.461196        12.5498 
 204   0.0000       0.464043        12.6272 
 205   0.0000       0.468918        12.7599 
 206   0.0000       0.472636        12.8611 
 207   0.0000       0.476603        12.9690 
 208   0.0000       0.479586        13.0502 
 209   0.0000       0.480671        13.0797 
 210   0.0000       0.486051        13.2261 
 211   0.0000       0.491509        13.3746 
 212   0.0000       0.492823        13.4104 
 213   0.0000       0.495566        13.4850 
 214   0.0000       0.501633        13.6501 
 215   0.0000       0.503464        13.7000 
 216   0.0000       0.505615        13.7585 
 217   0.0000       0.509159        13.8549 
 218   0.0000       0.512128        13.9357 
 219   0.0000       0.514275        13.9941 
 220   0.0000       0.518991        14.1225 
 221   0.0000       0.523187        14.2366 
 222   0.0000       0.526942        14.3388 
 223   0.0000       0.529090        14.3973 
 224   0.0000       0.531101        14.4520 
 225   0.0000       0.532562        14.4918 
 226   0.0000       0.537374        14.6227 
 227   0.0000       0.539944        14.6926 
 228   0.0000       0.541516        14.7354 
 229   0.0000       0.544935        14.8284 
 230   0.0000       0.548582        14.9277 
 231   0.0000       0.550925        14.9914 
 232   0.0000       0.554369        15.0851 
 233   0.0000       0.555812        15.1244 
 234   0.0000       0.561918        15.2906 
 235   0.0000       0.567171        15.4335 
 236   0.0000       0.572284        15.5726 
 237   0.0000       0.575210        15.6523 
 238   0.0000       0.577849        15.7241 
 239   0.0000       0.579121        15.7587 
 240   0.0000       0.584253        15.8983 
 241   0.0000       0.586894        15.9702 
 242   0.0000       0.588890        16.0245 
 243   0.0000       0.592754        16.1297 
 244   0.0000       0.600204        16.3324 
 245   0.0000       0.602194        16.3865 
 246   0.0000       0.607427        16.5289 
 247   0.0000       0.612530        16.6678 
 248   0.0000       0.614734        16.7278 
 249   0.0000       0.618099        16.8193 
 250   0.0000       0.622769        16.9464 
 251   0.0000       0.624162        16.9843 
 252   0.0000       0.627980        17.0882 
 253   0.0000       0.630182        17.1481 
 254   0.0000       0.631160        17.1747 
 255   0.0000       0.640992        17.4423 
 256   0.0000       0.648260        17.6400 
 257   0.0000       0.651450        17.7269 
 258   0.0000       0.653704        17.7882 
 259   0.0000       0.661439        17.9987 
 260   0.0000       0.663170        18.0458 
 261   0.0000       0.670194        18.2369 
 262   0.0000       0.674543        18.3553 
 263   0.0000       0.679457        18.4890 
 264   0.0000       0.681587        18.5469 
 265   0.0000       0.682957        18.5842 
 266   0.0000       0.688212        18.7272 
 267   0.0000       0.696952        18.9650 
[...]
  | sigma^2 in % of trace(Dip) retained ...   1.78e+01
  | sigma^2 in % of trace(Dpq) retained ...   1.39e-01
  | Av. % of trace(Di) retained         ...  99.998488935067
  | Av. % of trace(Dp) retained         ...  99.999997227096
  | sigma^2 in % of trace(Di) retained  ...   7.78e-07
  | sigma^2 in % of trace(Dp) retained  ...   1.40e-11
 Distributions of % trace(Dij) recovered:
  |       >= 99.9  ...   104 ( 20.7 % of all IJ-pairs)
  |   [80.0, 90.0) ...    35 (  7.0 % of all IJ-pairs)
  |   [90.0, 99.0) ...   268 ( 53.4 % of all IJ-pairs)
  |   [99.0, 99.9) ...    95 ( 18.9 % of all IJ-pairs)
 Distributions of % trace(Dip) recovered:
  |   [80.0, 90.0) ...    12 ( 10.2 % of all IP-pairs)
  |   [90.0, 99.0) ...    64 ( 54.2 % of all IP-pairs)
  |   [99.0, 99.9) ...    42 ( 35.6 % of all IP-pairs)
 Distributions of % trace(Dpq) recovered:
  |       >= 99.9  ...     5 ( 33.3 % of all PQ-pairs)
  |   [99.0, 99.9) ...    10 ( 66.7 % of all PQ-pairs)
 Distributions of % trace(Di) recovered :
  |       >= 99.9  ...    43 (100.0 % of all I-pairs )
 Distributions of % trace(Dp) recovered :
  |       >= 99.9  ...     5 (100.0 % of all P-pairs )

                       ===========================
                       1104 OF 1647 PAIRS ARE KEPT
                       ===========================

 Initial PAO correlation energy (all pairs)    ...  -2.6971433919 Eh
 Energy constituents in PAO basis (Eh):
  | Vijab(+0) ...  -2.2681745517
  | Viab (-1) ...  -0.1751353439
  | Vab  (-2) ...  -0.0573676990
  | Va   (-1) ...  -0.0000424478
  | Vija (+1) ...  -0.0725227300
  | Vij  (+2) ...  -0.0155030044
  | Via  (+0) ...  -0.1082382432
  | Vi   (+1) ...  -0.0001593719
 Initial PNO correlation energy                ...  -2.6632563774 Eh
 Energy constituents in PNO basis (Eh):
  | Vijab(+0) ...  -2.2501346149 (err=  0.0180399367)
  | Viab (-1) ...  -0.1609019408 (err=  0.0142334032)
  | Vab  (-2) ...  -0.0568975343 (err=  0.0004701647)
  | Va   (-1) ...  -0.0000244230 (err=  0.0000180249)
  | Vija (+1) ...  -0.0715401739 (err=  0.0009825561)
  | Vij  (+2) ...  -0.0154533711 (err=  0.0000496333)
  | Via  (+0) ...  -0.1081452601 (err=  0.0000929831)
  | Vi   (+1) ...  -0.0001590593 (err=  0.0000003126)
 Sum of total truncation errors ...   0.0338870146 Eh
  | Pair screening ...   0.0107566938 Eh
  | PNO truncation ...   0.0231303207 Eh

 UMP2 correlation energy (PAO) ...  -2.6922502592
  | alpha-alpha ...  -0.3875347061 (NP_aa=  893)
  | alpha-beta  ...  -1.9967651449 (NP_ab= 1622)
  | beta -beta  ...  -0.3079504082 (NP_bb=  696)
 UMP2 correlation energy (PNO) ...  -2.6579797201
  | alpha-alpha ...  -0.3756138574 (err=  0.0119208487, NP_aa=  587)
  | alpha-beta  ...  -1.9782950712 (err=  0.0184700736, NP_ab= 1079)
  | beta -beta  ...  -0.3040707914 (err=  0.0038796168, NP_bb=  459)
 Sum of total UMP2 truncation errors ...   0.0342705392 Eh
  | Pair screening ...   0.0107721251 Eh
  | PNO truncation ...   0.0234984140 Eh
 Timing for NEV-PNO construction (sec.)
  | Intermediate construction  ..           52.762
  | Amplitude construction     ..           69.822
  | Total time                 ..          122.584
 Making pair pair interaction lists ...      ok
 Total size for 2-ext PNO integrals ...     11.0 MB
Checking the number of SOMO/SOMO doubles PNOs ... 
 #Truncate: (72, 72)[158] -> [86] .. 
 #Truncate: (73, 73)[161] -> [86] .. 
 #Truncate: (74, 74)[162] -> [86] .. 
 #Truncate: (75, 75)[161] -> [86] .. 
 #Truncate: (76, 76)[163] -> [86] .. 

--------------------------------
LOCAL RI TRANSFORMATION (VABPAO)
--------------------------------

Number of PAOs:    1030
Basis functions:   1025 (343 shells)
Aux. functions:    2424 (644 shells)

Processing maps (0.0 sec)
Average map sizes:
   Aux shells -> PAOs           1030.0
   PAOs       -> AO shells       343.0

Calculating integrals (219.4 sec, 37370.165 MB)
Finished
-----------------------------
LOCAL RI TRANSFORMATION (IJV)
-----------------------------

Orbital window:      29 to 76
Basis functions:   1025 (343 shells)
Aux. functions:    2424 (644 shells)

Processing maps (0.0 sec)
Average map sizes:
   Aux shells -> MOs(i)           45.1
   Aux shells -> MOs(j)           48.0
   MOs        -> AO shells       339.4

Calculating integrals (23.2 sec, 40.231 MB)
Sorting integrals (0.3 sec, 40.204 MB)
Total time for the integral transformation: 23.6 sec


-------------------------------------
Pair Pair Term precalculation with     
RI-(ij|mn) and (im|jn) transformation  
ON THE FLY                             
-------------------------------------

   IBatch   1 (of   3)              ... done ( 1053.345 sec)
   IBatch   2 (of   3)              ... done ( 1499.024 sec)
   IBatch   3 (of   3)              ... done (  227.208 sec)
Total EXT                           ...        2779.577 sec

---------------------
RI-PNO TRANSFORMATION
---------------------

Total Number of PNOs                   ... 34884
Total Number of IJ-PNOs                ... 30700
Total Number of IP-PNOs                ...  3230
Total Number of PQ-PNOs                ...   954
Total Number of IJ-pairs               ...   961
Total Number of PI-pairs               ...   118
Total Number of PQ-pairs               ...    25
Average number of PNOs per pair        ...    31
Maximal number of PNOs per pair        ...    86
>> Statistics for ij-pairs..
   #pairs with  1 -  5 PNOs   :    0
   #pairs with  6 - 10 PNOs   :    0
   #pairs with 11 - 15 PNOs   :   40
   #pairs with 16 - 20 PNOs   :  232
   #pairs with 21 - 25 PNOs   :  168
   #pairs with 26 - 30 PNOs   :  152
   #pairs with 31 - 35 PNOs   :   70
   #pairs with 36 - 40 PNOs   :   50
   #pairs with 41 - 45 PNOs   :   52
   #pairs with 46 - 50 PNOs   :   22
   #pairs with 51 - 55 PNOs   :   40
   #pairs with 56 - 60 PNOs   :   49
   #pairs with 61 - 65 PNOs   :   75
   #pairs with 66 - 70 PNOs   :    8
   #pairs with 71 - 75 PNOs   :    1
   #pairs with 76 - 80 PNOs   :    2
>> Statistics for ip-pairs..
   #pairs with  1 -  5 PNOs   :    0
   #pairs with  6 - 10 PNOs   :    2
   #pairs with 11 - 15 PNOs   :   15
   #pairs with 16 - 20 PNOs   :    4
   #pairs with 21 - 25 PNOs   :   27
   #pairs with 26 - 30 PNOs   :   10
   #pairs with 31 - 35 PNOs   :   48
   #pairs with 36 - 40 PNOs   :   12
   #pairs with 41 - 45 PNOs   :    0
   #pairs with 46 - 50 PNOs   :    0
>> Statistics for pq-pairs..
   #pairs with  1 -  5 PNOs   :    0
   #pairs with  6 - 10 PNOs   :    0
   #pairs with 11 - 15 PNOs   :    0
   #pairs with 16 - 20 PNOs   :    0
   #pairs with 21 - 25 PNOs   :   12
   #pairs with 26 - 30 PNOs   :    8
   #pairs with 31 - 35 PNOs   :    0
   #pairs with 36 - 40 PNOs   :    0
   #pairs with 41 - 45 PNOs   :    0
   #pairs with 46 - 50 PNOs   :    0
   #pairs with 86 - 90 PNOs   :    5

Generation of (ij|ab)[P] integrals            ... on
Generation of (ia|bc)[P],(ja|bc)[P] integrals ... on
Storage of 3 and 4 external integrals         ... on
Generation of ALL (ka|bc)[P] integrals        ... on
Keep RI integrals in memory                   ... off

Ibatch:  1 (of  1)
Starting 2-4 index PNO integral generation ... done

Timings:
Total PNO integral transformation time     ...       2276.621 sec
Size of the 3-external file                ...       293 MB
Size of the 4-external file                ...      1998 MB
Size of the IKJL file                      ...        18 MB
Size of the all 3-external file            ...      7044 MB
Size of the 1-external file                ...        22 MB

Size of the PAO/PNO coefficient matrices   ...     224.8 MB

Making pair/pair overlap matrices          ... done (  358.562 sec)
Size of the pair overlap file              ...    2476.0 MB
Total # unrestricted pairs ...       2125
  # of alpha-alpha pairs   ...        587
  # of alpha-beta pairs    ...       1079
  # of beta-beta pairs     ...        459
Constructing the guess amplitudes          ... done (    0.693 sec)

-------------------------
FINAL STARTUP INFORMATION
-------------------------

E(0)                                       ...  -3028.426649227
E(SL-UMP2 in NEV-PNO space)                ...     -2.693264148
Initial E(tot)                             ...  -3031.119913374
<T|T>                                      ...      0.536830983
Number of unrestricted pairs included      ... 2125
Total number of pairs                      ... 4095
----------------------------------------------------------
                     OPEN-SHELL COUPLED CLUSTER ITERATIONS
----------------------------------------------------------

Number of PNO amplitudes to be optimized        ...          2165215
Number of canonical amplitudes for strong pairs ...       1919309738
Untruncated number of canonical amplitudes      ...       3698645738

Iter       E(tot)           E(Corr)          Delta-E          Residual     Time
  0  -3031.127090887     -2.665157233      0.028106915      0.020807958 2095.54
                           *** Turning on DIIS ***
  1  -3031.237765585     -2.775831931     -0.110674698      0.009595202 2072.15
  2  -3031.302075542     -2.840141887     -0.064309957      0.008267343 2081.25
  3  -3031.323066518     -2.861132864     -0.020990977      0.003131007 2062.57
  4  -3031.330210896     -2.868277241     -0.007144377      0.002649993 2064.02
  5  -3031.333991852     -2.872058198     -0.003780957      0.001835791 2059.94
  6  -3031.335389089     -2.873455435     -0.001397237      0.000907972 2070.68
  7  -3031.336181371     -2.874247717     -0.000792282      0.000432606 2062.29
  8  -3031.336345080     -2.874411426     -0.000163709      0.000207185 2063.21
  9  -3031.336395245     -2.874461591     -0.000050166      0.000149310 2062.83
 10  -3031.336388949     -2.874455295      0.000006296      0.000108722 2063.55
 11  -3031.336401106     -2.874467452     -0.000012157      0.000071018 2067.81
 12  -3031.336407694     -2.874474040     -0.000006588      0.000034733 2071.76
 13  -3031.336410102     -2.874476447     -0.000002408      0.000016807 2063.69
 14  -3031.336410969     -2.874477315     -0.000000867      0.000007855 2054.31
               --- The CCSD iterations have converged ---

E(0)                                       ...  -3028.426649227
E(CORR)(strong-pairs)                      ...     -2.874477315
E(CORR)(weak-pairs)                        ...     -0.035284428
E(CORR)(corrected)                         ...     -2.909761742
E(TOT)                                     ...  -3031.336410969
Singles norm <S|S>**1/2                    ...      0.198777742 ( 0.071017443, 0.127760299)  
T1 diagnostic                              ...      0.020837569                              
<S**2>(linearized)                         ...      8.7507723 (ideal value:      8.7500000)

----------------------
LARGEST PNO AMPLITUDES
----------------------
  71a-> 77a  71b-> 77b       0.064864
  50b-> 73b  -1b-> -1b       0.054525
  51b-> 73b  -1b-> -1b       0.051836
  71a-> 78a  71b-> 78b       0.050789
  48b-> 72b  -1b-> -1b       0.049643
  29a-> 77a  -1a-> -1a       0.049225
  29b-> 77b  -1b-> -1b       0.047445
  48b-> 74b  -1b-> -1b       0.046493
  71a-> 77a  -1a-> -1a       0.045797
  48b-> 75b  -1b-> -1b       0.045055
  62a-> 77a  62b-> 77b       0.044771
  68a-> 77a  68b-> 77b       0.043793
  66a-> 77a  66b-> 77b       0.043648
  58a-> 77a  58b-> 77b       0.043014
  61a-> 77a  61b-> 77b       0.042755
  70a-> 77a  70b-> 77b       0.042642

Total # unrestricted pairs ...       1086
  # of alpha-alpha pairs   ...        306
  # of alpha-beta pairs    ...        543
  # of beta-beta pairs     ...        237

-------------------------------------------
DLPNO BASED TRIPLES CORRECTION
-------------------------------------------

Singles multiplier          ...  1.000000
Fragment selection                          .... not used
TCutTNO                     ... 1.000e-09
TCutMP2Pairs                ... 1.000e-05
TCutDOStrong                ... 2.000e-02
TCutMKNStrong               ... 1.000e-02
TCutDOWeak                  ... 4.000e-02
TCutMKNWeak                 ... 1.000e-01
NTCutTNO                    ... 1

Number of Triples that are to be computed         ...     33168

 . . . . . . . . .
10% done  
20% done  
30% done  
40% done  
50% done  
60% done  
70% done  
80% done  
90% done  
          Batch   1   done (  14955.772 sec)

Triples-Correction TCutTNO=   1.000e-09 (NWeakPairs = 0  1  2  3)  -0.118343833309   -0.001921131360    0.000000000000    0.000000000000
Triples-Correction  -0.120264964670

Triples timings:
Total time                      ... 15617.837 sec

Triples List generation         ...     0.000 sec
TNO generation                  ...   661.449 sec
Pair density generation         ...     0.084 sec
Look up tables                  ...     0.109 sec
Generating 3-index integrals    ...  9324.042 sec
Make 4-ind.int. from 3-ind.int  ...     3.624 sec
Projecting amplitudes (D + S)   ...  5346.670 sec
Sorting integrals for spin cases...    57.824 sec
Calculate W0/W1                 ...   181.260 sec
Energy contr. (sum over a,b,c)  ...    42.517 sec

Everything after 3-index        ...  5769.764 sec

Energy contribution AAA         ...    26.526 sec
Energy contribution AAB         ...   126.213 sec
Energy contribution ABB         ...   113.426 sec
Energy contribution BBB         ...    15.491 sec
prep                ...     3.234 sec
makeTTNO            ...  5290.768 sec
copyij              ...     0.129 sec
copyil              ...     4.035 sec
transposeij         ...     0.079 sec
newMatInDoubleProj  ...    51.372 sec
BlasInDoubleProj    ...  2911.809 sec
ProjSingles         ...    46.082 sec
ProjDoubles         ...  5300.588 sec
overall Doubles for projection      ... 2931912
used Doubles for projection         ... 2931912


Number of Triples   (0, 1, 2, 3 weak pairs; overall):  16743   10727       0       0  ( 27470)
Number of Atoms     (0, 1, 2, 3 weak pairs; overall):   19.4    15.0     0.0     0.0  (    29)
Number of PAOs      (0, 1, 2, 3 weak pairs; overall):  755.0   605.4     0.0     0.0  (  1025)
Number of AuxFcns   (0, 1, 2, 3 weak pairs; overall):  946.4   576.2     0.0     0.0  (  2424)
Number of TNOs (0, 1, 2, 3 weak pairs         ):   80.2    58.2     0.0     0.0
Aver. Number of NTNO, Atoms, PAOs, AuxFcns / Triples:  27470    71.6    17.7   696.6   801.8

Triples Correction (T)                     ...     -0.120264965
    alpha-alpha-alpha ... -0.003962692 (  3.3%)
    alpha-alpha-beta  ... -0.056442451 ( 46.9%)
    alpha-beta -beta  ... -0.055685654 ( 46.3%)
    beta -beta -beta  ... -0.004174169 (  3.5%)
Final correlation energy                   ...     -3.030026707
E(CCSD)                                    ...  -3031.336410969
E(CCSD(T))                                 ...  -3031.456675934

----------------------------
STATISTICS FOR PAIR-ENERGIES
----------------------------
Minimum, maximum and average ratios of UMP and CCSD pair-energies ... 0.53, 1.42, 1.02


------------------------------------------------------------------------------- 
                                     TIMINGS                                   
------------------------------------------------------------------------------- 


Total execution time                   ...    55902.234 sec

Localization of occupied MO's          ...        9.836 sec (  0.0%)
Fock Matrix Formation                  ...     1308.638 sec (  2.3%)
Differential overlap integrals         ...        1.542 sec (  0.0%)
Organizing maps                        ...        1.706 sec (  0.0%)
RI 3-index integral generations        ...      306.250 sec (  0.5%)
RI-PNO integral transformation         ...     5433.511 sec (  9.7%)
Initial Guess                          ...     1806.596 sec (  3.2%)
DIIS Solver                            ...       16.351 sec (  0.0%)
State Vector Update                    ...        0.762 sec (  0.0%)
Sigma-vector construction              ...    31015.587 sec ( 55.5%)
  <0|H|D>                              ...        0.031 sec (  0.0% of sigma)
  <D|H|D>(0-ext)                       ...     5265.217 sec ( 17.0% of sigma)
  <D|H|D>(2-ext Fock)                  ...        1.693 sec (  0.0% of sigma)
  <D|H|D>(2-ext)                       ...     4544.414 sec ( 14.7% of sigma)
  <D|H|D>(4-ext)                       ...      166.361 sec (  0.5% of sigma)
  <D|H|D>(4-ext-corr)                  ...     1033.610 sec (  3.3% of sigma)
  CCSD doubles correction              ...      542.983 sec (  1.8% of sigma)
  <S|H|S>                              ...      707.482 sec (  2.3% of sigma)
  <S|H|D>(1-ext)                       ...      264.873 sec (  0.9% of sigma)
  <D|H|S>(1-ext)                       ...        1.053 sec (  0.0% of sigma)
  <S|H|D>(3-ext)                       ...       23.107 sec (  0.1% of sigma)
  CCSD singles correction              ...        0.004 sec (  0.0% of sigma)
  Fock-dressing                        ...     9446.119 sec ( 30.5% of sigma)
  Singles amplitudes                   ...      120.525 sec (  0.4% of sigma)
  (ik|jl)-dressing                     ...     6964.777 sec ( 22.5% of sigma)
  (ij|ab),(ia|jb)-dressing             ...     1872.970 sec (  6.0% of sigma)
  Pair energies                        ...        0.149 sec (  0.0% of sigma)
Total Time for computing (T)           ...    16346.051 sec ( 29.2% of ALL)


-------------------------   --------------------
FINAL SINGLE POINT ENERGY     -3031.456675933575
-------------------------   --------------------


                            ***************************************
                            *     ORCA property calculations      *
                            ***************************************

                                    ---------------------
                                    Active property flags
                                    ---------------------
   (+) Dipole Moment


------------------------------------------------------------------------------
                       ORCA ELECTRIC PROPERTIES CALCULATION
------------------------------------------------------------------------------

Dipole Moment Calculation                       ... on
Quadrupole Moment Calculation                   ... off
Polarizability Calculation                      ... off
GBWName                                         ... simple-grid-185-295-b3lyp_d3bj-631gd-gas-singlepoint-DLPNO_CCSD_T1-NormalPNO-augtz-gas.gbw
Electron density file                           ... simple-grid-185-295-b3lyp_d3bj-631gd-gas-singlepoint-DLPNO_CCSD_T1-NormalPNO-augtz-gas.scfp.tmp
The origin for moment calculation is the CENTER OF MASS  = ( 0.331724,  0.044064 -0.011827)

-------------
DIPOLE MOMENT
-------------
                                X             Y             Z
Electronic contribution:     43.64561       6.25093      -1.78061
Nuclear contribution   :    -49.42681      -6.56561       1.76220
                        -----------------------------------------
Total Dipole Moment    :     -5.78120      -0.31468      -0.01842
                        -----------------------------------------
Magnitude (a.u.)       :      5.78978
Magnitude (Debye)      :     14.71646



--------------------
Rotational spectrum 
--------------------
 
Rotational constants in cm-1:     0.020266     0.009962     0.009547 
Rotational constants in MHz :   607.559992   298.655805   286.218284 

 Dipole components along the rotational axes: 
x,y,z [a.u.] :    -5.781883     0.290042    -0.085378 
x,y,z [Debye]:   -14.696379     0.737228    -0.217015 

 

Timings for individual modules:

Sum of individual times         ...    77841.742 sec (=1297.362 min)
GTO integral calculation        ...       12.524 sec (=   0.209 min)   0.0 %
SCF iterations                  ...    21906.268 sec (= 365.104 min)  28.1 %
MDCI module                     ...    55922.949 sec (= 932.049 min)  71.8 %
                             ****ORCA TERMINATED NORMALLY****
TOTAL RUN TIME: 0 days 21 hours 37 minutes 25 seconds 20 msec
