
                                 *****************
                                 * O   R   C   A *
                                 *****************

           --- An Ab Initio, DFT and Semiempirical electronic structure package ---

                  #######################################################
                  #                        -***-                        #
                  #          Department of theory and spectroscopy      #
                  #               Directorship: Frank Neese             #
                  #        Max Planck Institute fuer Kohlenforschung    #
                  #                Kaiser Wilhelm Platz 1               #
                  #                 D-45470 Muelheim/Ruhr               #
                  #                      Germany                        #
                  #                                                     #
                  #                  All rights reserved                #
                  #                        -***-                        #
                  #######################################################


                         Program Version 4.1.2  - RELEASE  -


 With contributions from (in alphabetic order):
   Daniel Aravena         : Magnetic Properties
   Michael Atanasov       : Ab Initio Ligand Field Theory
   Alexander A. Auer      : GIAO ZORA
   Ute Becker             : Parallelization
   Giovanni Bistoni       : ED, Open-shell LED
   Martin Brehm           : Molecular dynamics
   Dmytro Bykov           : SCF Hessian
   Vijay G. Chilkuri      : MRCI spin determinant printing
   Dipayan Datta          : RHF DLPNO-CCSD density
   Achintya Kumar Dutta   : EOM-CC, STEOM-CC
   Dmitry Ganyushin       : Spin-Orbit,Spin-Spin,Magnetic field MRCI
   Miquel Garcia          : C-PCM Hessian
   Yang Guo               : DLPNO-NEVPT2, CIM, IAO-localization
   Andreas Hansen         : Spin unrestricted coupled pair/coupled cluster methods
   Benjamin Helmich-Paris : CASSCF linear response (MC-RPA)
   Lee Huntington         : MR-EOM, pCC
   Robert Izsak           : Overlap fitted RIJCOSX, COSX-SCS-MP3, EOM
   Christian Kollmar      : KDIIS, OOCD, Brueckner-CCSD(T), CCSD density
   Simone Kossmann        : Meta GGA functionals, TD-DFT gradient, OOMP2, MP2 Hessian
   Martin Krupicka        : AUTO-CI
   Lucas Lang             : DCDCAS
   Dagmar Lenk            : GEPOL surface, SMD
   Dimitrios Liakos       : Extrapolation schemes; parallel MDCI
   Dimitrios Manganas     : ROCIS; embedding schemes
   Dimitrios Pantazis     : SARC Basis sets
   Taras Petrenko         : DFT Hessian,TD-DFT gradient, ASA, ECA, R-Raman, ABS, FL, XAS/XES, NRVS
   Peter Pinski           : DLPNO-MP2, DLPNO-MP2 Gradient
   Christoph Reimann      : Effective Core Potentials
   Marius Retegan         : Local ZFS, SOC
   Christoph Riplinger    : Optimizer, TS searches, QM/MM, DLPNO-CCSD(T), (RO)-DLPNO pert. Triples
   Tobias Risthaus        : Range-separated hybrids, TD-DFT gradient, RPA, STAB
   Michael Roemelt        : Restricted open shell CIS
   Masaaki Saitow         : Open-shell DLPNO
   Barbara Sandhoefer     : DKH picture change effects
   Avijit Sen             : IP-ROCIS
   Kantharuban Sivalingam : CASSCF convergence, NEVPT2, FIC-MRCI
   Bernardo de Souza      : ESD, SOC TD-DFT
   Georgi Stoychev        : AutoAux, RI-MP2 NMR
   Willem Van den Heuvel  : Paramagnetic NMR
   Boris Wezisla          : Elementary symmetry handling
   Frank Wennmohs         : Technical directorship


 We gratefully acknowledge several colleagues who have allowed us to
 interface, adapt or use parts of their codes:
   Stefan Grimme, W. Hujo, H. Kruse,             : VdW corrections, initial TS optimization,
                  C. Bannwarth                     DFT functionals, gCP, sTDA/sTD-DF
   Ed Valeev                                     : LibInt (2-el integral package), F12 methods
   Garnet Chan, S. Sharma, J. Yang, R. Olivares  : DMRG
   Ulf Ekstrom                                   : XCFun DFT Library
   Mihaly Kallay                                 : mrcc  (arbitrary order and MRCC methods)
   Andreas Klamt, Michael Diedenhofen            : otool_cosmo (COSMO solvation model)
   Jiri Pittner, Ondrej Demel                    : Mk-CCSD
   Frank Weinhold                                : gennbo (NPA and NBO analysis)
   Christopher J. Cramer and Donald G. Truhlar   : smd solvation model
   Lars Goerigk                                  : TD-DFT with DH, B97 family of functionals
   V. Asgeirsson, H. Jonsson                     : NEB implementation
   FAccTs GmbH                                   : IRC, NEB, NEB-TS, Multilevel


 Your calculation uses the libint2 library for the computation of 2-el integrals
 For citations please refer to: http://libint.valeyev.net

 This ORCA versions uses:
   CBLAS   interface :  Fast vector & matrix operations
   LAPACKE interface :  Fast linear algebra routines
   SCALAPACK package :  Parallel linear algebra routines


----- Orbital basis set information -----
Your calculation utilizes the basis: aug-cc-pVTZ 
    H, B-Ne : Obtained from the ccRepo (grant-hill.group.shef.ac.uk/ccrepo) Feb. 2017
              R. A. Kendall, T. H. Dunning, Jr., R. J. Harrison, J. Chem. Phys. 96, 6796 (1992)
         He : Obtained from the ccRepo (grant-hill.group.shef.ac.uk/ccrepo) Feb. 2017
              D. E. Woon, T. H. Dunning, Jr., J. Chem. Phys. 100, 2975 (1994)
  Li-Be, Na : Obtained from the ccRepo (grant-hill.group.shef.ac.uk/ccrepo) Feb. 2017
              B. P. Prascher, D. E. Woon, K. A. Peterson, T. H. Dunning, Jr., A. K. Wilson, Theor. Chem. Acc. 128, 69 (2011)
         Mg : Obtained from the Peterson Research Group Website (tyr0.chem.wsu.edu/~kipeters) Feb. 2017
              B. P. Prascher, D. E. Woon, K. A. Peterson, T. H. Dunning, Jr., A. K. Wilson, Theor. Chem. Acc. 128, 69 (2011)
      Al-Ar : Obtained from the ccRepo (grant-hill.group.shef.ac.uk/ccrepo) Feb. 2017
              D. E. Woon, T. H. Dunning, Jr., J. Chem. Phys. 98, 1358 (1993)
      Sc-Zn : Obtained from the ccRepo (grant-hill.group.shef.ac.uk/ccrepo) Feb. 2017
              N. B. Balabanov, K. A. Peterson, J. Chem. Phys. 123, 064107 (2005)
              N. B. Balabanov, K. A. Peterson, J. Chem. Phys. 125, 074110 (2006)
      Ga-Kr : Obtained from the ccRepo (grant-hill.group.shef.ac.uk/ccrepo) Feb. 2017
              A. K. Wilson, D. E. Woon, K. A. Peterson, T. H. Dunning, Jr., J. Chem. Phys. 110, 7667 (1999)
     Ag, Au : Obtained from the Peterson Research Group Website (tyr0.chem.wsu.edu/~kipeters) Feb. 2017
              K. A. Peterson, C. Puzzarini, Theor. Chem. Acc. 114, 283 (2005)

----- AuxJ basis set information -----
Your calculation utilizes the AutoAux generation procedure.
  G. L. Stoychev, A. A. Auer, F. Neese, J. Chem. Theory Comput. 13, 554 (2017)

----- AuxC basis set information -----
Your calculation utilizes the auxiliary basis: aug-cc-pVTZ/C 
  H-He, B-F, Al-Ar, Ga-Kr : Obtained from the EMSL Basis Set Exchange (bse.pnl.gov) Feb. 2017
                            F. Weigend, A. Kohn, C. Hattig, J. Chem. Phys. 116, 3175 (2002)
                   Be, Mg : Obtained from the TURBOMOLE 7.0 basis set library
                            C. Haettig, Phys. Chem. Chem. Phys. 7, 59 (2005)
                       Ne : Obtained from the EMSL Basis Set Exchange (bse.pnl.gov) Feb. 2017
                            C. Haettig, Phys. Chem. Chem. Phys. 7, 59 (2005)
                            F. Weigend, A. Kohn, C. Hattig, J. Chem. Phys. 116, 3175 (2002)
                    Sc-Zn : Obtained from the EMSL Basis Set Exchange (bse.pnl.gov) Feb. 2017
                            J. G. Hill, J. A. Platts, J. Chem. Phys. 128, 044104 (2008)

----- AuxJK basis set information -----
Your calculation utilizes the AutoAux generation procedure.
  G. L. Stoychev, A. A. Auer, F. Neese, J. Chem. Theory Comput. 13, 554 (2017)

================================================================================
                                        WARNINGS
                       Please study these warnings very carefully!
================================================================================


WARNING: your system is open-shell and RHF/RKS was chosen
  ===> : WILL SWITCH to UHF/UKS


WARNING: MDCI localization with Augmented Hessian Foster-Boys
  ===> : Switching off randomization!

WARNING: Post HF methods need fully converged wavefunctions
  ===> : Setting SCFConvForced true
         You can overwrite this default with %scf ConvForced false 


INFO   : the flag for use of LIBINT has been found!

================================================================================
                                       INPUT FILE
================================================================================
NAME = simple-grid-180-200-b3lyp_d3bj-631gd-gas-singlepoint-DLPNO_CCSD_T1-NormalPNO-augtz-gas.inp
|  1> ! aug-cc-pVTZ aug-cc-pVTZ/C DLPNO-CCSD(T1) TightSCF NormalPNO UNO MiniPrint AutoAux
|  2> %pal nproc 10 end
|  3> %maxcore 20000
|  4> %mdci
|  5>      density none
|  6> end
|  7> 
|  8> * xyz 0 6
|  9>  O     -0.42438900     -0.16648000     -0.50079700
| 10>  C     -1.41109800     -1.21727300     -0.35675000
| 11>  C     -2.81865400     -0.10642800     -0.19924300
| 12>  C     -1.94047100      1.11993100     -0.28484800
| 13>  C     -1.84923900      1.84570700     -1.57904200
| 14> Fe      1.37376100      0.04535900      0.04208000
| 15> Cl      1.85469700      2.00846400     -0.84907300
| 16>  C     -1.55908000      1.86606900      0.94288100
| 17> Cl      2.43542000     -1.70778800     -0.73544800
| 18> Cl      1.36868200      0.14977100      2.25041100
| 19>  H     -3.40906100     -0.21366000     -1.11208100
| 20>  H     -2.42195600      2.49344700      1.21693300
| 21>  H     -1.33907300      1.20949700      1.78485500
| 22>  H     -0.70457500      2.52086000      0.75931700
| 23>  H     -2.65502400      2.59738900     -1.58524500
| 24>  H     -0.89308800      2.36707600     -1.67052900
| 25>  H     -1.99829400      1.18041700     -2.43111200
| 26>  C     -3.67439300     -0.28924600      1.04037300
| 27>  H     -4.45036800      0.48332700      1.10603500
| 28>  H     -4.18081600     -1.25833000      0.99813100
| 29>  H     -3.09033900     -0.25910800      1.96321700
| 30>  C     -1.18311000     -2.05133300      0.88087100
| 31>  H     -1.99799000     -2.76851300      1.02166000
| 32>  H     -0.25040300     -2.61612100      0.76066500
| 33>  H     -1.08215300     -1.43625200      1.77692500
| 34>  C     -1.49041000     -2.02151700     -1.63347000
| 35>  H     -0.53242800     -2.53113400     -1.79141100
| 36>  H     -2.28350800     -2.77458800     -1.57390600
| 37>  H     -1.67445000     -1.37485600     -2.49595000
| 38> *
| 39> 
| 40> 
| 41>                          ****END OF INPUT****
================================================================================

                       ****************************
                       * Single Point Calculation *
                       ****************************

---------------------------------
CARTESIAN COORDINATES (ANGSTROEM)
---------------------------------
  O     -0.424389   -0.166480   -0.500797
  C     -1.411098   -1.217273   -0.356750
  C     -2.818654   -0.106428   -0.199243
  C     -1.940471    1.119931   -0.284848
  C     -1.849239    1.845707   -1.579042
  Fe     1.373761    0.045359    0.042080
  Cl     1.854697    2.008464   -0.849073
  C     -1.559080    1.866069    0.942881
  Cl     2.435420   -1.707788   -0.735448
  Cl     1.368682    0.149771    2.250411
  H     -3.409061   -0.213660   -1.112081
  H     -2.421956    2.493447    1.216933
  H     -1.339073    1.209497    1.784855
  H     -0.704575    2.520860    0.759317
  H     -2.655024    2.597389   -1.585245
  H     -0.893088    2.367076   -1.670529
  H     -1.998294    1.180417   -2.431112
  C     -3.674393   -0.289246    1.040373
  H     -4.450368    0.483327    1.106035
  H     -4.180816   -1.258330    0.998131
  H     -3.090339   -0.259108    1.963217
  C     -1.183110   -2.051333    0.880871
  H     -1.997990   -2.768513    1.021660
  H     -0.250403   -2.616121    0.760665
  H     -1.082153   -1.436252    1.776925
  C     -1.490410   -2.021517   -1.633470
  H     -0.532428   -2.531134   -1.791411
  H     -2.283508   -2.774588   -1.573906
  H     -1.674450   -1.374856   -2.495950

----------------------------
CARTESIAN COORDINATES (A.U.)
----------------------------
  NO LB      ZA    FRAG     MASS         X           Y           Z
   0 O     8.0000    0    15.999   -0.801979   -0.314602   -0.946369
   1 C     6.0000    0    12.011   -2.666589   -2.300313   -0.674160
   2 C     6.0000    0    12.011   -5.326484   -0.201120   -0.376515
   3 C     6.0000    0    12.011   -3.666959    2.116363   -0.538285
   4 C     6.0000    0    12.011   -3.494555    3.487881   -2.983957
   5 Fe   26.0000    0    55.850    2.596032    0.085716    0.079520
   6 Cl   17.0000    0    35.453    3.504869    3.795447   -1.604515
   7 C     6.0000    0    12.011   -2.946234    3.526359    1.781787
   8 Cl   17.0000    0    35.453    4.602277   -3.227252   -1.389795
   9 Cl   17.0000    0    35.453    2.586434    0.283026    4.252660
  10 H     1.0000    0     1.008   -6.442192   -0.403759   -2.101529
  11 H     1.0000    0     1.008   -4.576834    4.711932    2.299670
  12 H     1.0000    0     1.008   -2.530481    2.285618    3.372887
  13 H     1.0000    0     1.008   -1.331454    4.763735    1.434901
  14 H     1.0000    0     1.008   -5.017268    4.908354   -2.995679
  15 H     1.0000    0     1.008   -1.687692    4.473125   -3.156842
  16 H     1.0000    0     1.008   -3.776228    2.230665   -4.594136
  17 C     6.0000    0    12.011   -6.943596   -0.546596    1.966020
  18 H     1.0000    0     1.008   -8.409977    0.913356    2.090103
  19 H     1.0000    0     1.008   -7.900597   -2.377899    1.886194
  20 H     1.0000    0     1.008   -5.839894   -0.489643    3.709942
  21 C     6.0000    0    12.011   -2.235754   -3.876458    1.664605
  22 H     1.0000    0     1.008   -3.775654   -5.231731    1.930658
  23 H     1.0000    0     1.008   -0.473193   -4.943752    1.437449
  24 H     1.0000    0     1.008   -2.044973   -2.714123    3.357902
  25 C     6.0000    0    12.011   -2.816467   -3.820114   -3.086811
  26 H     1.0000    0     1.008   -1.006143   -4.783150   -3.385276
  27 H     1.0000    0     1.008   -4.315205   -5.243211   -2.974251
  28 H     1.0000    0     1.008   -3.164252   -2.598101   -4.716662



           ************************************************************
           *        Program running with 10 parallel MPI-processes    *
           *              working on a common directory               *
           ************************************************************


           ************************************************************
           *        Program running with 10 parallel MPI-processes    *
           *              working on a common directory               *
           ************************************************************

Diagonalization of the overlap matrix:
Smallest eigenvalue                        ... 7.630e-07
Time for diagonalization                   ...    0.347 sec
Threshold for overlap eigenvalues          ... 1.000e-08
Number of eigenvalues below threshold      ... 0
Time for construction of square roots      ...    0.286 sec
Total time needed                          ...    0.638 sec

-------------------
DFT GRID GENERATION
-------------------

General Integration Accuracy     IntAcc      ...  4.340
Radial Grid Type                 RadialGrid  ... Gauss-Chebyshev
Angular Grid (max. acc.)         AngularGrid ... Lebedev-110
Angular grid pruning method      GridPruning ... 3 (G Style)
Weight generation scheme         WeightScheme... Becke
Basis function cutoff            BFCut       ...    1.0000e-11
Integration weight cutoff        WCut        ...    1.0000e-14
Grids for H and He will be reduced by one unit

# of grid points (after initial pruning)     ...  36112 (   0.0 sec)
# of grid points (after weights+screening)   ...  32274 (   0.1 sec)
nearest neighbour list constructed           ...    0.0 sec
Grid point re-assignment to atoms done       ...    0.0 sec
Grid point division into batches done        ...    0.0 sec
Reduced shell lists constructed in    0.3 sec

Total number of grid points                  ...    32274
Total number of batches                      ...      521
Average number of points per batch           ...       61
Average number of grid points per atom       ...     1113
Average number of shells per batch           ...   294.63 (85.90%)
Average number of basis functions per batch  ...   877.44 (85.60%)
Average number of large shells per batch     ...   243.26 (82.56%)
Average number of large basis fcns per batch ...   724.00 (82.51%)
Maximum spatial batch extension              ...   3.31,  2.82,  2.59 au
Average spatial batch extension              ...   0.17,  0.17,  0.16 au

Time for grid setup =    0.397 sec

Loading Hartree-Fock densities                     ... done
Calculating cut-offs                               ... done
Setting up the integral package                    ... done
Initializing the effective Hamiltonian             ... done
Starting the Coulomb interaction                   ... done (   1.1 sec)
Reading the grid                                   ... done
Mapping shells                                     ... done
Starting the XC term evaluation                    ... done (   0.9 sec)
Transforming the Hamiltonian                       ... done (   0.2 sec)
Diagonalizing the Hamiltonian                      ... done (   0.4 sec)
Back transforming the eigenvectors                 ... done (   0.1 sec)
Now organizing SCF variables                       ... done
--------------
SCF ITERATIONS
--------------
ITER       Energy         Delta-E        Max-DP      RMS-DP      [F,P]     Damp
               ***  Starting incremental Fock matrix formation  ***
  0  -3027.5719325837   0.000000000000 0.26555535  0.00123739  0.2474583 0.7000
  1  -3027.8189842052  -0.247051621489 0.18650539  0.00095462  0.1529583 0.7000
                               ***Turning on DIIS***
  2  -3027.9860247242  -0.167040519009 0.13008526  0.00069513  0.1096357 0.7000
  3  -3029.6284107033  -1.642385979114 0.29727732  0.00171484  0.0817113 0.0000
  4  -3028.2977260818   1.330684621528 0.04579962  0.00022291  0.0192129 0.0000
  5  -3028.4201608719  -0.122434790170 0.03920228  0.00017230  0.0120492 0.0000
  6  -3028.4369587117  -0.016797839741 0.01973091  0.00006735  0.0056002 0.0000
  7  -3028.4578047237  -0.020846012042 0.00923570  0.00003187  0.0034180 0.0000
  8  -3028.4545352692   0.003269454473 0.00569826  0.00001767  0.0014857 0.0000
  9  -3028.4452550760   0.009280193215 0.00232326  0.00001025  0.0007506 0.0000
 10  -3028.4364413923   0.008813683742 0.00087033  0.00000308  0.0003967 0.0000
 11  -3028.4418569109  -0.005415518575 0.00024418  0.00000167  0.0000904 0.0000
 12  -3028.4390622392   0.002794671628 0.00023130  0.00000137  0.0000234 0.0000
 13  -3028.4392062695  -0.000144030240 0.00093569  0.00000214  0.0000104 0.0000
 14  -3028.4391878226   0.000018446905 0.00083972  0.00000271  0.0000069 0.0000
 15  -3028.4391421595   0.000045663078 0.00137092  0.00000274  0.0000047 0.0000
 16  -3028.4391785286  -0.000036369142 0.00116887  0.00000306  0.0000038 0.0000
 17  -3028.4391778650   0.000000663619 0.00133169  0.00000284  0.0000024 0.0000
 18  -3028.4391639138   0.000013951248 0.00186701  0.00000435  0.0000017 0.0000
                            ***DIIS convergence achieved***

               *****************************************************
               *                     SUCCESS                       *
               *           SCF CONVERGED AFTER  19 CYCLES          *
               *****************************************************

Total Energy       :        -3028.43917566 Eh          -82408.01951 eV
  Last Energy change         ...   -1.1747e-05  Tolerance :   1.0000e-08
  Last MAX-Density change    ...    1.2061e-03  Tolerance :   1.0000e-07
             **** THE GBW FILE WAS UPDATED (simple-grid-180-200-b3lyp_d3bj-631gd-gas-singlepoint-DLPNO_CCSD_T1-NormalPNO-augtz-gas.gbw) ****
             **** DENSITY FILE WAS UPDATED (simple-grid-180-200-b3lyp_d3bj-631gd-gas-singlepoint-DLPNO_CCSD_T1-NormalPNO-augtz-gas.scfp.tmp) ****
             **** ENERGY FILE WAS UPDATED (simple-grid-180-200-b3lyp_d3bj-631gd-gas-singlepoint-DLPNO_CCSD_T1-NormalPNO-augtz-gas.en.tmp) ****
----------------------
UHF SPIN CONTAMINATION
----------------------

Expectation value of <S**2>     :     8.764592
Ideal value S*(S+1) for S=2.5   :     8.750000
Deviation                       :     0.014592

----------------
ORBITAL ENERGIES
----------------
                 SPIN UP ORBITALS
  NO   OCC          E(Eh)            E(eV) 
   0   1.0000    -261.552363     -7117.2016 
   1   1.0000    -104.779363     -2851.1914 
   2   1.0000    -104.777212     -2851.1329 
   3   1.0000    -104.776119     -2851.1031 
   4   1.0000     -32.220282      -876.7584 
   5   1.0000     -27.696256      -753.6534 
   6   1.0000     -27.695947      -753.6450 
   7   1.0000     -27.695677      -753.6377 
   8   1.0000     -20.567755      -559.6771 
   9   1.0000     -11.398939      -310.1809 
  10   1.0000     -11.347672      -308.7859 
  11   1.0000     -11.291542      -307.2585 
  12   1.0000     -11.274745      -306.8014 
  13   1.0000     -11.272794      -306.7483 
  14   1.0000     -11.260711      -306.4195 
  15   1.0000     -11.239583      -305.8446 
  16   1.0000     -11.237528      -305.7887 
  17   1.0000     -10.505967      -285.8819 
  18   1.0000     -10.503880      -285.8251 
  19   1.0000     -10.502748      -285.7943 
  20   1.0000      -7.972788      -216.9506 
  21   1.0000      -7.972054      -216.9306 
  22   1.0000      -7.971986      -216.9288 
  23   1.0000      -7.970761      -216.8954 
  24   1.0000      -7.969930      -216.8728 
  25   1.0000      -7.969894      -216.8718 
  26   1.0000      -7.969548      -216.8624 
  27   1.0000      -7.968862      -216.8438 
  28   1.0000      -7.968796      -216.8420 
  29   1.0000      -4.575636      -124.5094 
  30   1.0000      -3.188091       -86.7524 
  31   1.0000      -3.187759       -86.7433 
  32   1.0000      -3.187179       -86.7276 
  33   1.0000      -1.362589       -37.0779 
  34   1.0000      -1.162769       -31.6405 
  35   1.0000      -1.084807       -29.5191 
  36   1.0000      -1.050976       -28.5985 
  37   1.0000      -1.045148       -28.4399 
  38   1.0000      -1.043674       -28.3998 
  39   1.0000      -1.037754       -28.2387 
  40   1.0000      -1.007882       -27.4259 
  41   1.0000      -0.967551       -26.3284 
  42   1.0000      -0.928204       -25.2577 
  43   1.0000      -0.905509       -24.6402 
  44   1.0000      -0.905045       -24.6275 
  45   1.0000      -0.903185       -24.5769 
  46   1.0000      -0.896454       -24.3938 
  47   1.0000      -0.895845       -24.3772 
  48   1.0000      -0.792631       -21.5686 
  49   1.0000      -0.757743       -20.6192 
  50   1.0000      -0.693863       -18.8810 
  51   1.0000      -0.685449       -18.6520 
  52   1.0000      -0.668142       -18.1811 
  53   1.0000      -0.638570       -17.3764 
  54   1.0000      -0.626457       -17.0468 
  55   1.0000      -0.623589       -16.9687 
  56   1.0000      -0.597653       -16.2630 
  57   1.0000      -0.595225       -16.1969 
  58   1.0000      -0.589546       -16.0424 
  59   1.0000      -0.580629       -15.7997 
  60   1.0000      -0.571435       -15.5496 
  61   1.0000      -0.559225       -15.2173 
  62   1.0000      -0.545355       -14.8399 
  63   1.0000      -0.537643       -14.6300 
  64   1.0000      -0.531775       -14.4703 
  65   1.0000      -0.521665       -14.1952 
  66   1.0000      -0.507085       -13.7985 
  67   1.0000      -0.481541       -13.1034 
  68   1.0000      -0.465915       -12.6782 
  69   1.0000      -0.454981       -12.3807 
  70   1.0000      -0.436629       -11.8813 
  71   1.0000      -0.429020       -11.6742 
  72   1.0000      -0.425497       -11.5783 
  73   1.0000      -0.419239       -11.4081 
  74   1.0000      -0.416407       -11.3310 
  75   1.0000      -0.415318       -11.3014 
  76   1.0000      -0.406150       -11.0519 
  77   0.0000       0.008685         0.2363 
  78   0.0000       0.020672         0.5625 
  79   0.0000       0.022864         0.6222 
  80   0.0000       0.031022         0.8441 
  81   0.0000       0.037747         1.0272 
  82   0.0000       0.040982         1.1152 
  83   0.0000       0.043159         1.1744 
  84   0.0000       0.043838         1.1929 
  85   0.0000       0.045346         1.2339 
  86   0.0000       0.054095         1.4720 
  87   0.0000       0.056573         1.5394 
  88   0.0000       0.060863         1.6562 
  89   0.0000       0.062865         1.7107 
  90   0.0000       0.065260         1.7758 
  91   0.0000       0.066013         1.7963 
  92   0.0000       0.070697         1.9238 
  93   0.0000       0.072812         1.9813 
  94   0.0000       0.082896         2.2557 
  95   0.0000       0.087477         2.3804 
  96   0.0000       0.089749         2.4422 
  97   0.0000       0.090642         2.4665 
  98   0.0000       0.094685         2.5765 
  99   0.0000       0.101054         2.7498 
 100   0.0000       0.103213         2.8086 
 101   0.0000       0.111126         3.0239 
 102   0.0000       0.116127         3.1600 
 103   0.0000       0.119247         3.2449 
 104   0.0000       0.122950         3.3456 
 105   0.0000       0.124728         3.3940 
 106   0.0000       0.127994         3.4829 
 107   0.0000       0.129089         3.5127 
 108   0.0000       0.131909         3.5894 
 109   0.0000       0.132137         3.5956 
 110   0.0000       0.136389         3.7113 
 111   0.0000       0.137412         3.7392 
 112   0.0000       0.145803         3.9675 
 113   0.0000       0.147703         4.0192 
 114   0.0000       0.149991         4.0815 
 115   0.0000       0.152946         4.1619 
 116   0.0000       0.157628         4.2893 
 117   0.0000       0.159789         4.3481 
 118   0.0000       0.165061         4.4915 
 119   0.0000       0.165661         4.5079 
 120   0.0000       0.172052         4.6818 
 121   0.0000       0.175481         4.7751 
 122   0.0000       0.178904         4.8682 
 123   0.0000       0.182914         4.9773 
 124   0.0000       0.185060         5.0357 
 125   0.0000       0.188651         5.1335 
 126   0.0000       0.193585         5.2677 
 127   0.0000       0.195859         5.3296 
 128   0.0000       0.197011         5.3609 
 129   0.0000       0.197911         5.3854 
 130   0.0000       0.201970         5.4959 
 131   0.0000       0.206270         5.6129 
 132   0.0000       0.207739         5.6529 
 133   0.0000       0.211447         5.7538 
 134   0.0000       0.213781         5.8173 
 135   0.0000       0.219668         5.9775 
 136   0.0000       0.221772         6.0347 
 137   0.0000       0.227672         6.1953 
 138   0.0000       0.227776         6.1981 
 139   0.0000       0.233201         6.3457 
 140   0.0000       0.240032         6.5316 
 141   0.0000       0.242563         6.6005 
 142   0.0000       0.244478         6.6526 
 143   0.0000       0.249122         6.7790 
 144   0.0000       0.251327         6.8390 
 145   0.0000       0.252565         6.8726 
 146   0.0000       0.255017         6.9394 
 147   0.0000       0.258769         7.0415 
 148   0.0000       0.259962         7.0739 
 149   0.0000       0.262010         7.1297 
 150   0.0000       0.269187         7.3250 
 151   0.0000       0.273934         7.4541 
 152   0.0000       0.274955         7.4819 
 153   0.0000       0.280378         7.6295 
 154   0.0000       0.282153         7.6778 
 155   0.0000       0.286716         7.8019 
 156   0.0000       0.292250         7.9525 
 157   0.0000       0.296048         8.0559 
 158   0.0000       0.297752         8.1023 
 159   0.0000       0.303466         8.2577 
 160   0.0000       0.305562         8.3148 
 161   0.0000       0.308930         8.4064 
 162   0.0000       0.311198         8.4681 
 163   0.0000       0.316496         8.6123 
 164   0.0000       0.322257         8.7691 
 165   0.0000       0.327615         8.9149 
 166   0.0000       0.330629         8.9969 
 167   0.0000       0.339229         9.2309 
 168   0.0000       0.343669         9.3517 
 169   0.0000       0.346580         9.4309 
 170   0.0000       0.350944         9.5497 
 171   0.0000       0.354364         9.6427 
 172   0.0000       0.360259         9.8031 
 173   0.0000       0.362157         9.8548 
 174   0.0000       0.364225         9.9111 
 175   0.0000       0.365793         9.9537 
 176   0.0000       0.368447        10.0260 
 177   0.0000       0.375460        10.2168 
 178   0.0000       0.377090        10.2611 
 179   0.0000       0.379002        10.3132 
 180   0.0000       0.381633        10.3847 
 181   0.0000       0.383713        10.4414 
 182   0.0000       0.386983        10.5303 
 183   0.0000       0.392706        10.6861 
 184   0.0000       0.393273        10.7015 
 185   0.0000       0.399117        10.8605 
 186   0.0000       0.400005        10.8847 
 187   0.0000       0.401450        10.9240 
 188   0.0000       0.404218        10.9993 
 189   0.0000       0.407891        11.0993 
 190   0.0000       0.414099        11.2682 
 191   0.0000       0.416055        11.3214 
 192   0.0000       0.420274        11.4362 
 193   0.0000       0.425983        11.5916 
 194   0.0000       0.427258        11.6263 
 195   0.0000       0.430467        11.7136 
 196   0.0000       0.434720        11.8293 
 197   0.0000       0.437532        11.9059 
 198   0.0000       0.444307        12.0902 
 199   0.0000       0.446517        12.1504 
 200   0.0000       0.454924        12.3791 
 201   0.0000       0.457449        12.4478 
 202   0.0000       0.460854        12.5405 
 203   0.0000       0.462680        12.5902 
 204   0.0000       0.467741        12.7279 
 205   0.0000       0.470075        12.7914 
 206   0.0000       0.470999        12.8165 
 207   0.0000       0.472057        12.8453 
 208   0.0000       0.476905        12.9772 
 209   0.0000       0.478542        13.0218 
 210   0.0000       0.480964        13.0877 
 211   0.0000       0.483979        13.1697 
 212   0.0000       0.489661        13.3243 
 213   0.0000       0.490143        13.3375 
 214   0.0000       0.493336        13.4244 
 215   0.0000       0.495932        13.4950 
 216   0.0000       0.497355        13.5337 
 217   0.0000       0.501306        13.6412 
 218   0.0000       0.504941        13.7401 
 219   0.0000       0.510776        13.8989 
 220   0.0000       0.511791        13.9265 
 221   0.0000       0.517871        14.0920 
 222   0.0000       0.521163        14.1816 
 223   0.0000       0.524179        14.2636 
 224   0.0000       0.526845        14.3362 
 225   0.0000       0.529444        14.4069 
 226   0.0000       0.533754        14.5242 
 227   0.0000       0.536688        14.6040 
 228   0.0000       0.542242        14.7552 
 229   0.0000       0.548211        14.9176 
 230   0.0000       0.551216        14.9994 
 231   0.0000       0.557911        15.1815 
 232   0.0000       0.559149        15.2152 
 233   0.0000       0.560826        15.2609 
 234   0.0000       0.568417        15.4674 
 235   0.0000       0.573306        15.6004 
 236   0.0000       0.575969        15.6729 
 237   0.0000       0.577194        15.7063 
 238   0.0000       0.579430        15.7671 
 239   0.0000       0.583675        15.8826 
 240   0.0000       0.584354        15.9011 
 241   0.0000       0.590477        16.0677 
 242   0.0000       0.593985        16.1631 
 243   0.0000       0.597700        16.2643 
 244   0.0000       0.603001        16.4085 
 245   0.0000       0.604011        16.4360 
 246   0.0000       0.607599        16.5336 
 247   0.0000       0.613603        16.6970 
 248   0.0000       0.616822        16.7846 
 249   0.0000       0.617663        16.8075 
 250   0.0000       0.619102        16.8466 
 251   0.0000       0.620314        16.8796 
 252   0.0000       0.630697        17.1621 
 253   0.0000       0.638309        17.3693 
 254   0.0000       0.641173        17.4472 
 255   0.0000       0.642086        17.4721 
 256   0.0000       0.644587        17.5401 
 257   0.0000       0.652316        17.7504 
 258   0.0000       0.657902        17.9024 
 259   0.0000       0.660246        17.9662 
 260   0.0000       0.663022        18.0417 
 261   0.0000       0.665101        18.0983 
 262   0.0000       0.670653        18.2494 
 263   0.0000       0.673755        18.3338 
 264   0.0000       0.682263        18.5653 
 265   0.0000       0.682741        18.5783 
 266   0.0000       0.686060        18.6686 
 267   0.0000       0.692119        18.8335 
 268   0.0000       0.695552        18.9269 
 269   0.0000       0.699143        19.0246 
 270   0.0000       0.703484        19.1428 
 271   0.0000       0.705798        19.2057 
 272   0.0000       0.714441        19.4409 
 273   0.0000       0.715450        19.4684 
 274   0.0000       0.724697        19.7200 
 275   0.0000       0.727916        19.8076 
 276   0.0000       0.731610        19.9081 
 277   0.0000       0.738997        20.1091 
 278   0.0000       0.740531        20.1509 
 279   0.0000       0.748553        20.3692 
 280   0.0000       0.754480        20.5304 
 281   0.0000       0.762357        20.7448 
 282   0.0000       0.767007        20.8713 
 283   0.0000       0.771616        20.9967 
 284   0.0000       0.773984        21.0612 
 285   0.0000       0.776908        21.1407 
 286   0.0000       0.786262        21.3953 
 287   0.0000       0.792085        21.5537 
 288   0.0000       0.800933        21.7945 
 289   0.0000       0.803920        21.8758 
 290   0.0000       0.806968        21.9587 
 291   0.0000       0.810618        22.0580 
 292   0.0000       0.824332        22.4312 
 293   0.0000       0.825245        22.4561 
 294   0.0000       0.831773        22.6337 
 295   0.0000       0.833358        22.6768 
 296   0.0000       0.841238        22.8912 
 297   0.0000       0.848600        23.0916 
 298   0.0000       0.848991        23.1022 
 299   0.0000       0.854900        23.2630 
 300   0.0000       0.861079        23.4312 
 301   0.0000       0.865171        23.5425 
 302   0.0000       0.868473        23.6323 
 303   0.0000       0.873863        23.7790 
 304   0.0000       0.878234        23.8980 
 305   0.0000       0.880423        23.9575 
 306   0.0000       0.883101        24.0304 
 307   0.0000       0.887180        24.1414 
 308   0.0000       0.897290        24.4165 
 309   0.0000       0.903457        24.5843 
 310   0.0000       0.908928        24.7332 
 311   0.0000       0.913206        24.8496 
 312   0.0000       0.918747        25.0004 
 313   0.0000       0.919689        25.0260 
 314   0.0000       0.921886        25.0858 
 315   0.0000       0.924396        25.1541 
 316   0.0000       0.934446        25.4276 
 317   0.0000       0.936584        25.4858 
 318   0.0000       0.937493        25.5105 
 319   0.0000       0.941582        25.6218 
 320   0.0000       0.946922        25.7671 
 321   0.0000       0.950179        25.8557 
 322   0.0000       0.951664        25.8961 
 323   0.0000       0.958684        26.0871 
 324   0.0000       0.964727        26.2515 
 325   0.0000       0.965600        26.2753 
 326   0.0000       0.967961        26.3395 
 327   0.0000       0.972480        26.4625 
 328   0.0000       0.975770        26.5520 
 329   0.0000       0.977238        26.5920 
 330   0.0000       0.983451        26.7611 
 331   0.0000       0.990113        26.9423 
 332   0.0000       0.993628        27.0380 
 333   0.0000       0.997255        27.1367 
 334   0.0000       0.998091        27.1594 
 335   0.0000       1.003814        27.3152 
 336   0.0000       1.006045        27.3759 
 337   0.0000       1.009881        27.4803 
 338   0.0000       1.014532        27.6068 
 339   0.0000       1.017924        27.6991 
 340   0.0000       1.019884        27.7525 
 341   0.0000       1.024110        27.8674 
 342   0.0000       1.031231        28.0612 
 343   0.0000       1.034684        28.1552 
 344   0.0000       1.035557        28.1790 
 345   0.0000       1.040997        28.3270 
 346   0.0000       1.041873        28.3508 
 347   0.0000       1.044986        28.4355 
 348   0.0000       1.048336        28.5267 
 349   0.0000       1.055681        28.7265 
 350   0.0000       1.058376        28.7999 
 351   0.0000       1.062547        28.9134 
 352   0.0000       1.065150        28.9842 
 353   0.0000       1.066808        29.0293 
 354   0.0000       1.070219        29.1221 
 355   0.0000       1.074934        29.2505 
 356   0.0000       1.079177        29.3659 
 357   0.0000       1.083843        29.4929 
 358   0.0000       1.088397        29.6168 
 359   0.0000       1.093075        29.7441 
 360   0.0000       1.093739        29.7621 
 361   0.0000       1.100562        29.9478 
 362   0.0000       1.106239        30.1023 
 363   0.0000       1.110649        30.2223 
 364   0.0000       1.115521        30.3549 
 365   0.0000       1.118161        30.4267 
 366   0.0000       1.125639        30.6302 
 367   0.0000       1.127949        30.6930 
 368   0.0000       1.131565        30.7914 
 369   0.0000       1.137651        30.9571 
 370   0.0000       1.145376        31.1673 
 371   0.0000       1.147373        31.2216 
 372   0.0000       1.150221        31.2991 
 373   0.0000       1.155803        31.4510 
 374   0.0000       1.157876        31.5074 
 375   0.0000       1.159771        31.5590 
 376   0.0000       1.165701        31.7203 
 377   0.0000       1.170153        31.8415 
 378   0.0000       1.175056        31.9749 
 379   0.0000       1.179755        32.1028 
 380   0.0000       1.186817        32.2949 
 381   0.0000       1.189327        32.3632 
 382   0.0000       1.192600        32.4523 
 383   0.0000       1.199302        32.6347 
 384   0.0000       1.201110        32.6839 
 385   0.0000       1.206435        32.8288 
 386   0.0000       1.208470        32.8841 
 387   0.0000       1.213030        33.0082 
 388   0.0000       1.215469        33.0746 
 389   0.0000       1.217272        33.1237 
 390   0.0000       1.223177        33.2843 
 391   0.0000       1.227444        33.4005 
 392   0.0000       1.232572        33.5400 
 393   0.0000       1.238737        33.7078 
 394   0.0000       1.243337        33.8329 
 395   0.0000       1.245578        33.8939 
 396   0.0000       1.250917        34.0392 
 397   0.0000       1.260811        34.3084 
 398   0.0000       1.268701        34.5231 
 399   0.0000       1.270522        34.5727 
 400   0.0000       1.272997        34.6400 
 401   0.0000       1.281978        34.8844 
 402   0.0000       1.288390        35.0589 
 403   0.0000       1.296181        35.2709 
 404   0.0000       1.299262        35.3547 
 405   0.0000       1.305506        35.5246 
 406   0.0000       1.311541        35.6888 
 407   0.0000       1.313719        35.7481 
 408   0.0000       1.317940        35.8630 
 409   0.0000       1.324714        36.0473 
 410   0.0000       1.329098        36.1666 
 411   0.0000       1.332375        36.2558 
 412   0.0000       1.338233        36.4152 
 413   0.0000       1.344562        36.5874 
 414   0.0000       1.348008        36.6812 
 415   0.0000       1.352930        36.8151 
 416   0.0000       1.355184        36.8764 
 417   0.0000       1.367466        37.2106 
 418   0.0000       1.373795        37.3828 
 419   0.0000       1.382522        37.6203 
 420   0.0000       1.386472        37.7278 
 421   0.0000       1.389835        37.8193 
 422   0.0000       1.393277        37.9130 
 423   0.0000       1.406033        38.2601 
 424   0.0000       1.412666        38.4406 
 425   0.0000       1.413349        38.4592 
 426   0.0000       1.424174        38.7538 
 427   0.0000       1.425253        38.7831 
 428   0.0000       1.434206        39.0267 
 429   0.0000       1.437828        39.1253 
 430   0.0000       1.441547        39.2265 
 431   0.0000       1.447422        39.3863 
 432   0.0000       1.450601        39.4729 
 433   0.0000       1.458327        39.6831 
 434   0.0000       1.462188        39.7881 
 435   0.0000       1.463283        39.8180 
 436   0.0000       1.469334        39.9826 
 437   0.0000       1.476147        40.1680 
 438   0.0000       1.476881        40.1880 
 439   0.0000       1.486712        40.4555 
 440   0.0000       1.492485        40.6126 
 441   0.0000       1.496724        40.7279 
 442   0.0000       1.498587        40.7786 
 443   0.0000       1.504791        40.9474 
 444   0.0000       1.510230        41.0954 
 445   0.0000       1.516374        41.2626 
 446   0.0000       1.516860        41.2759 
 447   0.0000       1.521113        41.3916 
 448   0.0000       1.526279        41.5322 
 449   0.0000       1.536282        41.8044 
 450   0.0000       1.539784        41.8996 
 451   0.0000       1.543950        42.0130 
 452   0.0000       1.551081        42.2070 
 453   0.0000       1.560033        42.4507 
 454   0.0000       1.560751        42.4702 
 455   0.0000       1.564482        42.5717 
 456   0.0000       1.569841        42.7175 
 457   0.0000       1.572702        42.7954 
 458   0.0000       1.578443        42.9516 
 459   0.0000       1.583541        43.0904 
 460   0.0000       1.590088        43.2685 
 461   0.0000       1.593724        43.3674 
 462   0.0000       1.602795        43.6143 
 463   0.0000       1.612046        43.8660 
 464   0.0000       1.617769        44.0217 
 465   0.0000       1.622476        44.1498 
 466   0.0000       1.628957        44.3262 
 467   0.0000       1.635498        44.5042 
 468   0.0000       1.642198        44.6865 
 469   0.0000       1.645589        44.7788 
 470   0.0000       1.648237        44.8508 
 471   0.0000       1.652690        44.9720 
 472   0.0000       1.658167        45.1210 
 473   0.0000       1.664328        45.2887 
 474   0.0000       1.669683        45.4344 
 475   0.0000       1.675585        45.5950 
 476   0.0000       1.679643        45.7054 
 477   0.0000       1.690239        45.9937 
 478   0.0000       1.694157        46.1004 
 479   0.0000       1.699389        46.2427 
 480   0.0000       1.707743        46.4701 
 481   0.0000       1.714136        46.6440 
 482   0.0000       1.714799        46.6621 
 483   0.0000       1.718355        46.7588 
 484   0.0000       1.725250        46.9464 
 485   0.0000       1.731075        47.1049 
 486   0.0000       1.738034        47.2943 
 487   0.0000       1.740511        47.3617 
 488   0.0000       1.744923        47.4818 
 489   0.0000       1.745024        47.4845 
 490   0.0000       1.753791        47.7231 
 491   0.0000       1.761781        47.9405 
 492   0.0000       1.763291        47.9816 
 493   0.0000       1.768645        48.1273 
 494   0.0000       1.777919        48.3796 
 495   0.0000       1.781309        48.4719 
 496   0.0000       1.785574        48.5879 
 497   0.0000       1.790312        48.7169 
 498   0.0000       1.791814        48.7577 
 499   0.0000       1.796214        48.8775 
 500   0.0000       1.801220        49.0137 
 501   0.0000       1.813435        49.3461 
 502   0.0000       1.816570        49.4314 
 503   0.0000       1.821288        49.5598 
 504   0.0000       1.827178        49.7200 
 505   0.0000       1.829539        49.7843 
 506   0.0000       1.836496        49.9736 
 507   0.0000       1.839497        50.0553 
 508   0.0000       1.852089        50.3979 
 509   0.0000       1.856274        50.5118 
 510   0.0000       1.858818        50.5810 
 511   0.0000       1.863988        50.7217 
 512   0.0000       1.867499        50.8172 
 513   0.0000       1.871477        50.9255 
 514   0.0000       1.872648        50.9573 
 515   0.0000       1.879561        51.1454 
 516   0.0000       1.884193        51.2715 
 517   0.0000       1.889426        51.4139 
 518   0.0000       1.894087        51.5407 
 519   0.0000       1.898104        51.6500 
 520   0.0000       1.904507        51.8243 
 521   0.0000       1.907112        51.8952 
 522   0.0000       1.915524        52.1241 
 523   0.0000       1.921048        52.2744 
 524   0.0000       1.926070        52.4110 
 525   0.0000       1.926525        52.4234 
 526   0.0000       1.935732        52.6740 
 527   0.0000       1.940460        52.8026 
 528   0.0000       1.943566        52.8871 
 529   0.0000       1.947371        52.9907 
 530   0.0000       1.956722        53.2451 
 531   0.0000       1.965703        53.4895 
 532   0.0000       1.972226        53.6670 
 533   0.0000       1.976880        53.7936 
 534   0.0000       1.984295        53.9954 
 535   0.0000       1.985284        54.0223 
 536   0.0000       1.998508        54.3822 
 537   0.0000       2.006444        54.5981 
 538   0.0000       2.009165        54.6722 
 539   0.0000       2.018487        54.9258 
 540   0.0000       2.026824        55.1527 
 541   0.0000       2.034872        55.3717 
 542   0.0000       2.040830        55.5338 
 543   0.0000       2.043181        55.5978 
 544   0.0000       2.051502        55.8242 
 545   0.0000       2.053862        55.8884 
 546   0.0000       2.056507        55.9604 
 547   0.0000       2.064515        56.1783 
 548   0.0000       2.074726        56.4562 
 549   0.0000       2.081408        56.6380 
 550   0.0000       2.087818        56.8124 
 551   0.0000       2.096325        57.0439 
 552   0.0000       2.101082        57.1733 
 553   0.0000       2.109787        57.4102 
 554   0.0000       2.117794        57.6281 
 555   0.0000       2.128784        57.9272 
 556   0.0000       2.134959        58.0952 
 557   0.0000       2.140709        58.2517 
 558   0.0000       2.153590        58.6022 
 559   0.0000       2.161560        58.8190 
 560   0.0000       2.172621        59.1200 
 561   0.0000       2.177668        59.2573 
 562   0.0000       2.180781        59.3421 
 563   0.0000       2.191210        59.6258 
 564   0.0000       2.195015        59.7294 
 565   0.0000       2.201668        59.9104 
 566   0.0000       2.202169        59.9241 
 567   0.0000       2.213703        60.2379 
 568   0.0000       2.220882        60.4333 
 569   0.0000       2.222763        60.4845 
 570   0.0000       2.229877        60.6780 
 571   0.0000       2.235116        60.8206 
 572   0.0000       2.235962        60.8436 
 573   0.0000       2.239653        60.9440 
 574   0.0000       2.255320        61.3704 
 575   0.0000       2.258264        61.4505 
 576   0.0000       2.263526        61.5937 
 577   0.0000       2.274341        61.8880 
 578   0.0000       2.286635        62.2225 
 579   0.0000       2.295313        62.4586 
 580   0.0000       2.299723        62.5787 
 581   0.0000       2.307606        62.7932 
 582   0.0000       2.310186        62.8634 
 583   0.0000       2.322308        63.1932 
 584   0.0000       2.328711        63.3675 
 585   0.0000       2.344638        63.8008 
 586   0.0000       2.350390        63.9574 
 587   0.0000       2.352873        64.0249 
 588   0.0000       2.365481        64.3680 
 589   0.0000       2.369693        64.4826 
 590   0.0000       2.371916        64.5431 
 591   0.0000       2.378861        64.7321 
 592   0.0000       2.385949        64.9250 
 593   0.0000       2.399195        65.2854 
 594   0.0000       2.400415        65.3186 
 595   0.0000       2.408310        65.5334 
 596   0.0000       2.412522        65.6481 
 597   0.0000       2.423785        65.9545 
 598   0.0000       2.431874        66.1746 
 599   0.0000       2.438739        66.3615 
 600   0.0000       2.446539        66.5737 
 601   0.0000       2.459176        66.9176 
 602   0.0000       2.461169        66.9718 
 603   0.0000       2.467609        67.1471 
 604   0.0000       2.490325        67.7652 
 605   0.0000       2.494972        67.8916 
 606   0.0000       2.502781        68.1041 
 607   0.0000       2.522085        68.6294 
 608   0.0000       2.526445        68.7481 
 609   0.0000       2.530837        68.8676 
 610   0.0000       2.542489        69.1846 
 611   0.0000       2.557761        69.6002 
 612   0.0000       2.577584        70.1396 
 613   0.0000       2.586736        70.3887 
 614   0.0000       2.606198        70.9183 
 615   0.0000       2.617074        71.2142 
 616   0.0000       2.633589        71.6636 
 617   0.0000       2.641216        71.8711 
 618   0.0000       2.654856        72.2423 
 619   0.0000       2.665431        72.5301 
 620   0.0000       2.671523        72.6958 
 621   0.0000       2.683608        73.0247 
 622   0.0000       2.689556        73.1865 
 623   0.0000       2.699584        73.4594 
 624   0.0000       2.711501        73.7837 
 625   0.0000       2.718891        73.9848 
 626   0.0000       2.723064        74.0984 
 627   0.0000       2.729084        74.2621 
 628   0.0000       2.734466        74.4086 
 629   0.0000       2.742397        74.6244 
 630   0.0000       2.747778        74.7708 
 631   0.0000       2.762970        75.1842 
 632   0.0000       2.776363        75.5487 
 633   0.0000       2.786657        75.8288 
 634   0.0000       2.793977        76.0280 
 635   0.0000       2.806654        76.3729 
 636   0.0000       2.811862        76.5147 
 637   0.0000       2.825896        76.8965 
 638   0.0000       2.840323        77.2891 
 639   0.0000       2.845253        77.4233 
 640   0.0000       2.854106        77.6642 
 641   0.0000       2.882850        78.4463 
 642   0.0000       2.891097        78.6707 
 643   0.0000       2.902230        78.9737 
 644   0.0000       2.910188        79.1902 
 645   0.0000       2.931009        79.7568 
 646   0.0000       2.940377        80.0117 
 647   0.0000       2.953816        80.3774 
 648   0.0000       2.964746        80.6748 
 649   0.0000       2.974949        80.9525 
 650   0.0000       2.977785        81.0297 
 651   0.0000       3.008705        81.8710 
 652   0.0000       3.022617        82.2496 
 653   0.0000       3.044728        82.8513 
 654   0.0000       3.053759        83.0970 
 655   0.0000       3.066132        83.4337 
 656   0.0000       3.090638        84.1005 
 657   0.0000       3.104711        84.4835 
 658   0.0000       3.107701        84.5649 
 659   0.0000       3.120981        84.9262 
 660   0.0000       3.137488        85.3754 
 661   0.0000       3.148449        85.6736 
 662   0.0000       3.159079        85.9629 
 663   0.0000       3.176718        86.4429 
 664   0.0000       3.183248        86.6206 
 665   0.0000       3.190199        86.8097 
 666   0.0000       3.200638        87.0938 
 667   0.0000       3.213391        87.4408 
 668   0.0000       3.216888        87.5360 
 669   0.0000       3.229810        87.8876 
 670   0.0000       3.238467        88.1232 
 671   0.0000       3.244147        88.2777 
 672   0.0000       3.255453        88.5854 
 673   0.0000       3.271837        89.0312 
 674   0.0000       3.281421        89.2920 
 675   0.0000       3.288326        89.4799 
 676   0.0000       3.298084        89.7454 
 677   0.0000       3.308086        90.0176 
 678   0.0000       3.310891        90.0939 
 679   0.0000       3.322283        90.4039 
 680   0.0000       3.328630        90.5766 
 681   0.0000       3.345831        91.0447 
 682   0.0000       3.352072        91.2145 
 683   0.0000       3.364348        91.5486 
 684   0.0000       3.369813        91.6973 
 685   0.0000       3.381623        92.0187 
 686   0.0000       3.386825        92.1602 
 687   0.0000       3.403822        92.6227 
 688   0.0000       3.409982        92.7903 
 689   0.0000       3.416099        92.9568 
 690   0.0000       3.428970        93.3070 
 691   0.0000       3.435625        93.4881 
 692   0.0000       3.446737        93.7905 
 693   0.0000       3.460578        94.1671 
 694   0.0000       3.467531        94.3563 
 695   0.0000       3.470000        94.4235 
 696   0.0000       3.470275        94.4310 
 697   0.0000       3.487526        94.9004 
 698   0.0000       3.508745        95.4778 
 699   0.0000       3.521791        95.8328 
 700   0.0000       3.530481        96.0693 
 701   0.0000       3.532813        96.1327 
 702   0.0000       3.536923        96.2446 
 703   0.0000       3.542921        96.4078 
 704   0.0000       3.545163        96.4688 
 705   0.0000       3.553393        96.6928 
 706   0.0000       3.557068        96.7927 
 707   0.0000       3.573839        97.2491 
 708   0.0000       3.584650        97.5433 
 709   0.0000       3.586940        97.6056 
 710   0.0000       3.598075        97.9086 
 711   0.0000       3.603788        98.0641 
 712   0.0000       3.609556        98.2210 
 713   0.0000       3.617697        98.4425 
 714   0.0000       3.630740        98.7975 
 715   0.0000       3.641173        99.0814 
 716   0.0000       3.656779        99.5060 
 717   0.0000       3.659390        99.5771 
 718   0.0000       3.668266        99.8186 
 719   0.0000       3.677550       100.0712 
 720   0.0000       3.687868       100.3520 
 721   0.0000       3.697125       100.6039 
 722   0.0000       3.703266       100.7710 
 723   0.0000       3.714388       101.0736 
 724   0.0000       3.719695       101.2180 
 725   0.0000       3.721366       101.2635 
 726   0.0000       3.732422       101.5644 
 727   0.0000       3.741680       101.8163 
 728   0.0000       3.751455       102.0823 
 729   0.0000       3.758970       102.2868 
 730   0.0000       3.762821       102.3916 
 731   0.0000       3.774769       102.7167 
 732   0.0000       3.786458       103.0348 
 733   0.0000       3.794758       103.2606 
 734   0.0000       3.796872       103.3181 
 735   0.0000       3.800721       103.4229 
 736   0.0000       3.816739       103.8588 
 737   0.0000       3.821974       104.0012 
 738   0.0000       3.826618       104.1276 
 739   0.0000       3.830946       104.2453 
 740   0.0000       3.841351       104.5285 
 741   0.0000       3.846000       104.6550 
 742   0.0000       3.852418       104.8296 
 743   0.0000       3.857675       104.9727 
 744   0.0000       3.863239       105.1241 
 745   0.0000       3.870783       105.3293 
 746   0.0000       3.885072       105.7182 
 747   0.0000       3.886813       105.7656 
 748   0.0000       3.889808       105.8471 
 749   0.0000       3.902989       106.2057 
 750   0.0000       3.911150       106.4278 
 751   0.0000       3.913006       106.4783 
 752   0.0000       3.926510       106.8458 
 753   0.0000       3.930190       106.9459 
 754   0.0000       3.939676       107.2040 
 755   0.0000       3.943627       107.3115 
 756   0.0000       3.954018       107.5943 
 757   0.0000       3.959877       107.7537 
 758   0.0000       3.962629       107.8286 
 759   0.0000       3.971005       108.0565 
 760   0.0000       3.973736       108.1309 
 761   0.0000       3.987231       108.4981 
 762   0.0000       3.990691       108.5922 
 763   0.0000       3.991925       108.6258 
 764   0.0000       4.000856       108.8688 
 765   0.0000       4.023033       109.4723 
 766   0.0000       4.024103       109.5014 
 767   0.0000       4.029755       109.6552 
 768   0.0000       4.034104       109.7735 
 769   0.0000       4.045066       110.0719 
 770   0.0000       4.048072       110.1536 
 771   0.0000       4.056146       110.3733 
 772   0.0000       4.063269       110.5672 
 773   0.0000       4.067772       110.6897 
 774   0.0000       4.077734       110.9608 
 775   0.0000       4.089632       111.2845 
 776   0.0000       4.094795       111.4250 
 777   0.0000       4.107909       111.7819 
 778   0.0000       4.110042       111.8399 
 779   0.0000       4.115287       111.9827 
 780   0.0000       4.129260       112.3629 
 781   0.0000       4.131884       112.4343 
 782   0.0000       4.139524       112.6422 
 783   0.0000       4.149807       112.9220 
 784   0.0000       4.153780       113.0301 
 785   0.0000       4.157596       113.1339 
 786   0.0000       4.171941       113.5243 
 787   0.0000       4.178355       113.6988 
 788   0.0000       4.182880       113.8220 
 789   0.0000       4.193201       114.1028 
 790   0.0000       4.212358       114.6241 
 791   0.0000       4.215774       114.7171 
 792   0.0000       4.230966       115.1304 
 793   0.0000       4.232424       115.1701 
 794   0.0000       4.240104       115.3791 
 795   0.0000       4.250186       115.6534 
 796   0.0000       4.256748       115.8320 
 797   0.0000       4.267079       116.1131 
 798   0.0000       4.274642       116.3189 
 799   0.0000       4.281338       116.5011 
 800   0.0000       4.292789       116.8127 
 801   0.0000       4.295533       116.8874 
 802   0.0000       4.308592       117.2428 
 803   0.0000       4.311271       117.3157 
 804   0.0000       4.315374       117.4273 
 805   0.0000       4.327082       117.7459 
 806   0.0000       4.334233       117.9405 
 807   0.0000       4.339050       118.0715 
 808   0.0000       4.347793       118.3095 
 809   0.0000       4.354703       118.4975 
 810   0.0000       4.365441       118.7897 
 811   0.0000       4.386800       119.3709 
 812   0.0000       4.398484       119.6888 
 813   0.0000       4.408704       119.9669 
 814   0.0000       4.420644       120.2919 
 815   0.0000       4.430682       120.5650 
 816   0.0000       4.436970       120.7361 
 817   0.0000       4.440121       120.8218 
 818   0.0000       4.449985       121.0903 
 819   0.0000       4.456817       121.2762 
 820   0.0000       4.462527       121.4315 
 821   0.0000       4.473967       121.7428 
 822   0.0000       4.475103       121.7737 
 823   0.0000       4.495929       122.3404 
 824   0.0000       4.503899       122.5573 
 825   0.0000       4.513308       122.8134 
 826   0.0000       4.521836       123.0454 
 827   0.0000       4.529732       123.2603 
 828   0.0000       4.534060       123.3780 
 829   0.0000       4.550888       123.8360 
 830   0.0000       4.557838       124.0251 
 831   0.0000       4.577312       124.5550 
 832   0.0000       4.585589       124.7802 
 833   0.0000       4.597666       125.1089 
 834   0.0000       4.610369       125.4545 
 835   0.0000       4.622317       125.7796 
 836   0.0000       4.634375       126.1077 
 837   0.0000       4.641067       126.2899 
 838   0.0000       4.649720       126.5253 
 839   0.0000       4.660621       126.8219 
 840   0.0000       4.675104       127.2160 
 841   0.0000       4.689478       127.6072 
 842   0.0000       4.693915       127.7279 
 843   0.0000       4.706320       128.0655 
 844   0.0000       4.715061       128.3033 
 845   0.0000       4.725878       128.5977 
 846   0.0000       4.742007       129.0366 
 847   0.0000       4.751206       129.2869 
 848   0.0000       4.764984       129.6618 
 849   0.0000       4.789746       130.3356 
 850   0.0000       4.796594       130.5219 
 851   0.0000       4.817977       131.1038 
 852   0.0000       4.831630       131.4753 
 853   0.0000       4.837108       131.6244 
 854   0.0000       4.844869       131.8356 
 855   0.0000       4.861109       132.2775 
 856   0.0000       4.878709       132.7564 
 857   0.0000       4.885739       132.9477 
 858   0.0000       4.889517       133.0505 
 859   0.0000       4.899987       133.3354 
 860   0.0000       4.915228       133.7502 
 861   0.0000       4.920706       133.8992 
 862   0.0000       4.923822       133.9840 
 863   0.0000       4.934657       134.2788 
 864   0.0000       4.935044       134.2894 
 865   0.0000       4.951997       134.7507 
 866   0.0000       4.963981       135.0768 
 867   0.0000       4.970806       135.2625 
 868   0.0000       4.974335       135.3585 
 869   0.0000       4.997621       135.9922 
 870   0.0000       5.014975       136.4644 
 871   0.0000       5.026280       136.7720 
 872   0.0000       5.030569       136.8888 
 873   0.0000       5.040700       137.1644 
 874   0.0000       5.057001       137.6080 
 875   0.0000       5.059487       137.6757 
 876   0.0000       5.071456       138.0013 
 877   0.0000       5.088460       138.4640 
 878   0.0000       5.105733       138.9341 
 879   0.0000       5.110774       139.0712 
 880   0.0000       5.130615       139.6111 
 881   0.0000       5.137155       139.7891 
 882   0.0000       5.155503       140.2884 
 883   0.0000       5.169374       140.6658 
 884   0.0000       5.179399       140.9386 
 885   0.0000       5.185295       141.0991 
 886   0.0000       5.200036       141.5002 
 887   0.0000       5.214716       141.8996 
 888   0.0000       5.240881       142.6116 
 889   0.0000       5.259000       143.1047 
 890   0.0000       5.264223       143.2468 
 891   0.0000       5.267854       143.3456 
 892   0.0000       5.276275       143.5747 
 893   0.0000       5.289412       143.9322 
 894   0.0000       5.304986       144.3560 
 895   0.0000       5.316499       144.6693 
 896   0.0000       5.330375       145.0469 
 897   0.0000       5.340928       145.3340 
 898   0.0000       5.359225       145.8319 
 899   0.0000       5.375852       146.2844 
 900   0.0000       5.387524       146.6020 
 901   0.0000       5.401536       146.9833 
 902   0.0000       5.413318       147.3039 
 903   0.0000       5.422613       147.5568 
 904   0.0000       5.435849       147.9170 
 905   0.0000       5.446788       148.2146 
 906   0.0000       5.451530       148.3437 
 907   0.0000       5.459648       148.5646 
 908   0.0000       5.464920       148.7080 
 909   0.0000       5.479215       149.0970 
 910   0.0000       5.504156       149.7757 
 911   0.0000       5.508078       149.8824 
 912   0.0000       5.529684       150.4704 
 913   0.0000       5.548638       150.9861 
 914   0.0000       5.551240       151.0569 
 915   0.0000       5.566550       151.4735 
 916   0.0000       5.580096       151.8421 
 917   0.0000       5.596942       152.3005 
 918   0.0000       5.601891       152.4352 
 919   0.0000       5.611573       152.6987 
 920   0.0000       5.615911       152.8167 
 921   0.0000       5.634126       153.3123 
 922   0.0000       5.639661       153.4630 
 923   0.0000       5.651803       153.7934 
 924   0.0000       5.661958       154.0697 
 925   0.0000       5.674006       154.3975 
 926   0.0000       5.685738       154.7168 
 927   0.0000       5.693982       154.9411 
 928   0.0000       5.696610       155.0126 
 929   0.0000       5.707544       155.3102 
 930   0.0000       5.726404       155.8234 
 931   0.0000       5.733300       156.0110 
 932   0.0000       5.742591       156.2639 
 933   0.0000       5.752812       156.5420 
 934   0.0000       5.765735       156.8936 
 935   0.0000       5.773277       157.0989 
 936   0.0000       5.777106       157.2030 
 937   0.0000       5.811099       158.1280 
 938   0.0000       5.819472       158.3559 
 939   0.0000       5.834746       158.7715 
 940   0.0000       5.850016       159.1870 
 941   0.0000       5.854774       159.3165 
 942   0.0000       5.880000       160.0029 
 943   0.0000       5.889702       160.2669 
 944   0.0000       5.905734       160.7032 
 945   0.0000       5.909465       160.8047 
 946   0.0000       6.003956       163.3759 
 947   0.0000       6.028442       164.0423 
 948   0.0000       6.103607       166.0876 
 949   0.0000       6.115216       166.4035 
 950   0.0000       6.134397       166.9254 
 951   0.0000       6.160152       167.6263 
 952   0.0000       6.173747       167.9962 
 953   0.0000       6.190001       168.4385 
 954   0.0000       6.208415       168.9396 
 955   0.0000       6.213672       169.0826 
 956   0.0000       6.222216       169.3151 
 957   0.0000       6.229920       169.5247 
 958   0.0000       6.240544       169.8138 
 959   0.0000       6.254049       170.1813 
 960   0.0000       6.282949       170.9677 
 961   0.0000       6.293657       171.2591 
 962   0.0000       6.327988       172.1933 
 963   0.0000       6.334448       172.3691 
 964   0.0000       6.354354       172.9108 
 965   0.0000       6.369743       173.3295 
 966   0.0000       6.381591       173.6519 
 967   0.0000       6.420606       174.7136 
 968   0.0000       6.467373       175.9862 
 969   0.0000       6.532670       177.7630 
 970   0.0000       6.587875       179.2652 
 971   0.0000       6.653523       181.0516 
 972   0.0000       6.827983       185.7989 
 973   0.0000       6.859883       186.6669 
 974   0.0000       6.894090       187.5977 
 975   0.0000       6.907960       187.9751 
 976   0.0000       6.933841       188.6794 
 977   0.0000       6.952128       189.1770 
 978   0.0000       6.959184       189.3690 
 979   0.0000       6.972497       189.7313 
 980   0.0000       6.984126       190.0477 
 981   0.0000       7.024824       191.1552 
 982   0.0000       7.040872       191.5919 
 983   0.0000       7.093299       193.0185 
 984   0.0000       7.159524       194.8206 
 985   0.0000       7.221005       196.4935 
 986   0.0000       7.362065       200.3320 
 987   0.0000       7.465626       203.1500 
 988   0.0000       7.479056       203.5155 
 989   0.0000       7.559888       205.7150 
 990   0.0000       7.569511       205.9769 
 991   0.0000       7.600654       206.8243 
 992   0.0000       7.722518       210.1404 
 993   0.0000       7.781792       211.7533 
 994   0.0000       7.843795       213.4405 
 995   0.0000       7.877347       214.3535 
 996   0.0000       8.037264       218.7051 
 997   0.0000       8.185548       222.7401 
 998   0.0000       8.308824       226.0946 
 999   0.0000       9.433133       256.6886 
 1000   0.0000       9.453628       257.2463 
 1001   0.0000       9.467670       257.6284 
 1002   0.0000       9.479586       257.9526 
 1003   0.0000       9.488797       258.2033 
 1004   0.0000       9.513009       258.8621 
 1005   0.0000       9.723421       264.5877 
 1006   0.0000      10.099006       274.8079 
 1007   0.0000      10.131843       275.7015 
 1008   0.0000      10.142176       275.9827 
 1009   0.0000      10.222403       278.1657 
 1010   0.0000      10.225935       278.2618 
 1011   0.0000      10.261378       279.2263 
 1012   0.0000      10.385038       282.5912 
 1013   0.0000      10.423623       283.6412 
 1014   0.0000      10.533068       286.6194 
 1015   0.0000      17.043623       463.7806 
 1016   0.0000      17.462843       475.1881 
 1017   0.0000      18.404432       500.8100 
 1018   0.0000      18.773037       510.8403 
 1019   0.0000      18.790627       511.3190 
 1020   0.0000      18.914075       514.6781 
 1021   0.0000      19.472342       529.8694 
 1022   0.0000      20.077257       546.3299 
 1023   0.0000      20.491569       557.6039 
 1024   0.0000      21.606024       587.9298 

                 SPIN DOWN ORBITALS
  NO   OCC          E(Eh)            E(eV) 
   0   1.0000    -261.548811     -7117.1050 
   1   1.0000    -104.778006     -2851.1545 
   2   1.0000    -104.775807     -2851.0947 
   3   1.0000    -104.774655     -2851.0633 
   4   1.0000     -32.058321      -872.3513 
   5   1.0000     -27.536339      -749.3019 
   6   1.0000     -27.536187      -749.2977 
   7   1.0000     -27.535797      -749.2871 
   8   1.0000     -20.562506      -559.5342 
   9   1.0000     -11.398983      -310.1821 
  10   1.0000     -11.347545      -308.7824 
  11   1.0000     -11.291374      -307.2539 
  12   1.0000     -11.274725      -306.8009 
  13   1.0000     -11.272803      -306.7486 
  14   1.0000     -11.260709      -306.4195 
  15   1.0000     -11.239544      -305.8436 
  16   1.0000     -11.237516      -305.7884 
  17   1.0000     -10.504512      -285.8423 
  18   1.0000     -10.502371      -285.7840 
  19   1.0000     -10.501183      -285.7517 
  20   1.0000      -7.970472      -216.8876 
  21   1.0000      -7.969817      -216.8697 
  22   1.0000      -7.969750      -216.8679 
  23   1.0000      -7.968267      -216.8276 
  24   1.0000      -7.967679      -216.8116 
  25   1.0000      -7.967614      -216.8098 
  26   1.0000      -7.967161      -216.7975 
  27   1.0000      -7.966377      -216.7761 
  28   1.0000      -7.966325      -216.7747 
  29   1.0000      -4.133582      -112.4805 
  30   1.0000      -2.655489       -72.2595 
  31   1.0000      -2.655335       -72.2553 
  32   1.0000      -2.654427       -72.2306 
  33   1.0000      -1.348795       -36.7026 
  34   1.0000      -1.161302       -31.6006 
  35   1.0000      -1.082253       -29.4496 
  36   1.0000      -1.036870       -28.2147 
  37   1.0000      -1.036009       -28.1912 
  38   1.0000      -1.025108       -27.8946 
  39   1.0000      -1.022982       -27.8367 
  40   1.0000      -1.007586       -27.4178 
  41   1.0000      -0.966972       -26.3126 
  42   1.0000      -0.920433       -25.0463 
  43   1.0000      -0.795470       -21.6458 
  44   1.0000      -0.761713       -20.7273 
  45   1.0000      -0.693939       -18.8830 
  46   1.0000      -0.685104       -18.6426 
  47   1.0000      -0.668747       -18.1975 
  48   1.0000      -0.639488       -17.4013 
  49   1.0000      -0.626672       -17.0526 
  50   1.0000      -0.621799       -16.9200 
  51   1.0000      -0.597573       -16.2608 
  52   1.0000      -0.594379       -16.1739 
  53   1.0000      -0.589541       -16.0422 
  54   1.0000      -0.578723       -15.7479 
  55   1.0000      -0.571193       -15.5429 
  56   1.0000      -0.559055       -15.2127 
  57   1.0000      -0.542463       -14.7612 
  58   1.0000      -0.537017       -14.6130 
  59   1.0000      -0.530135       -14.4257 
  60   1.0000      -0.516342       -14.0504 
  61   1.0000      -0.505370       -13.7518 
  62   1.0000      -0.477600       -12.9962 
  63   1.0000      -0.469739       -12.7823 
  64   1.0000      -0.465276       -12.6608 
  65   1.0000      -0.440416       -11.9843 
  66   1.0000      -0.437280       -11.8990 
  67   1.0000      -0.435585       -11.8529 
  68   1.0000      -0.429542       -11.6884 
  69   1.0000      -0.415316       -11.3013 
  70   1.0000      -0.403813       -10.9883 
  71   1.0000      -0.402414       -10.9502 
  72   0.0000       0.008663         0.2357 
  73   0.0000       0.020584         0.5601 
  74   0.0000       0.022843         0.6216 
  75   0.0000       0.031067         0.8454 
  76   0.0000       0.037750         1.0272 
  77   0.0000       0.040878         1.1124 
  78   0.0000       0.042973         1.1694 
  79   0.0000       0.043686         1.1888 
  80   0.0000       0.045289         1.2324 
  81   0.0000       0.051786         1.4092 
  82   0.0000       0.056538         1.5385 
  83   0.0000       0.060830         1.6553 
  84   0.0000       0.062030         1.6879 
  85   0.0000       0.065203         1.7743 
  86   0.0000       0.066017         1.7964 
  87   0.0000       0.070625         1.9218 
  88   0.0000       0.072706         1.9784 
  89   0.0000       0.082678         2.2498 
  90   0.0000       0.087206         2.3730 
  91   0.0000       0.089575         2.4375 
  92   0.0000       0.090529         2.4634 
  93   0.0000       0.094584         2.5738 
  94   0.0000       0.100981         2.7478 
  95   0.0000       0.103136         2.8065 
  96   0.0000       0.110310         3.0017 
  97   0.0000       0.115969         3.1557 
  98   0.0000       0.119004         3.2383 
  99   0.0000       0.121045         3.2938 
 100   0.0000       0.122755         3.3403 
 101   0.0000       0.122910         3.3446 
 102   0.0000       0.124442         3.3862 
 103   0.0000       0.125240         3.4080 
 104   0.0000       0.129111         3.5133 
 105   0.0000       0.129562         3.5256 
 106   0.0000       0.131457         3.5771 
 107   0.0000       0.132861         3.6153 
 108   0.0000       0.135042         3.6747 
 109   0.0000       0.137761         3.7487 
 110   0.0000       0.138096         3.7578 
 111   0.0000       0.143226         3.8974 
 112   0.0000       0.147948         4.0259 
 113   0.0000       0.149548         4.0694 
 114   0.0000       0.151984         4.1357 
 115   0.0000       0.153903         4.1879 
 116   0.0000       0.157846         4.2952 
 117   0.0000       0.160351         4.3634 
 118   0.0000       0.166295         4.5251 
 119   0.0000       0.166838         4.5399 
 120   0.0000       0.172767         4.7012 
 121   0.0000       0.175811         4.7841 
 122   0.0000       0.179104         4.8737 
 123   0.0000       0.183276         4.9872 
 124   0.0000       0.187850         5.1117 
 125   0.0000       0.190106         5.1730 
 126   0.0000       0.194406         5.2900 
 127   0.0000       0.196751         5.3539 
 128   0.0000       0.200940         5.4679 
 129   0.0000       0.201539         5.4842 
 130   0.0000       0.204744         5.5714 
 131   0.0000       0.207815         5.6549 
 132   0.0000       0.210876         5.7382 
 133   0.0000       0.214368         5.8332 
 134   0.0000       0.216869         5.9013 
 135   0.0000       0.224435         6.1072 
 136   0.0000       0.226444         6.1619 
 137   0.0000       0.230037         6.2596 
 138   0.0000       0.234286         6.3752 
 139   0.0000       0.237476         6.4620 
 140   0.0000       0.241970         6.5843 
 141   0.0000       0.246611         6.7106 
 142   0.0000       0.248984         6.7752 
 143   0.0000       0.250928         6.8281 
 144   0.0000       0.252006         6.8574 
 145   0.0000       0.254821         6.9340 
 146   0.0000       0.259832         7.0704 
 147   0.0000       0.260527         7.0893 
 148   0.0000       0.263860         7.1800 
 149   0.0000       0.267544         7.2802 
 150   0.0000       0.271888         7.3984 
 151   0.0000       0.277746         7.5579 
 152   0.0000       0.281944         7.6721 
 153   0.0000       0.284906         7.7527 
 154   0.0000       0.287819         7.8320 
 155   0.0000       0.292185         7.9507 
 156   0.0000       0.298296         8.1171 
 157   0.0000       0.299756         8.1568 
 158   0.0000       0.305133         8.3031 
 159   0.0000       0.305686         8.3181 
 160   0.0000       0.313221         8.5232 
 161   0.0000       0.314217         8.5503 
 162   0.0000       0.315805         8.5935 
 163   0.0000       0.318863         8.6767 
 164   0.0000       0.327145         8.9021 
 165   0.0000       0.330985         9.0066 
 166   0.0000       0.339288         9.2325 
 167   0.0000       0.342552         9.3213 
 168   0.0000       0.349777         9.5179 
 169   0.0000       0.350558         9.5392 
 170   0.0000       0.355324         9.6689 
 171   0.0000       0.358513         9.7556 
 172   0.0000       0.363106         9.8806 
 173   0.0000       0.365155         9.9364 
 174   0.0000       0.367088         9.9890 
 175   0.0000       0.371053        10.0969 
 176   0.0000       0.373332        10.1589 
 177   0.0000       0.377144        10.2626 
 178   0.0000       0.381338        10.3767 
 179   0.0000       0.383417        10.4333 
 180   0.0000       0.384760        10.4698 
 181   0.0000       0.388768        10.5789 
 182   0.0000       0.392378        10.6771 
 183   0.0000       0.395815        10.7707 
 184   0.0000       0.398417        10.8415 
 185   0.0000       0.401885        10.9358 
 186   0.0000       0.402807        10.9609 
 187   0.0000       0.407798        11.0967 
 188   0.0000       0.408655        11.1201 
 189   0.0000       0.411957        11.2099 
 190   0.0000       0.415869        11.3164 
 191   0.0000       0.421687        11.4747 
 192   0.0000       0.422859        11.5066 
 193   0.0000       0.428989        11.6734 
 194   0.0000       0.430477        11.7139 
 195   0.0000       0.436790        11.8857 
 196   0.0000       0.437937        11.9169 
 197   0.0000       0.440045        11.9742 
 198   0.0000       0.449546        12.2328 
 199   0.0000       0.452881        12.3235 
 200   0.0000       0.457992        12.4626 
 201   0.0000       0.462149        12.5757 
 202   0.0000       0.465698        12.6723 
 203   0.0000       0.468947        12.7607 
 204   0.0000       0.469847        12.7852 
 205   0.0000       0.472797        12.8655 
 206   0.0000       0.475763        12.9462 
 207   0.0000       0.478031        13.0079 
 208   0.0000       0.478590        13.0231 
 209   0.0000       0.483988        13.1700 
 210   0.0000       0.484474        13.1832 
 211   0.0000       0.487320        13.2607 
 212   0.0000       0.491661        13.3788 
 213   0.0000       0.492689        13.4068 
 214   0.0000       0.494726        13.4622 
 215   0.0000       0.497684        13.5427 
 216   0.0000       0.503026        13.6880 
 217   0.0000       0.504166        13.7190 
 218   0.0000       0.506600        13.7853 
 219   0.0000       0.511795        13.9266 
 220   0.0000       0.516825        14.0635 
 221   0.0000       0.523094        14.2341 
 222   0.0000       0.524964        14.2850 
 223   0.0000       0.527876        14.3642 
 224   0.0000       0.531655        14.4671 
 225   0.0000       0.535526        14.5724 
 226   0.0000       0.537445        14.6246 
 227   0.0000       0.542767        14.7695 
 228   0.0000       0.546320        14.8661 
 229   0.0000       0.549696        14.9580 
 230   0.0000       0.552551        15.0357 
 231   0.0000       0.560715        15.2578 
 232   0.0000       0.561843        15.2885 
 233   0.0000       0.563956        15.3460 
 234   0.0000       0.570440        15.5225 
 235   0.0000       0.575189        15.6517 
 236   0.0000       0.577038        15.7020 
 237   0.0000       0.579265        15.7626 
 238   0.0000       0.580616        15.7994 
 239   0.0000       0.585745        15.9389 
 240   0.0000       0.587811        15.9952 
 241   0.0000       0.591710        16.1013 
 242   0.0000       0.597494        16.2586 
 243   0.0000       0.600592        16.3429 
 244   0.0000       0.604454        16.4480 
 245   0.0000       0.605123        16.4662 
 246   0.0000       0.609964        16.5980 
 247   0.0000       0.614791        16.7293 
 248   0.0000       0.618419        16.8280 
 249   0.0000       0.619369        16.8539 
 250   0.0000       0.621482        16.9114 
 251   0.0000       0.622321        16.9342 
 252   0.0000       0.633783        17.2461 
 253   0.0000       0.641199        17.4479 
 254   0.0000       0.643451        17.5092 
 255   0.0000       0.644358        17.5339 
 256   0.0000       0.646623        17.5955 
 257   0.0000       0.653022        17.7696 
 258   0.0000       0.661323        17.9955 
 259   0.0000       0.662554        18.0290 
 260   0.0000       0.665575        18.1112 
 261   0.0000       0.666735        18.1428 
 262   0.0000       0.672262        18.2932 
 263   0.0000       0.675970        18.3941 
 264   0.0000       0.684249        18.6194 
 265   0.0000       0.687803        18.7161 
 266   0.0000       0.689397        18.7594 
 267   0.0000       0.696822        18.9615 
 268   0.0000       0.698640        19.0110 
 269   0.0000       0.701161        19.0796 
 270   0.0000       0.705731        19.2039 
 271   0.0000       0.710779        19.3413 
 272   0.0000       0.715973        19.4826 
 273   0.0000       0.718484        19.5510 
 274   0.0000       0.731338        19.9007 
 275   0.0000       0.731767        19.9124 
 276   0.0000       0.737577        20.0705 
 277   0.0000       0.741814        20.1858 
 278   0.0000       0.744496        20.2588 
 279   0.0000       0.751593        20.4519 
 280   0.0000       0.758672        20.6445 
 281   0.0000       0.765606        20.8332 
 282   0.0000       0.770096        20.9554 
 283   0.0000       0.774260        21.0687 
[...]
  | Av. % of trace(Dpq) retained        ...  99.526270142692
  | sigma^2 in % of trace(Dij) retained ...   8.32e+00
  | sigma^2 in % of trace(Dip) retained ...   1.76e+01
  | sigma^2 in % of trace(Dpq) retained ...   1.24e-01
  | Av. % of trace(Di) retained         ...  99.998528692042
  | Av. % of trace(Dp) retained         ...  99.999999052393
  | sigma^2 in % of trace(Di) retained  ...   7.57e-07
  | sigma^2 in % of trace(Dp) retained  ...   1.45e-12
 Distributions of % trace(Dij) recovered:
  |       >= 99.9  ...   105 ( 20.3 % of all IJ-pairs)
  |   [80.0, 90.0) ...    33 (  6.4 % of all IJ-pairs)
  |   [90.0, 99.0) ...   286 ( 55.3 % of all IJ-pairs)
  |   [99.0, 99.9) ...    93 ( 18.0 % of all IJ-pairs)
 Distributions of % trace(Dip) recovered:
  |   [80.0, 90.0) ...    13 ( 11.0 % of all IP-pairs)
  |   [90.0, 99.0) ...    61 ( 51.7 % of all IP-pairs)
  |   [99.0, 99.9) ...    44 ( 37.3 % of all IP-pairs)
 Distributions of % trace(Dpq) recovered:
  |       >= 99.9  ...     5 ( 33.3 % of all PQ-pairs)
  |   [99.0, 99.9) ...    10 ( 66.7 % of all PQ-pairs)
 Distributions of % trace(Di) recovered :
  |       >= 99.9  ...    43 (100.0 % of all I-pairs )
 Distributions of % trace(Dp) recovered :
  |       >= 99.9  ...     5 (100.0 % of all P-pairs )

                       ===========================
                       1134 OF 1741 PAIRS ARE KEPT
                       ===========================

 Initial PAO correlation energy (all pairs)    ...  -2.6935061882 Eh
 Energy constituents in PAO basis (Eh):
  | Vijab(+0) ...  -2.2628606524
  | Viab (-1) ...  -0.1759947441
  | Vab  (-2) ...  -0.0573607848
  | Va   (-1) ...  -0.0000424314
  | Vija (+1) ...  -0.0731809363
  | Vij  (+2) ...  -0.0155094185
  | Via  (+0) ...  -0.1083975220
  | Vi   (+1) ...  -0.0001596987
 Initial PNO correlation energy                ...  -2.6591332120 Eh
 Energy constituents in PNO basis (Eh):
  | Vijab(+0) ...  -2.2446486586 (err=  0.0182119938)
  | Viab (-1) ...  -0.1614374272 (err=  0.0145573169)
  | Vab  (-2) ...  -0.0569104238 (err=  0.0004503610)
  | Va   (-1) ...  -0.0000244666 (err=  0.0000179648)
  | Vija (+1) ...  -0.0722265968 (err=  0.0009543394)
  | Vij  (+2) ...  -0.0154617294 (err=  0.0000476891)
  | Via  (+0) ...  -0.1082647864 (err=  0.0001327355)
  | Vi   (+1) ...  -0.0001591231 (err=  0.0000005756)
 Sum of total truncation errors ...   0.0343729762 Eh
  | Pair screening ...   0.0112731836 Eh
  | PNO truncation ...   0.0230997926 Eh

 UMP2 correlation energy (PAO) ...  -2.6885430662
  | alpha-alpha ...  -0.3854502876 (NP_aa=  947)
  | alpha-beta  ...  -1.9972184827 (NP_ab= 1716)
  | beta -beta  ...  -0.3058742958 (NP_bb=  736)
 UMP2 correlation energy (PNO) ...  -2.6538151424
  | alpha-alpha ...  -0.3733344087 (err=  0.0121158789, NP_aa=  602)
  | alpha-beta  ...  -1.9785472398 (err=  0.0186712429, NP_ab= 1109)
  | beta -beta  ...  -0.3019334940 (err=  0.0039408019, NP_bb=  474)
 Sum of total UMP2 truncation errors ...   0.0347279237 Eh
  | Pair screening ...   0.0112720206 Eh
  | PNO truncation ...   0.0234559031 Eh
 Timing for NEV-PNO construction (sec.)
  | Intermediate construction  ..           53.233
  | Amplitude construction     ..           74.916
  | Total time                 ..          128.149
 Making pair pair interaction lists ...      ok
 Total size for 2-ext PNO integrals ...     10.9 MB
Checking the number of SOMO/SOMO doubles PNOs ... 
 #Truncate: (72, 72)[170] -> [84] .. 
 #Truncate: (73, 73)[174] -> [84] .. 
 #Truncate: (74, 74)[173] -> [84] .. 
 #Truncate: (75, 75)[171] -> [84] .. 
 #Truncate: (76, 76)[173] -> [84] .. 

--------------------------------
LOCAL RI TRANSFORMATION (VABPAO)
--------------------------------

Number of PAOs:    1030
Basis functions:   1025 (343 shells)
Aux. functions:    2424 (644 shells)

Processing maps (0.0 sec)
Average map sizes:
   Aux shells -> PAOs           1030.0
   PAOs       -> AO shells       343.0

Calculating integrals (1399.2 sec, 37370.165 MB)
Finished
-----------------------------
LOCAL RI TRANSFORMATION (IJV)
-----------------------------

Orbital window:      29 to 76
Basis functions:   1025 (343 shells)
Aux. functions:    2424 (644 shells)

Processing maps (0.0 sec)
Average map sizes:
   Aux shells -> MOs(i)           46.5
   Aux shells -> MOs(j)           48.0
   MOs        -> AO shells       340.9

Calculating integrals (22.4 sec, 41.458 MB)
Sorting integrals (0.3 sec, 41.431 MB)
Total time for the integral transformation: 22.8 sec


-------------------------------------
Pair Pair Term precalculation with     
RI-(ij|mn) and (im|jn) transformation  
ON THE FLY                             
-------------------------------------

   IBatch   1 (of   2)              ... done ( 1239.484 sec)
   IBatch   2 (of   2)              ... done ( 1069.666 sec)
Total EXT                           ...        2309.151 sec

---------------------
RI-PNO TRANSFORMATION
---------------------

Total Number of PNOs                   ... 34796
Total Number of IJ-PNOs                ... 30613
Total Number of IP-PNOs                ...  3235
Total Number of PQ-PNOs                ...   948
Total Number of IJ-pairs               ...   991
Total Number of PI-pairs               ...   118
Total Number of PQ-pairs               ...    25
Average number of PNOs per pair        ...    30
Maximal number of PNOs per pair        ...    84
>> Statistics for ij-pairs..
   #pairs with  1 -  5 PNOs   :    0
   #pairs with  6 - 10 PNOs   :    0
   #pairs with 11 - 15 PNOs   :   58
   #pairs with 16 - 20 PNOs   :  244
   #pairs with 21 - 25 PNOs   :  210
   #pairs with 26 - 30 PNOs   :  106
   #pairs with 31 - 35 PNOs   :   80
   #pairs with 36 - 40 PNOs   :   68
   #pairs with 41 - 45 PNOs   :   38
   #pairs with 46 - 50 PNOs   :   17
   #pairs with 51 - 55 PNOs   :   38
   #pairs with 56 - 60 PNOs   :   51
   #pairs with 61 - 65 PNOs   :   79
   #pairs with 66 - 70 PNOs   :    2
>> Statistics for ip-pairs..
   #pairs with  1 -  5 PNOs   :    0
   #pairs with  6 - 10 PNOs   :    1
   #pairs with 11 - 15 PNOs   :   16
   #pairs with 16 - 20 PNOs   :    2
   #pairs with 21 - 25 PNOs   :   28
   #pairs with 26 - 30 PNOs   :   12
   #pairs with 31 - 35 PNOs   :   47
   #pairs with 36 - 40 PNOs   :   12
   #pairs with 41 - 45 PNOs   :    0
   #pairs with 46 - 50 PNOs   :    0
>> Statistics for pq-pairs..
   #pairs with  1 -  5 PNOs   :    0
   #pairs with  6 - 10 PNOs   :    0
   #pairs with 11 - 15 PNOs   :    0
   #pairs with 16 - 20 PNOs   :    0
   #pairs with 21 - 25 PNOs   :    8
   #pairs with 26 - 30 PNOs   :   12
   #pairs with 31 - 35 PNOs   :    0
   #pairs with 36 - 40 PNOs   :    0
   #pairs with 41 - 45 PNOs   :    0
   #pairs with 46 - 50 PNOs   :    0
   #pairs with 81 - 85 PNOs   :    5

Generation of (ij|ab)[P] integrals            ... on
Generation of (ia|bc)[P],(ja|bc)[P] integrals ... on
Storage of 3 and 4 external integrals         ... on
Generation of ALL (ka|bc)[P] integrals        ... on
Keep RI integrals in memory                   ... off

Ibatch:  1 (of  1)
Starting 2-4 index PNO integral generation ... done

Timings:
Total PNO integral transformation time     ...       2197.032 sec
Size of the 3-external file                ...       279 MB
Size of the 4-external file                ...      1865 MB
Size of the IKJL file                      ...        19 MB
Size of the all 3-external file            ...      6717 MB
Size of the 1-external file                ...        22 MB

Size of the PAO/PNO coefficient matrices   ...     228.4 MB

Making pair/pair overlap matrices          ... done (  340.303 sec)
Size of the pair overlap file              ...    2469.0 MB
Total # unrestricted pairs ...       2185
  # of alpha-alpha pairs   ...        602
  # of alpha-beta pairs    ...       1109
  # of beta-beta pairs     ...        474
Constructing the guess amplitudes          ... done (    0.578 sec)

-------------------------
FINAL STARTUP INFORMATION
-------------------------

E(0)                                       ...  -3028.431145944
E(SL-UMP2 in NEV-PNO space)                ...     -2.689505691
Initial E(tot)                             ...  -3031.120651635
<T|T>                                      ...      0.536311607
Number of unrestricted pairs included      ... 2185
Total number of pairs                      ... 4095
----------------------------------------------------------
                     OPEN-SHELL COUPLED CLUSTER ITERATIONS
----------------------------------------------------------

Number of PNO amplitudes to be optimized        ...          2095055
Number of canonical amplitudes for strong pairs ...       1973516753
Untruncated number of canonical amplitudes      ...       3698645738

Iter       E(tot)           E(Corr)          Delta-E          Residual     Time
  0  -3031.127839371     -2.661002878      0.028502813      0.024570140 1730.93
                           *** Turning on DIIS ***
  1  -3031.241845355     -2.775008862     -0.114005983      0.013888938 1753.58
  2  -3031.306893056     -2.840056563     -0.065047701      0.008861031 1719.00
  3  -3031.328279458     -2.861442965     -0.021386402      0.004244086 1720.40
  4  -3031.335580827     -2.868744334     -0.007301369      0.002788544 1739.23
  5  -3031.339287385     -2.872450892     -0.003706558      0.001770155 1729.45
  6  -3031.340622193     -2.873785699     -0.001334808      0.000914508 1738.35
  7  -3031.341403354     -2.874566861     -0.000781161      0.000456768 1738.44
  8  -3031.341584823     -2.874748330     -0.000181470      0.000227224 1709.62
  9  -3031.341629031     -2.874792538     -0.000044208      0.000138265 1800.32
 10  -3031.341628065     -2.874791572      0.000000966      0.000107020 1814.93
 11  -3031.341639766     -2.874803273     -0.000011701      0.000057314 1849.44
 12  -3031.341646213     -2.874809720     -0.000006447      0.000037599 1824.47
 13  -3031.341649337     -2.874812844     -0.000003123      0.000016797 2071.35
 14  -3031.341649836     -2.874813342     -0.000000499      0.000008487 2150.95
               --- The CCSD iterations have converged ---

E(0)                                       ...  -3028.431145944
E(CORR)(strong-pairs)                      ...     -2.874813342
E(CORR)(weak-pairs)                        ...     -0.035690549
E(CORR)(corrected)                         ...     -2.910503891
E(TOT)                                     ...  -3031.341649836
Singles norm <S|S>**1/2                    ...      0.191969920 ( 0.065352833, 0.126617087)  
T1 diagnostic                              ...      0.020123916                              
<S**2>(linearized)                         ...      8.7507725 (ideal value:      8.7500000)

----------------------
LARGEST PNO AMPLITUDES
----------------------
  51b-> 76b  -1b-> -1b       0.057901
  45a-> 78a  45b-> 78b       0.054333
  44a-> 77a  -1a-> -1a       0.053705
  44b-> 77b  -1b-> -1b       0.053181
  49b-> 72b  -1b-> -1b       0.050852
  44a-> 77a  44b-> 77b       0.048424
  52b-> 76b  -1b-> -1b       0.048281
  56a-> 77a  56b-> 77b       0.045622
  66a-> 77a  66b-> 77b       0.044301
  69a-> 77a  69b-> 77b       0.043724
  67a-> 77a  67b-> 77b       0.043543
  37b-> 73b  -1b-> -1b       0.043543
  49b-> 74b  -1b-> -1b       0.043346
  63a-> 77a  63b-> 77b       0.043194
  59a-> 77a  59b-> 77b       0.043139
  53a-> 77a  53b-> 77b       0.042983

Total # unrestricted pairs ...       1214
  # of alpha-alpha pairs   ...        345
  # of alpha-beta pairs    ...        607
  # of beta-beta pairs     ...        262

-------------------------------------------
DLPNO BASED TRIPLES CORRECTION
-------------------------------------------

Singles multiplier          ...  1.000000
Fragment selection                          .... not used
TCutTNO                     ... 1.000e-09
TCutMP2Pairs                ... 1.000e-05
TCutDOStrong                ... 2.000e-02
TCutMKNStrong               ... 1.000e-02
TCutDOWeak                  ... 4.000e-02
TCutMKNWeak                 ... 1.000e-01
NTCutTNO                    ... 1

Number of Triples that are to be computed         ...     36004

 . . . . . . . . .
10% done  
20% done  
30% done  
40% done  
50% done  
60% done  
70% done  
80% done  
90% done  
          Batch   1   done (  19841.452 sec)

Triples-Correction TCutTNO=   1.000e-09 (NWeakPairs = 0  1  2  3)  -0.117498646485   -0.001770222368    0.000000000000    0.000000000000
Triples-Correction  -0.119268868853

Triples timings:
Total time                      ... 20588.756 sec

Triples List generation         ...     0.000 sec
TNO generation                  ...   747.045 sec
Pair density generation         ...     0.096 sec
Look up tables                  ...     0.142 sec
Generating 3-index integrals    ... 12679.537 sec
Make 4-ind.int. from 3-ind.int  ...     4.448 sec
Projecting amplitudes (D + S)   ...  6879.338 sec
Sorting integrals for spin cases...    59.982 sec
Calculate W0/W1                 ...   174.719 sec
Energy contr. (sum over a,b,c)  ...    43.222 sec

Everything after 3-index        ...  7326.102 sec

Energy contribution AAA         ...    27.472 sec
Energy contribution AAB         ...   123.380 sec
Energy contribution ABB         ...   112.398 sec
Energy contribution BBB         ...    14.739 sec
prep                ...     3.763 sec
makeTTNO            ...  6809.639 sec
copyij              ...     0.155 sec
copyil              ...     5.067 sec
transposeij         ...     0.093 sec
newMatInDoubleProj  ...    68.074 sec
BlasInDoubleProj    ...  3597.686 sec
ProjSingles         ...    57.216 sec
ProjDoubles         ...  6822.121 sec
overall Doubles for projection      ... 3337908
used Doubles for projection         ... 3337908


Number of Triples   (0, 1, 2, 3 weak pairs; overall):  17519   12352       0       0  ( 29871)
Number of Atoms     (0, 1, 2, 3 weak pairs; overall):   20.6    14.4     0.0     0.0  (    29)
Number of PAOs      (0, 1, 2, 3 weak pairs; overall):  788.8   588.4     0.0     0.0  (  1025)
Number of AuxFcns   (0, 1, 2, 3 weak pairs; overall): 1013.1   571.3     0.0     0.0  (  2424)
Number of TNOs (0, 1, 2, 3 weak pairs         ):   77.9    55.4     0.0     0.0
Aver. Number of NTNO, Atoms, PAOs, AuxFcns / Triples:  29871    68.6    18.0   705.9   830.4

Triples Correction (T)                     ...     -0.119268869
    alpha-alpha-alpha ... -0.003879377 (  3.3%)
    alpha-alpha-beta  ... -0.055994402 ( 46.9%)
    alpha-beta -beta  ... -0.055283399 ( 46.4%)
    beta -beta -beta  ... -0.004111691 (  3.4%)
Final correlation energy                   ...     -3.029772760
E(CCSD)                                    ...  -3031.341649836
E(CCSD(T))                                 ...  -3031.460918704

----------------------------
STATISTICS FOR PAIR-ENERGIES
----------------------------
Minimum, maximum and average ratios of UMP and CCSD pair-energies ... 0.45, 1.44, 1.02


------------------------------------------------------------------------------- 
                                     TIMINGS                                   
------------------------------------------------------------------------------- 


Total execution time                   ...    59703.240 sec

Localization of occupied MO's          ...       12.320 sec (  0.0%)
Fock Matrix Formation                  ...     1473.017 sec (  2.5%)
Differential overlap integrals         ...        1.539 sec (  0.0%)
Organizing maps                        ...        1.721 sec (  0.0%)
RI 3-index integral generations        ...     1485.595 sec (  2.5%)
RI-PNO integral transformation         ...     5156.655 sec (  8.6%)
Initial Guess                          ...     3911.437 sec (  6.6%)
DIIS Solver                            ...       15.726 sec (  0.0%)
State Vector Update                    ...        0.666 sec (  0.0%)
Sigma-vector construction              ...    27090.466 sec ( 45.4%)
  <0|H|D>                              ...        0.029 sec (  0.0% of sigma)
  <D|H|D>(0-ext)                       ...     5156.665 sec ( 19.0% of sigma)
  <D|H|D>(2-ext Fock)                  ...        1.145 sec (  0.0% of sigma)
  <D|H|D>(2-ext)                       ...     4175.562 sec ( 15.4% of sigma)
  <D|H|D>(4-ext)                       ...      124.409 sec (  0.5% of sigma)
  <D|H|D>(4-ext-corr)                  ...      764.176 sec (  2.8% of sigma)
  CCSD doubles correction              ...      505.209 sec (  1.9% of sigma)
  <S|H|S>                              ...      595.948 sec (  2.2% of sigma)
  <S|H|D>(1-ext)                       ...      233.876 sec (  0.9% of sigma)
  <D|H|S>(1-ext)                       ...        0.610 sec (  0.0% of sigma)
  <S|H|D>(3-ext)                       ...       19.807 sec (  0.1% of sigma)
  CCSD singles correction              ...        0.004 sec (  0.0% of sigma)
  Fock-dressing                        ...     7721.166 sec ( 28.5% of sigma)
  Singles amplitudes                   ...       96.440 sec (  0.4% of sigma)
  (ik|jl)-dressing                     ...     6054.739 sec ( 22.4% of sigma)
  (ij|ab),(ia|jb)-dressing             ...     1431.636 sec (  5.3% of sigma)
  Pair energies                        ...        0.130 sec (  0.0% of sigma)
Total Time for computing (T)           ...    20993.101 sec ( 35.2% of ALL)


-------------------------   --------------------
FINAL SINGLE POINT ENERGY     -3031.460918704354
-------------------------   --------------------


                            ***************************************
                            *     ORCA property calculations      *
                            ***************************************

                                    ---------------------
                                    Active property flags
                                    ---------------------
   (+) Dipole Moment


------------------------------------------------------------------------------
                       ORCA ELECTRIC PROPERTIES CALCULATION
------------------------------------------------------------------------------

Dipole Moment Calculation                       ... on
Quadrupole Moment Calculation                   ... off
Polarizability Calculation                      ... off
GBWName                                         ... simple-grid-180-200-b3lyp_d3bj-631gd-gas-singlepoint-DLPNO_CCSD_T1-NormalPNO-augtz-gas.gbw
Electron density file                           ... simple-grid-180-200-b3lyp_d3bj-631gd-gas-singlepoint-DLPNO_CCSD_T1-NormalPNO-augtz-gas.scfp.tmp
The origin for moment calculation is the CENTER OF MASS  = ( 0.299548,  0.020701  0.015481)

-------------
DIPOLE MOMENT
-------------
                                X             Y             Z
Electronic contribution:     40.18438       3.49825       1.89230
Nuclear contribution   :    -44.63266      -3.08441      -2.30674
                        -----------------------------------------
Total Dipole Moment    :     -4.44828       0.41384      -0.41443
                        -----------------------------------------
Magnitude (a.u.)       :      4.48667
Magnitude (Debye)      :     11.40420



--------------------
Rotational spectrum 
--------------------
 
Rotational constants in cm-1:     0.018856     0.012041     0.010808 
Rotational constants in MHz :   565.302727   360.988847   324.018490 

 Dipole components along the rotational axes: 
x,y,z [a.u.] :     4.451004     0.395755    -0.402649 
x,y,z [Debye]:    11.313554     1.005929    -1.023451 

 

Timings for individual modules:

Sum of individual times         ...    77893.021 sec (=1298.217 min)
GTO integral calculation        ...       12.372 sec (=   0.206 min)   0.0 %
SCF iterations                  ...    18159.217 sec (= 302.654 min)  23.3 %
MDCI module                     ...    59721.431 sec (= 995.357 min)  76.7 %
                             ****ORCA TERMINATED NORMALLY****
TOTAL RUN TIME: 0 days 21 hours 38 minutes 16 seconds 220 msec
