 Entering Gaussian System, Link 0=g16
 Input=simple-grid-230-295-b3lyp_d3bj-631gd-gas-singlepoint-DFT-juldz2-gas.gjf
 Output=simple-grid-230-295-b3lyp_d3bj-631gd-gas-singlepoint-DFT-juldz2-gas.out
 Initial command:
 /n/sw/g16_nehalem/g16/l1.exe "/scratch/Gau-411184.inp" -scrdir="/scratch/"
 Entering Link 1 = /n/sw/g16_nehalem/g16/l1.exe PID=    411204.
  
 Copyright (c) 1988,1990,1992,1993,1995,1998,2003,2009,2016,
            Gaussian, Inc.  All Rights Reserved.
  
 This is part of the Gaussian(R) 16 program.  It is based on
 the Gaussian(R) 09 system (copyright 2009, Gaussian, Inc.),
 the Gaussian(R) 03 system (copyright 2003, Gaussian, Inc.),
 the Gaussian(R) 98 system (copyright 1998, Gaussian, Inc.),
 the Gaussian(R) 94 system (copyright 1995, Gaussian, Inc.),
 the Gaussian 92(TM) system (copyright 1992, Gaussian, Inc.),
 the Gaussian 90(TM) system (copyright 1990, Gaussian, Inc.),
 the Gaussian 88(TM) system (copyright 1988, Gaussian, Inc.),
 the Gaussian 86(TM) system (copyright 1986, Carnegie Mellon
 University), and the Gaussian 82(TM) system (copyright 1983,
 Carnegie Mellon University). Gaussian is a federally registered
 trademark of Gaussian, Inc.
  
 This software contains proprietary and confidential information,
 including trade secrets, belonging to Gaussian, Inc.
  
 This software is provided under written license and may be
 used, copied, transmitted, or stored only in accord with that
 written license.
  
 The following legend is applicable only to US Government
 contracts under FAR:
  
                    RESTRICTED RIGHTS LEGEND
  
 Use, reproduction and disclosure by the US Government is
 subject to restrictions as set forth in subparagraphs (a)
 and (c) of the Commercial Computer Software - Restricted
 Rights clause in FAR 52.227-19.
  
 Gaussian, Inc.
 340 Quinnipiac St., Bldg. 40, Wallingford CT 06492
  
  
 ---------------------------------------------------------------
 Warning -- This program may not be used in any manner that
 competes with the business of Gaussian, Inc. or will provide
 assistance to any competitor of Gaussian, Inc.  The licensee
 of this program is prohibited from giving any competitor of
 Gaussian, Inc. access to this program.  By using this program,
 the user acknowledges that Gaussian, Inc. is engaged in the
 business of creating and licensing software in the field of
 computational chemistry and represents and warrants to the
 licensee that it is not a competitor of Gaussian, Inc. and that
 it will not use this program in any manner prohibited above.
 ---------------------------------------------------------------
  

 Cite this work as:
 Gaussian 16, Revision A.03,
 M. J. Frisch, G. W. Trucks, H. B. Schlegel, G. E. Scuseria, 
 M. A. Robb, J. R. Cheeseman, G. Scalmani, V. Barone, 
 G. A. Petersson, H. Nakatsuji, X. Li, M. Caricato, A. V. Marenich, 
 J. Bloino, B. G. Janesko, R. Gomperts, B. Mennucci, H. P. Hratchian, 
 J. V. Ortiz, A. F. Izmaylov, J. L. Sonnenberg, D. Williams-Young, 
 F. Ding, F. Lipparini, F. Egidi, J. Goings, B. Peng, A. Petrone, 
 T. Henderson, D. Ranasinghe, V. G. Zakrzewski, J. Gao, N. Rega, 
 G. Zheng, W. Liang, M. Hada, M. Ehara, K. Toyota, R. Fukuda, 
 J. Hasegawa, M. Ishida, T. Nakajima, Y. Honda, O. Kitao, H. Nakai, 
 T. Vreven, K. Throssell, J. A. Montgomery, Jr., J. E. Peralta, 
 F. Ogliaro, M. J. Bearpark, J. J. Heyd, E. N. Brothers, K. N. Kudin, 
 V. N. Staroverov, T. A. Keith, R. Kobayashi, J. Normand, 
 K. Raghavachari, A. P. Rendell, J. C. Burant, S. S. Iyengar, 
 J. Tomasi, M. Cossi, J. M. Millam, M. Klene, C. Adamo, R. Cammi, 
 J. W. Ochterski, R. L. Martin, K. Morokuma, O. Farkas, 
 J. B. Foresman, and D. J. Fox, Gaussian, Inc., Wallingford CT, 2016.
 
 ******************************************
 Gaussian 16:  ES64L-G16RevA.03 25-Dec-2016
                11-Feb-2020 
 ******************************************
 %chk=checkpoint.chk
 %mem=3GB
 %nprocshared=4
 Will use up to    4 processors via shared memory.
 --------------------------------
 #t pop=none jul-cc-pvdz upbe1pbe
 --------------------------------
 ------------------------
 theory_abbreviation pbe0
 ------------------------
 Symbolic Z-matrix:
 Charge =  0 Multiplicity = 6
 O                    -0.2824   -0.26283  -0.56758 
 C                    -1.08623  -1.2188   -0.33198 
 C                    -2.76828  -0.21729   0.87537 
 C                    -3.02176   0.71857  -0.08253 
 C                    -4.03793   0.49877  -1.16234 
 Fe                    1.53839   0.18625  -0.08531 
 Cl                    1.86321   2.09599  -1.09017 
 C                    -2.25913   2.00322  -0.13902 
 Cl                    2.62712  -1.5421   -0.88188 
 Cl                    1.69795   0.32554   2.10131 
 H                    -3.39913  -1.10529   0.87783 
 H                    -2.77768   2.76011  -0.73394 
 H                    -2.04407   2.41164   0.85186 
 H                    -1.28714   1.81005  -0.62116 
 H                    -4.85298   1.22446  -1.0361 
 H                    -3.6151    0.68623  -2.15781 
 H                    -4.47219  -0.50366  -1.13888 
 C                    -2.05208   0.10827   2.16571 
 H                    -2.61409   0.86693   2.72463 
 H                    -1.96883  -0.77036   2.8084 
 H                    -1.04547   0.50268   2.00571 
 C                    -0.74712  -2.20474   0.7578 
 H                    -1.60447  -2.8075    1.06242 
 H                     0.00618  -2.87323   0.31597 
 H                    -0.28635  -1.72303   1.61913 
 C                    -1.85323  -1.75921  -1.5109 
 H                    -1.17985  -2.47301  -2.00551 
 H                    -2.75692  -2.29568  -1.21623 
 H                    -2.08672  -0.97327  -2.22769 
 
                    Distance matrix (angstroms):
                    1          2          3          4          5
     1  O    0.000000
     2  C    1.271039   0.000000
     3  C    2.874679   2.300000   0.000000
     4  C    2.949997   2.749889   1.362951   0.000000
     5  C    3.877856   3.514554   2.505393   1.498976   0.000000
     6  Fe   1.936370   2.987244   4.430932   4.591111   5.687970
     7  Cl   3.231210   4.501315   5.537620   5.174503   6.113898
     8  C    3.037445   3.434291   2.493771   1.495037   2.544549
     9  Cl   3.193840   3.767737   5.826949   6.136720   6.976148
    10  Cl   3.375045   4.007180   4.663132   5.215284   6.601644
    11  H    3.537370   2.612668   1.089279   2.095512   2.672710
    12  H    3.923289   4.342152   3.384498   2.156800   2.624011
    13  H    3.503011   3.936884   2.726962   2.166902   3.419302
    14  H    2.304160   3.049246   2.922920   2.119044   3.095028
    15  H    4.829256   4.544638   3.174636   2.125703   1.098578
    16  H    3.812666   3.654861   3.276218   2.158683   1.097671
    17  H    4.235408   3.553481   2.653768   2.171055   1.092698
    18  C    3.277255   2.988719   1.511268   2.523355   3.895131
    19  H    4.189484   4.003429   2.149201   2.840477   4.155886
    20  H    3.807742   3.292726   2.163707   3.418041   4.653885
    21  H    2.791079   2.903436   2.182687   2.883237   4.357914
    22  C    2.396586   1.508202   2.837053   3.798135   4.671757
    23  H    3.298502   2.176431   2.845807   3.968970   4.669330
    24  H    2.770945   2.085741   3.881311   4.714678   5.469057
    25  H    2.629436   2.168150   2.996738   4.042214   5.171784
    26  C    2.365696   1.506716   2.984811   3.089513   3.161149
    27  H    2.785313   2.093450   3.988840   4.156519   4.208442
    28  H    3.267492   2.175498   2.948662   3.231274   3.074547
    29  H    2.552694   2.157545   3.265729   2.887617   2.666285
                    6          7          8          9         10
     6  Fe   0.000000
     7  Cl   2.182278   0.000000
     8  C    4.210153   4.231654   0.000000
     9  Cl   2.192493   3.723253   6.082474   0.000000
    10  Cl   2.196853   3.653391   4.846864   3.640167   0.000000
    11  H    5.193730   6.466329   3.463593   6.293094   5.433636
    12  H    5.066942   4.701677   1.093479   6.909607   5.830688
    13  H    4.320264   4.374690   1.093120   6.360652   4.462688
    14  H    3.302642   3.197874   1.102059   5.160061   4.304218
    15  H    6.544576   6.772712   2.852948   7.976808   7.318881
    16  H    5.577070   5.756663   2.765622   6.749722   6.818993
    17  H    6.141091   6.848193   3.490248   7.179449   7.018329
    18  C    4.238477   5.466375   2.990906   5.822921   3.756870
    19  H    5.059861   6.009113   3.101233   6.802980   4.390366
    20  H    4.646424   6.172458   4.057623   5.944447   3.891817
    21  H    3.338987   4.536901   2.885214   5.099722   2.750790
    22  C    3.413385   5.359570   4.560413   3.809605   3.766388
    23  H    4.489694   6.379853   5.001503   4.825746   4.669174
    24  H    3.445151   5.488062   5.396144   3.174275   4.035048
    25  H    3.143268   5.152257   4.568139   3.843962   2.892502
    26  C    4.161753   5.371357   4.025258   4.529494   5.477690
    27  H    4.260006   5.565409   4.968426   4.077029   5.742787
    28  H    5.088089   6.375598   4.459683   5.446792   6.141881
    29  H    4.367570   5.129931   3.640296   4.935081   5.894982
                   11         12         13         14         15
    11  H    0.000000
    12  H    4.233830   0.000000
    13  H    3.769047   1.781679   0.000000
    14  H    3.899576   1.771172   1.762007   0.000000
    15  H    3.347322   2.599305   3.586616   3.637350   0.000000
    16  H    3.531474   2.651353   3.808328   3.007272   1.755067
    17  H    2.362315   3.699665   4.284605   3.970618   1.772562
    18  C    2.223942   3.995837   2.651754   3.353782   4.398016
    19  H    2.813643   3.946207   2.493655   3.720830   4.391302
    20  H    2.425910   5.066217   3.736149   4.345694   5.203634
    21  H    3.065522   3.949961   2.443910   2.944157   4.926534
    22  C    2.873387   5.567595   4.796028   4.279208   5.642301
    23  H    2.480398   5.966699   5.241850   4.925120   5.586883
    24  H    3.877813   6.370762   5.693904   4.948122   6.498506
    25  H    3.258918   5.642886   4.557827   4.301523   6.049139
    26  C    2.919494   4.677874   4.797405   3.721785   4.257489
    27  H    3.887098   5.617422   5.724622   4.502497   5.301215
    28  H    2.492897   5.078785   5.190770   4.401293   4.100893
    29  H    3.374036   4.080050   4.576363   3.311661   3.728550
                   16         17         18         19         20
    16  H    0.000000
    17  H    1.785678   0.000000
    18  C    4.633566   4.141463   0.000000
    19  H    4.987270   4.500857   1.097179   0.000000
    20  H    5.430939   4.681767   1.091768   1.761839   0.000000
    21  H    4.896082   4.758527   1.092901   1.763546   1.765653
    22  C    5.008371   4.513000   3.005852   4.097452   2.784778
    23  H    5.159322   4.286858   3.149493   4.157362   2.707610
    24  H    5.648274   5.271357   4.067839   5.162965   3.812472
    25  H    5.581256   5.158946   2.601965   3.653544   2.269954
    26  C    3.082670   2.928092   4.128499   5.041347   4.432554
    27  H    3.991791   3.933043   4.982261   5.965437   5.166748
    28  H    3.242661   2.481825   4.208718   5.054980   4.375537
    29  H    2.257158   2.663923   4.524701   5.309414   5.041555
                   21         22         23         24         25
    21  H    0.000000
    22  C    2.996065   0.000000
    23  H    3.487056   1.091403   0.000000
    24  H    3.918921   1.099797   1.776430   0.000000
    25  H    2.383169   1.089149   1.795396   1.762599   0.000000
    26  C    4.258542   2.562999   2.789755   2.834765   3.500503
    27  H    4.996270   2.809829   3.115187   2.637452   3.807740
    28  H    4.597912   2.818572   2.604286   3.211841   3.804066
    29  H    4.602642   3.496311   3.797599   3.802668   4.312947
                   26         27         28         29
    26  C    0.000000
    27  H    1.098903   0.000000
    28  H    1.091464   1.772447   0.000000
    29  H    1.089043   1.766631   1.794719   0.000000
 Framework group  C1[X(C8H16Cl3FeO)]
 Deg. of freedom    81
                         Standard orientation:                         
 ---------------------------------------------------------------------
 Center     Atomic      Atomic             Coordinates (Angstroms)
 Number     Number       Type             X           Y           Z
 ---------------------------------------------------------------------
      1          8           0       -0.282402   -0.262825   -0.567584
      2          6           0       -1.086230   -1.218801   -0.331975
      3          6           0       -2.768283   -0.217288    0.875365
      4          6           0       -3.021757    0.718569   -0.082527
      5          6           0       -4.037932    0.498766   -1.162343
      6         26           0        1.538388    0.186248   -0.085313
      7         17           0        1.863206    2.095986   -1.090166
      8          6           0       -2.259125    2.003223   -0.139022
      9         17           0        2.627115   -1.542100   -0.881875
     10         17           0        1.697946    0.325544    2.101306
     11          1           0       -3.399133   -1.105292    0.877831
     12          1           0       -2.777679    2.760107   -0.733938
     13          1           0       -2.044068    2.411644    0.851864
     14          1           0       -1.287138    1.810045   -0.621161
     15          1           0       -4.852980    1.224461   -1.036104
     16          1           0       -3.615104    0.686227   -2.157811
     17          1           0       -4.472187   -0.503662   -1.138881
     18          6           0       -2.052083    0.108270    2.165714
     19          1           0       -2.614094    0.866928    2.724626
     20          1           0       -1.968832   -0.770355    2.808400
     21          1           0       -1.045470    0.502682    2.005711
     22          6           0       -0.747121   -2.204736    0.757800
     23          1           0       -1.604472   -2.807495    1.062417
     24          1           0        0.006181   -2.873225    0.315971
     25          1           0       -0.286349   -1.723028    1.619132
     26          6           0       -1.853232   -1.759211   -1.510898
     27          1           0       -1.179854   -2.473007   -2.005515
     28          1           0       -2.756923   -2.295684   -1.216225
     29          1           0       -2.086720   -0.973268   -2.227690
 ---------------------------------------------------------------------
 Rotational constants (GHZ):           0.5890586           0.3043515           0.2905826
   427 basis functions,  1056 primitive gaussians,   461 cartesian basis functions
    77 alpha electrons       72 beta electrons
       nuclear repulsion energy      1616.2824007138 Hartrees.
 NAtoms=   29 NActive=   29 NUniq=   29 SFac= 1.00D+00 NAtFMM=   60 NAOKFM=F Big=F
 ExpMin= 1.40D-02 ExpMax= 4.32D+06 ExpMxC= 4.91D+03 IAcc=3 IRadAn=         5 AccDes= 0.00D+00
 Harris functional with IExCor= 1009 and IRadAn=       5 diagonalized for initial guess.
 HarFok:  IExCor= 1009 AccDes= 0.00D+00 IRadAn=         5 IDoV= 1 UseB2=F ITyADJ=14
 ICtDFT=  3500011 ScaDFX=  1.000000  1.000000  1.000000  1.000000
 FoFCou: FMM=F IPFlag=           0 FMFlag=      100000 FMFlg1=           0
         NFxFlg=           0 DoJE=T BraDBF=F KetDBF=T FulRan=T
         wScrn=  0.000000 ICntrl=       500 IOpCl=  0 I1Cent=   200000004 NGrid=           0
         NMat0=    1 NMatS0=      1 NMatT0=    0 NMatD0=    1 NMtDS0=    0 NMtDT0=    0
 Petite list used in FoFCou.
 Initial guess <Sx>= 0.0000 <Sy>= 0.0000 <Sz>= 2.5000 <S**2>= 8.7500 S= 2.5000
 EnCoef did   100 forward-backward iterations
 Restarting incremental Fock formation.
 SCF Done:  E(UPBE1PBE) =  -3033.12484502     A.U. after   21 cycles
            NFock= 21  Conv=0.43D-08     -V/T= 2.0021
 <Sx>= 0.0000 <Sy>= 0.0000 <Sz>= 2.5000 <S**2>= 8.7628 S= 2.5021
 <L.S>= 0.000000000000E+00
 Annihilation of the first spin contaminant:
 S**2 before annihilation     8.7628,   after     8.7501
 1\1\GINC-HOLY7C04207\SP\UPBE1PBE\Jul-CC-pVDZ\C8H16Cl3Fe1O1(6)\EKWAN\11
 -Feb-2020\0\\#t pop=none jul-cc-pvdz upbe1pbe\\theory_abbreviation pbe
 0\\0,6\O,0,-0.282402,-0.262825,-0.567584\C,0,-1.08623,-1.218801,-0.331
 975\C,0,-2.768283,-0.217288,0.875365\C,0,-3.021757,0.718569,-0.082527\
 C,0,-4.037932,0.498766,-1.162343\Fe,0,1.538388,0.186248,-0.085313\Cl,0
 ,1.863206,2.095986,-1.090166\C,0,-2.259125,2.003223,-0.139022\Cl,0,2.6
 27115,-1.5421,-0.881875\Cl,0,1.697946,0.325544,2.101306\H,0,-3.399133,
 -1.105292,0.877831\H,0,-2.777679,2.760107,-0.733938\H,0,-2.044068,2.41
 1644,0.851864\H,0,-1.287138,1.810045,-0.621161\H,0,-4.85298,1.224461,-
 1.036104\H,0,-3.615104,0.686227,-2.157811\H,0,-4.472187,-0.503662,-1.1
 38881\C,0,-2.052083,0.10827,2.165714\H,0,-2.614094,0.866928,2.724626\H
 ,0,-1.968832,-0.770355,2.8084\H,0,-1.04547,0.502682,2.005711\C,0,-0.74
 7121,-2.204736,0.7578\H,0,-1.604472,-2.807495,1.062417\H,0,0.006181,-2
 .873225,0.315971\H,0,-0.286349,-1.723028,1.619132\C,0,-1.853232,-1.759
 211,-1.510898\H,0,-1.179854,-2.473007,-2.005515\H,0,-2.756923,-2.29568
 4,-1.216225\H,0,-2.08672,-0.973268,-2.22769\\Version=ES64L-G16RevA.03\
 HF=-3033.124845\S2=8.762815\S2-1=0.\S2A=8.750051\RMSD=4.294e-09\PG=C01
  [X(C8H16Cl3Fe1O1)]\\@


 IF YOU PERCEIVE THAT THERE ARE FOUR POSSIBLE WAYS IN
 WHICH A PROCEDURE CAN GO WRONG AND CIRCUMVENT THESE, 
 THEN A FIFTH WAY WILL DEVELOP.

                              -- MURPHY'S TWELFTH LAW
 Job cpu time:       0 days  1 hours 29 minutes  4.9 seconds.
 Elapsed time:       0 days  0 hours 22 minutes 22.0 seconds.
 File lengths (MBytes):  RWF=    173 Int=      0 D2E=      0 Chk=     13 Scr=      1
 Normal termination of Gaussian 16 at Tue Feb 11 13:59:29 2020.
 Initial command:
 /n/sw/g16_nehalem/g16/l1.exe "/scratch/Gau-411184.inp" -scrdir="/scratch/"
 Entering Link 1 = /n/sw/g16_nehalem/g16/l1.exe PID=    412819.
  
 Copyright (c) 1988,1990,1992,1993,1995,1998,2003,2009,2016,
            Gaussian, Inc.  All Rights Reserved.
  
 This is part of the Gaussian(R) 16 program.  It is based on
 the Gaussian(R) 09 system (copyright 2009, Gaussian, Inc.),
 the Gaussian(R) 03 system (copyright 2003, Gaussian, Inc.),
 the Gaussian(R) 98 system (copyright 1998, Gaussian, Inc.),
 the Gaussian(R) 94 system (copyright 1995, Gaussian, Inc.),
 the Gaussian 92(TM) system (copyright 1992, Gaussian, Inc.),
 the Gaussian 90(TM) system (copyright 1990, Gaussian, Inc.),
 the Gaussian 88(TM) system (copyright 1988, Gaussian, Inc.),
 the Gaussian 86(TM) system (copyright 1986, Carnegie Mellon
 University), and the Gaussian 82(TM) system (copyright 1983,
 Carnegie Mellon University). Gaussian is a federally registered
 trademark of Gaussian, Inc.
  
 This software contains proprietary and confidential information,
 including trade secrets, belonging to Gaussian, Inc.
  
 This software is provided under written license and may be
 used, copied, transmitted, or stored only in accord with that
 written license.
  
 The following legend is applicable only to US Government
 contracts under FAR:
  
                    RESTRICTED RIGHTS LEGEND
  
 Use, reproduction and disclosure by the US Government is
 subject to restrictions as set forth in subparagraphs (a)
 and (c) of the Commercial Computer Software - Restricted
 Rights clause in FAR 52.227-19.
  
 Gaussian, Inc.
 340 Quinnipiac St., Bldg. 40, Wallingford CT 06492
  
  
 ---------------------------------------------------------------
 Warning -- This program may not be used in any manner that
 competes with the business of Gaussian, Inc. or will provide
 assistance to any competitor of Gaussian, Inc.  The licensee
 of this program is prohibited from giving any competitor of
 Gaussian, Inc. access to this program.  By using this program,
 the user acknowledges that Gaussian, Inc. is engaged in the
 business of creating and licensing software in the field of
 computational chemistry and represents and warrants to the
 licensee that it is not a competitor of Gaussian, Inc. and that
 it will not use this program in any manner prohibited above.
 ---------------------------------------------------------------
  

 Cite this work as:
 Gaussian 16, Revision A.03,
 M. J. Frisch, G. W. Trucks, H. B. Schlegel, G. E. Scuseria, 
 M. A. Robb, J. R. Cheeseman, G. Scalmani, V. Barone, 
 G. A. Petersson, H. Nakatsuji, X. Li, M. Caricato, A. V. Marenich, 
 J. Bloino, B. G. Janesko, R. Gomperts, B. Mennucci, H. P. Hratchian, 
 J. V. Ortiz, A. F. Izmaylov, J. L. Sonnenberg, D. Williams-Young, 
 F. Ding, F. Lipparini, F. Egidi, J. Goings, B. Peng, A. Petrone, 
 T. Henderson, D. Ranasinghe, V. G. Zakrzewski, J. Gao, N. Rega, 
 G. Zheng, W. Liang, M. Hada, M. Ehara, K. Toyota, R. Fukuda, 
 J. Hasegawa, M. Ishida, T. Nakajima, Y. Honda, O. Kitao, H. Nakai, 
 T. Vreven, K. Throssell, J. A. Montgomery, Jr., J. E. Peralta, 
 F. Ogliaro, M. J. Bearpark, J. J. Heyd, E. N. Brothers, K. N. Kudin, 
 V. N. Staroverov, T. A. Keith, R. Kobayashi, J. Normand, 
 K. Raghavachari, A. P. Rendell, J. C. Burant, S. S. Iyengar, 
 J. Tomasi, M. Cossi, J. M. Millam, M. Klene, C. Adamo, R. Cammi, 
 J. W. Ochterski, R. L. Martin, K. Morokuma, O. Farkas, 
 J. B. Foresman, and D. J. Fox, Gaussian, Inc., Wallingford CT, 2016.
 
 ******************************************
 Gaussian 16:  ES64L-G16RevA.03 25-Dec-2016
                11-Feb-2020 
 ******************************************
 %chk=checkpoint.chk
 %mem=3GB
 %nprocshared=4
 Will use up to    4 processors via shared memory.
 ---------------------------------------------------------------------
 #t pop=none jul-cc-pvdz guess=read upbe1pbe empiricaldispersion=gd3bj
 ---------------------------------------------------------------------
 -----------------------------
 theory_abbreviation pbe0_d3bj
 -----------------------------
 Symbolic Z-matrix:
 Charge =  0 Multiplicity = 6
 O                    -0.2824   -0.26283  -0.56758 
 C                    -1.08623  -1.2188   -0.33198 
 C                    -2.76828  -0.21729   0.87537 
 C                    -3.02176   0.71857  -0.08253 
 C                    -4.03793   0.49877  -1.16234 
 Fe                    1.53839   0.18625  -0.08531 
 Cl                    1.86321   2.09599  -1.09017 
 C                    -2.25913   2.00322  -0.13902 
 Cl                    2.62712  -1.5421   -0.88188 
 Cl                    1.69795   0.32554   2.10131 
 H                    -3.39913  -1.10529   0.87783 
 H                    -2.77768   2.76011  -0.73394 
 H                    -2.04407   2.41164   0.85186 
 H                    -1.28714   1.81005  -0.62116 
 H                    -4.85298   1.22446  -1.0361 
 H                    -3.6151    0.68623  -2.15781 
 H                    -4.47219  -0.50366  -1.13888 
 C                    -2.05208   0.10827   2.16571 
 H                    -2.61409   0.86693   2.72463 
 H                    -1.96883  -0.77036   2.8084 
 H                    -1.04547   0.50268   2.00571 
 C                    -0.74712  -2.20474   0.7578 
 H                    -1.60447  -2.8075    1.06242 
 H                     0.00618  -2.87323   0.31597 
 H                    -0.28635  -1.72303   1.61913 
 C                    -1.85323  -1.75921  -1.5109 
 H                    -1.17985  -2.47301  -2.00551 
 H                    -2.75692  -2.29568  -1.21623 
 H                    -2.08672  -0.97327  -2.22769 
 
                    Distance matrix (angstroms):
                    1          2          3          4          5
     1  O    0.000000
     2  C    1.271039   0.000000
     3  C    2.874679   2.300000   0.000000
     4  C    2.949997   2.749889   1.362951   0.000000
     5  C    3.877856   3.514554   2.505393   1.498976   0.000000
     6  Fe   1.936370   2.987244   4.430932   4.591111   5.687970
     7  Cl   3.231210   4.501315   5.537620   5.174503   6.113898
     8  C    3.037445   3.434291   2.493771   1.495037   2.544549
     9  Cl   3.193840   3.767737   5.826949   6.136720   6.976148
    10  Cl   3.375045   4.007180   4.663132   5.215284   6.601644
    11  H    3.537370   2.612668   1.089279   2.095512   2.672710
    12  H    3.923289   4.342152   3.384498   2.156800   2.624011
    13  H    3.503011   3.936884   2.726962   2.166902   3.419302
    14  H    2.304160   3.049246   2.922920   2.119044   3.095028
    15  H    4.829256   4.544638   3.174636   2.125703   1.098578
    16  H    3.812666   3.654861   3.276218   2.158683   1.097671
    17  H    4.235408   3.553481   2.653768   2.171055   1.092698
    18  C    3.277255   2.988719   1.511268   2.523355   3.895131
    19  H    4.189484   4.003429   2.149201   2.840477   4.155886
    20  H    3.807742   3.292726   2.163707   3.418041   4.653885
    21  H    2.791079   2.903436   2.182687   2.883237   4.357914
    22  C    2.396586   1.508202   2.837053   3.798135   4.671757
    23  H    3.298502   2.176431   2.845807   3.968970   4.669330
    24  H    2.770945   2.085741   3.881311   4.714678   5.469057
    25  H    2.629436   2.168150   2.996738   4.042214   5.171784
    26  C    2.365696   1.506716   2.984811   3.089513   3.161149
    27  H    2.785313   2.093450   3.988840   4.156519   4.208442
    28  H    3.267492   2.175498   2.948662   3.231274   3.074547
    29  H    2.552694   2.157545   3.265729   2.887617   2.666285
                    6          7          8          9         10
     6  Fe   0.000000
     7  Cl   2.182278   0.000000
     8  C    4.210153   4.231654   0.000000
     9  Cl   2.192493   3.723253   6.082474   0.000000
    10  Cl   2.196853   3.653391   4.846864   3.640167   0.000000
    11  H    5.193730   6.466329   3.463593   6.293094   5.433636
    12  H    5.066942   4.701677   1.093479   6.909607   5.830688
    13  H    4.320264   4.374690   1.093120   6.360652   4.462688
    14  H    3.302642   3.197874   1.102059   5.160061   4.304218
    15  H    6.544576   6.772712   2.852948   7.976808   7.318881
    16  H    5.577070   5.756663   2.765622   6.749722   6.818993
    17  H    6.141091   6.848193   3.490248   7.179449   7.018329
    18  C    4.238477   5.466375   2.990906   5.822921   3.756870
    19  H    5.059861   6.009113   3.101233   6.802980   4.390366
    20  H    4.646424   6.172458   4.057623   5.944447   3.891817
    21  H    3.338987   4.536901   2.885214   5.099722   2.750790
    22  C    3.413385   5.359570   4.560413   3.809605   3.766388
    23  H    4.489694   6.379853   5.001503   4.825746   4.669174
    24  H    3.445151   5.488062   5.396144   3.174275   4.035048
    25  H    3.143268   5.152257   4.568139   3.843962   2.892502
    26  C    4.161753   5.371357   4.025258   4.529494   5.477690
    27  H    4.260006   5.565409   4.968426   4.077029   5.742787
    28  H    5.088089   6.375598   4.459683   5.446792   6.141881
    29  H    4.367570   5.129931   3.640296   4.935081   5.894982
                   11         12         13         14         15
    11  H    0.000000
    12  H    4.233830   0.000000
    13  H    3.769047   1.781679   0.000000
    14  H    3.899576   1.771172   1.762007   0.000000
    15  H    3.347322   2.599305   3.586616   3.637350   0.000000
    16  H    3.531474   2.651353   3.808328   3.007272   1.755067
    17  H    2.362315   3.699665   4.284605   3.970618   1.772562
    18  C    2.223942   3.995837   2.651754   3.353782   4.398016
    19  H    2.813643   3.946207   2.493655   3.720830   4.391302
    20  H    2.425910   5.066217   3.736149   4.345694   5.203634
    21  H    3.065522   3.949961   2.443910   2.944157   4.926534
    22  C    2.873387   5.567595   4.796028   4.279208   5.642301
    23  H    2.480398   5.966699   5.241850   4.925120   5.586883
    24  H    3.877813   6.370762   5.693904   4.948122   6.498506
    25  H    3.258918   5.642886   4.557827   4.301523   6.049139
    26  C    2.919494   4.677874   4.797405   3.721785   4.257489
    27  H    3.887098   5.617422   5.724622   4.502497   5.301215
    28  H    2.492897   5.078785   5.190770   4.401293   4.100893
    29  H    3.374036   4.080050   4.576363   3.311661   3.728550
                   16         17         18         19         20
    16  H    0.000000
    17  H    1.785678   0.000000
    18  C    4.633566   4.141463   0.000000
    19  H    4.987270   4.500857   1.097179   0.000000
    20  H    5.430939   4.681767   1.091768   1.761839   0.000000
    21  H    4.896082   4.758527   1.092901   1.763546   1.765653
    22  C    5.008371   4.513000   3.005852   4.097452   2.784778
    23  H    5.159322   4.286858   3.149493   4.157362   2.707610
    24  H    5.648274   5.271357   4.067839   5.162965   3.812472
    25  H    5.581256   5.158946   2.601965   3.653544   2.269954
    26  C    3.082670   2.928092   4.128499   5.041347   4.432554
    27  H    3.991791   3.933043   4.982261   5.965437   5.166748
    28  H    3.242661   2.481825   4.208718   5.054980   4.375537
    29  H    2.257158   2.663923   4.524701   5.309414   5.041555
                   21         22         23         24         25
    21  H    0.000000
    22  C    2.996065   0.000000
    23  H    3.487056   1.091403   0.000000
    24  H    3.918921   1.099797   1.776430   0.000000
    25  H    2.383169   1.089149   1.795396   1.762599   0.000000
    26  C    4.258542   2.562999   2.789755   2.834765   3.500503
    27  H    4.996270   2.809829   3.115187   2.637452   3.807740
    28  H    4.597912   2.818572   2.604286   3.211841   3.804066
    29  H    4.602642   3.496311   3.797599   3.802668   4.312947
                   26         27         28         29
    26  C    0.000000
    27  H    1.098903   0.000000
    28  H    1.091464   1.772447   0.000000
    29  H    1.089043   1.766631   1.794719   0.000000
 Framework group  C1[X(C8H16Cl3FeO)]
 Deg. of freedom    81
                         Standard orientation:                         
 ---------------------------------------------------------------------
 Center     Atomic      Atomic             Coordinates (Angstroms)
 Number     Number       Type             X           Y           Z
 ---------------------------------------------------------------------
      1          8           0       -0.282402   -0.262825   -0.567584
      2          6           0       -1.086230   -1.218801   -0.331975
      3          6           0       -2.768283   -0.217288    0.875365
      4          6           0       -3.021757    0.718569   -0.082527
      5          6           0       -4.037932    0.498766   -1.162343
      6         26           0        1.538388    0.186248   -0.085313
      7         17           0        1.863206    2.095986   -1.090166
      8          6           0       -2.259125    2.003223   -0.139022
      9         17           0        2.627115   -1.542100   -0.881875
     10         17           0        1.697946    0.325544    2.101306
     11          1           0       -3.399133   -1.105292    0.877831
     12          1           0       -2.777679    2.760107   -0.733938
     13          1           0       -2.044068    2.411644    0.851864
     14          1           0       -1.287138    1.810045   -0.621161
     15          1           0       -4.852980    1.224461   -1.036104
     16          1           0       -3.615104    0.686227   -2.157811
     17          1           0       -4.472187   -0.503662   -1.138881
     18          6           0       -2.052083    0.108270    2.165714
     19          1           0       -2.614094    0.866928    2.724626
     20          1           0       -1.968832   -0.770355    2.808400
     21          1           0       -1.045470    0.502682    2.005711
     22          6           0       -0.747121   -2.204736    0.757800
     23          1           0       -1.604472   -2.807495    1.062417
     24          1           0        0.006181   -2.873225    0.315971
     25          1           0       -0.286349   -1.723028    1.619132
     26          6           0       -1.853232   -1.759211   -1.510898
     27          1           0       -1.179854   -2.473007   -2.005515
     28          1           0       -2.756923   -2.295684   -1.216225
     29          1           0       -2.086720   -0.973268   -2.227690
 ---------------------------------------------------------------------
 Rotational constants (GHZ):           0.5890586           0.3043515           0.2905826
   427 basis functions,  1056 primitive gaussians,   461 cartesian basis functions
    77 alpha electrons       72 beta electrons
       nuclear repulsion energy      1616.2824007138 Hartrees.
 NAtoms=   29 NActive=   29 NUniq=   29 SFac= 1.00D+00 NAtFMM=   60 NAOKFM=F Big=F
 Nuclear repulsion after empirical dispersion term =     1616.2460536369 Hartrees.
 Initial guess from the checkpoint file:  "checkpoint.chk"
 B after Tr=     0.000000    0.000000    0.000000
         Rot=    1.000000    0.000000    0.000000    0.000000 Ang=   0.00 deg.
 Initial guess <Sx>= 0.0000 <Sy>= 0.0000 <Sz>= 2.5000 <S**2>= 8.7628 S= 2.5021
 SCF Done:  E(UPBE1PBE) =  -3033.16119209     A.U. after    1 cycles
            NFock=  1  Conv=0.22D-08     -V/T= 2.0021
 <Sx>= 0.0000 <Sy>= 0.0000 <Sz>= 2.5000 <S**2>= 8.7628 S= 2.5021
 <L.S>= 0.000000000000E+00
 Annihilation of the first spin contaminant:
 S**2 before annihilation     8.7628,   after     8.7501
 1\1\GINC-HOLY7C04207\SP\UPBE1PBE\Jul-CC-pVDZ\C8H16Cl3Fe1O1(6)\EKWAN\11
 -Feb-2020\0\\#t pop=none jul-cc-pvdz guess=read upbe1pbe empiricaldisp
 ersion=gd3bj\\theory_abbreviation pbe0_d3bj\\0,6\O,0,-0.282402,-0.2628
 25,-0.567584\C,0,-1.08623,-1.218801,-0.331975\C,0,-2.768283,-0.217288,
 0.875365\C,0,-3.021757,0.718569,-0.082527\C,0,-4.037932,0.498766,-1.16
 2343\Fe,0,1.538388,0.186248,-0.085313\Cl,0,1.863206,2.095986,-1.090166
 \C,0,-2.259125,2.003223,-0.139022\Cl,0,2.627115,-1.5421,-0.881875\Cl,0
 ,1.697946,0.325544,2.101306\H,0,-3.399133,-1.105292,0.877831\H,0,-2.77
 7679,2.760107,-0.733938\H,0,-2.044068,2.411644,0.851864\H,0,-1.287138,
 1.810045,-0.621161\H,0,-4.85298,1.224461,-1.036104\H,0,-3.615104,0.686
 227,-2.157811\H,0,-4.472187,-0.503662,-1.138881\C,0,-2.052083,0.10827,
 2.165714\H,0,-2.614094,0.866928,2.724626\H,0,-1.968832,-0.770355,2.808
 4\H,0,-1.04547,0.502682,2.005711\C,0,-0.747121,-2.204736,0.7578\H,0,-1
 .604472,-2.807495,1.062417\H,0,0.006181,-2.873225,0.315971\H,0,-0.2863
 49,-1.723028,1.619132\C,0,-1.853232,-1.759211,-1.510898\H,0,-1.179854,
 -2.473007,-2.005515\H,0,-2.756923,-2.295684,-1.216225\H,0,-2.08672,-0.
 973268,-2.22769\\Version=ES64L-G16RevA.03\HF=-3033.1611921\S2=8.762815
 \S2-1=0.\S2A=8.750051\RMSD=2.231e-09\PG=C01 [X(C8H16Cl3Fe1O1)]\\@


 SEEN ON A WALL AT THE UNIVERSITY OF ILLINOIS AT CHICAGO CIRCLE:

 TO DO IS TO BE  -- SOCRATES
 TO BE IS TO DO  -- SARTRE
 OO BE DO BE DO  -- SINATRA
 Job cpu time:       0 days  0 hours  4 minutes 33.4 seconds.
 Elapsed time:       0 days  0 hours  1 minutes  9.0 seconds.
 File lengths (MBytes):  RWF=    170 Int=      0 D2E=      0 Chk=     13 Scr=      1
 Normal termination of Gaussian 16 at Tue Feb 11 14:00:39 2020.
 Initial command:
 /n/sw/g16_nehalem/g16/l1.exe "/scratch/Gau-411184.inp" -scrdir="/scratch/"
 Entering Link 1 = /n/sw/g16_nehalem/g16/l1.exe PID=    413238.
  
 Copyright (c) 1988,1990,1992,1993,1995,1998,2003,2009,2016,
            Gaussian, Inc.  All Rights Reserved.
  
 This is part of the Gaussian(R) 16 program.  It is based on
 the Gaussian(R) 09 system (copyright 2009, Gaussian, Inc.),
 the Gaussian(R) 03 system (copyright 2003, Gaussian, Inc.),
 the Gaussian(R) 98 system (copyright 1998, Gaussian, Inc.),
 the Gaussian(R) 94 system (copyright 1995, Gaussian, Inc.),
 the Gaussian 92(TM) system (copyright 1992, Gaussian, Inc.),
 the Gaussian 90(TM) system (copyright 1990, Gaussian, Inc.),
 the Gaussian 88(TM) system (copyright 1988, Gaussian, Inc.),
 the Gaussian 86(TM) system (copyright 1986, Carnegie Mellon
 University), and the Gaussian 82(TM) system (copyright 1983,
 Carnegie Mellon University). Gaussian is a federally registered
 trademark of Gaussian, Inc.
  
 This software contains proprietary and confidential information,
 including trade secrets, belonging to Gaussian, Inc.
  
 This software is provided under written license and may be
 used, copied, transmitted, or stored only in accord with that
 written license.
  
 The following legend is applicable only to US Government
 contracts under FAR:
  
                    RESTRICTED RIGHTS LEGEND
  
 Use, reproduction and disclosure by the US Government is
 subject to restrictions as set forth in subparagraphs (a)
 and (c) of the Commercial Computer Software - Restricted
 Rights clause in FAR 52.227-19.
  
 Gaussian, Inc.
 340 Quinnipiac St., Bldg. 40, Wallingford CT 06492
  
  
 ---------------------------------------------------------------
 Warning -- This program may not be used in any manner that
 competes with the business of Gaussian, Inc. or will provide
 assistance to any competitor of Gaussian, Inc.  The licensee
 of this program is prohibited from giving any competitor of
 Gaussian, Inc. access to this program.  By using this program,
 the user acknowledges that Gaussian, Inc. is engaged in the
 business of creating and licensing software in the field of
 computational chemistry and represents and warrants to the
 licensee that it is not a competitor of Gaussian, Inc. and that
 it will not use this program in any manner prohibited above.
 ---------------------------------------------------------------
  

 Cite this work as:
 Gaussian 16, Revision A.03,
 M. J. Frisch, G. W. Trucks, H. B. Schlegel, G. E. Scuseria, 
 M. A. Robb, J. R. Cheeseman, G. Scalmani, V. Barone, 
 G. A. Petersson, H. Nakatsuji, X. Li, M. Caricato, A. V. Marenich, 
 J. Bloino, B. G. Janesko, R. Gomperts, B. Mennucci, H. P. Hratchian, 
 J. V. Ortiz, A. F. Izmaylov, J. L. Sonnenberg, D. Williams-Young, 
 F. Ding, F. Lipparini, F. Egidi, J. Goings, B. Peng, A. Petrone, 
 T. Henderson, D. Ranasinghe, V. G. Zakrzewski, J. Gao, N. Rega, 
 G. Zheng, W. Liang, M. Hada, M. Ehara, K. Toyota, R. Fukuda, 
 J. Hasegawa, M. Ishida, T. Nakajima, Y. Honda, O. Kitao, H. Nakai, 
 T. Vreven, K. Throssell, J. A. Montgomery, Jr., J. E. Peralta, 
 F. Ogliaro, M. J. Bearpark, J. J. Heyd, E. N. Brothers, K. N. Kudin, 
 V. N. Staroverov, T. A. Keith, R. Kobayashi, J. Normand, 
 K. Raghavachari, A. P. Rendell, J. C. Burant, S. S. Iyengar, 
 J. Tomasi, M. Cossi, J. M. Millam, M. Klene, C. Adamo, R. Cammi, 
 J. W. Ochterski, R. L. Martin, K. Morokuma, O. Farkas, 
 J. B. Foresman, and D. J. Fox, Gaussian, Inc., Wallingford CT, 2016.
 
 ******************************************
 Gaussian 16:  ES64L-G16RevA.03 25-Dec-2016
                11-Feb-2020 
 ******************************************
 %chk=checkpoint.chk
 %mem=3GB
 %nprocshared=4
 Will use up to    4 processors via shared memory.
 -----------------------------------------
 #t pop=none jul-cc-pvdz guess=read ub3lyp
 -----------------------------------------
 -------------------------
 theory_abbreviation b3lyp
 -------------------------
 Symbolic Z-matrix:
 Charge =  0 Multiplicity = 6
 O                    -0.2824   -0.26283  -0.56758 
 C                    -1.08623  -1.2188   -0.33198 
 C                    -2.76828  -0.21729   0.87537 
 C                    -3.02176   0.71857  -0.08253 
 C                    -4.03793   0.49877  -1.16234 
 Fe                    1.53839   0.18625  -0.08531 
 Cl                    1.86321   2.09599  -1.09017 
 C                    -2.25913   2.00322  -0.13902 
 Cl                    2.62712  -1.5421   -0.88188 
 Cl                    1.69795   0.32554   2.10131 
 H                    -3.39913  -1.10529   0.87783 
 H                    -2.77768   2.76011  -0.73394 
 H                    -2.04407   2.41164   0.85186 
 H                    -1.28714   1.81005  -0.62116 
 H                    -4.85298   1.22446  -1.0361 
 H                    -3.6151    0.68623  -2.15781 
 H                    -4.47219  -0.50366  -1.13888 
 C                    -2.05208   0.10827   2.16571 
 H                    -2.61409   0.86693   2.72463 
 H                    -1.96883  -0.77036   2.8084 
 H                    -1.04547   0.50268   2.00571 
 C                    -0.74712  -2.20474   0.7578 
 H                    -1.60447  -2.8075    1.06242 
 H                     0.00618  -2.87323   0.31597 
 H                    -0.28635  -1.72303   1.61913 
 C                    -1.85323  -1.75921  -1.5109 
 H                    -1.17985  -2.47301  -2.00551 
 H                    -2.75692  -2.29568  -1.21623 
 H                    -2.08672  -0.97327  -2.22769 
 
                    Distance matrix (angstroms):
                    1          2          3          4          5
     1  O    0.000000
     2  C    1.271039   0.000000
     3  C    2.874679   2.300000   0.000000
     4  C    2.949997   2.749889   1.362951   0.000000
     5  C    3.877856   3.514554   2.505393   1.498976   0.000000
     6  Fe   1.936370   2.987244   4.430932   4.591111   5.687970
     7  Cl   3.231210   4.501315   5.537620   5.174503   6.113898
     8  C    3.037445   3.434291   2.493771   1.495037   2.544549
     9  Cl   3.193840   3.767737   5.826949   6.136720   6.976148
    10  Cl   3.375045   4.007180   4.663132   5.215284   6.601644
    11  H    3.537370   2.612668   1.089279   2.095512   2.672710
    12  H    3.923289   4.342152   3.384498   2.156800   2.624011
    13  H    3.503011   3.936884   2.726962   2.166902   3.419302
    14  H    2.304160   3.049246   2.922920   2.119044   3.095028
    15  H    4.829256   4.544638   3.174636   2.125703   1.098578
    16  H    3.812666   3.654861   3.276218   2.158683   1.097671
    17  H    4.235408   3.553481   2.653768   2.171055   1.092698
    18  C    3.277255   2.988719   1.511268   2.523355   3.895131
    19  H    4.189484   4.003429   2.149201   2.840477   4.155886
    20  H    3.807742   3.292726   2.163707   3.418041   4.653885
    21  H    2.791079   2.903436   2.182687   2.883237   4.357914
    22  C    2.396586   1.508202   2.837053   3.798135   4.671757
    23  H    3.298502   2.176431   2.845807   3.968970   4.669330
    24  H    2.770945   2.085741   3.881311   4.714678   5.469057
    25  H    2.629436   2.168150   2.996738   4.042214   5.171784
    26  C    2.365696   1.506716   2.984811   3.089513   3.161149
    27  H    2.785313   2.093450   3.988840   4.156519   4.208442
    28  H    3.267492   2.175498   2.948662   3.231274   3.074547
    29  H    2.552694   2.157545   3.265729   2.887617   2.666285
                    6          7          8          9         10
     6  Fe   0.000000
     7  Cl   2.182278   0.000000
     8  C    4.210153   4.231654   0.000000
     9  Cl   2.192493   3.723253   6.082474   0.000000
    10  Cl   2.196853   3.653391   4.846864   3.640167   0.000000
    11  H    5.193730   6.466329   3.463593   6.293094   5.433636
    12  H    5.066942   4.701677   1.093479   6.909607   5.830688
    13  H    4.320264   4.374690   1.093120   6.360652   4.462688
    14  H    3.302642   3.197874   1.102059   5.160061   4.304218
    15  H    6.544576   6.772712   2.852948   7.976808   7.318881
    16  H    5.577070   5.756663   2.765622   6.749722   6.818993
    17  H    6.141091   6.848193   3.490248   7.179449   7.018329
    18  C    4.238477   5.466375   2.990906   5.822921   3.756870
    19  H    5.059861   6.009113   3.101233   6.802980   4.390366
    20  H    4.646424   6.172458   4.057623   5.944447   3.891817
    21  H    3.338987   4.536901   2.885214   5.099722   2.750790
    22  C    3.413385   5.359570   4.560413   3.809605   3.766388
    23  H    4.489694   6.379853   5.001503   4.825746   4.669174
    24  H    3.445151   5.488062   5.396144   3.174275   4.035048
    25  H    3.143268   5.152257   4.568139   3.843962   2.892502
    26  C    4.161753   5.371357   4.025258   4.529494   5.477690
    27  H    4.260006   5.565409   4.968426   4.077029   5.742787
    28  H    5.088089   6.375598   4.459683   5.446792   6.141881
    29  H    4.367570   5.129931   3.640296   4.935081   5.894982
                   11         12         13         14         15
    11  H    0.000000
    12  H    4.233830   0.000000
    13  H    3.769047   1.781679   0.000000
    14  H    3.899576   1.771172   1.762007   0.000000
    15  H    3.347322   2.599305   3.586616   3.637350   0.000000
    16  H    3.531474   2.651353   3.808328   3.007272   1.755067
    17  H    2.362315   3.699665   4.284605   3.970618   1.772562
    18  C    2.223942   3.995837   2.651754   3.353782   4.398016
    19  H    2.813643   3.946207   2.493655   3.720830   4.391302
    20  H    2.425910   5.066217   3.736149   4.345694   5.203634
    21  H    3.065522   3.949961   2.443910   2.944157   4.926534
    22  C    2.873387   5.567595   4.796028   4.279208   5.642301
    23  H    2.480398   5.966699   5.241850   4.925120   5.586883
    24  H    3.877813   6.370762   5.693904   4.948122   6.498506
    25  H    3.258918   5.642886   4.557827   4.301523   6.049139
    26  C    2.919494   4.677874   4.797405   3.721785   4.257489
    27  H    3.887098   5.617422   5.724622   4.502497   5.301215
    28  H    2.492897   5.078785   5.190770   4.401293   4.100893
    29  H    3.374036   4.080050   4.576363   3.311661   3.728550
                   16         17         18         19         20
    16  H    0.000000
    17  H    1.785678   0.000000
    18  C    4.633566   4.141463   0.000000
    19  H    4.987270   4.500857   1.097179   0.000000
    20  H    5.430939   4.681767   1.091768   1.761839   0.000000
    21  H    4.896082   4.758527   1.092901   1.763546   1.765653
    22  C    5.008371   4.513000   3.005852   4.097452   2.784778
    23  H    5.159322   4.286858   3.149493   4.157362   2.707610
    24  H    5.648274   5.271357   4.067839   5.162965   3.812472
    25  H    5.581256   5.158946   2.601965   3.653544   2.269954
    26  C    3.082670   2.928092   4.128499   5.041347   4.432554
    27  H    3.991791   3.933043   4.982261   5.965437   5.166748
    28  H    3.242661   2.481825   4.208718   5.054980   4.375537
    29  H    2.257158   2.663923   4.524701   5.309414   5.041555
                   21         22         23         24         25
    21  H    0.000000
    22  C    2.996065   0.000000
    23  H    3.487056   1.091403   0.000000
    24  H    3.918921   1.099797   1.776430   0.000000
    25  H    2.383169   1.089149   1.795396   1.762599   0.000000
    26  C    4.258542   2.562999   2.789755   2.834765   3.500503
    27  H    4.996270   2.809829   3.115187   2.637452   3.807740
    28  H    4.597912   2.818572   2.604286   3.211841   3.804066
    29  H    4.602642   3.496311   3.797599   3.802668   4.312947
                   26         27         28         29
    26  C    0.000000
    27  H    1.098903   0.000000
    28  H    1.091464   1.772447   0.000000
    29  H    1.089043   1.766631   1.794719   0.000000
 Framework group  C1[X(C8H16Cl3FeO)]
 Deg. of freedom    81
                         Standard orientation:                         
 ---------------------------------------------------------------------
 Center     Atomic      Atomic             Coordinates (Angstroms)
 Number     Number       Type             X           Y           Z
 ---------------------------------------------------------------------
      1          8           0       -0.282402   -0.262825   -0.567584
      2          6           0       -1.086230   -1.218801   -0.331975
      3          6           0       -2.768283   -0.217288    0.875365
      4          6           0       -3.021757    0.718569   -0.082527
      5          6           0       -4.037932    0.498766   -1.162343
      6         26           0        1.538388    0.186248   -0.085313
      7         17           0        1.863206    2.095986   -1.090166
      8          6           0       -2.259125    2.003223   -0.139022
      9         17           0        2.627115   -1.542100   -0.881875
     10         17           0        1.697946    0.325544    2.101306
     11          1           0       -3.399133   -1.105292    0.877831
     12          1           0       -2.777679    2.760107   -0.733938
     13          1           0       -2.044068    2.411644    0.851864
     14          1           0       -1.287138    1.810045   -0.621161
     15          1           0       -4.852980    1.224461   -1.036104
     16          1           0       -3.615104    0.686227   -2.157811
     17          1           0       -4.472187   -0.503662   -1.138881
     18          6           0       -2.052083    0.108270    2.165714
     19          1           0       -2.614094    0.866928    2.724626
     20          1           0       -1.968832   -0.770355    2.808400
     21          1           0       -1.045470    0.502682    2.005711
     22          6           0       -0.747121   -2.204736    0.757800
     23          1           0       -1.604472   -2.807495    1.062417
     24          1           0        0.006181   -2.873225    0.315971
     25          1           0       -0.286349   -1.723028    1.619132
     26          6           0       -1.853232   -1.759211   -1.510898
     27          1           0       -1.179854   -2.473007   -2.005515
     28          1           0       -2.756923   -2.295684   -1.216225
     29          1           0       -2.086720   -0.973268   -2.227690
 ---------------------------------------------------------------------
 Rotational constants (GHZ):           0.5890586           0.3043515           0.2905826
   427 basis functions,  1056 primitive gaussians,   461 cartesian basis functions
    77 alpha electrons       72 beta electrons
       nuclear repulsion energy      1616.2824007138 Hartrees.
 NAtoms=   29 NActive=   29 NUniq=   29 SFac= 1.00D+00 NAtFMM=   60 NAOKFM=F Big=F
 Initial guess from the checkpoint file:  "checkpoint.chk"
 B after Tr=     0.000000    0.000000    0.000000
         Rot=    1.000000    0.000000    0.000000    0.000000 Ang=   0.00 deg.
 Initial guess <Sx>= 0.0000 <Sy>= 0.0000 <Sz>= 2.5000 <S**2>= 8.7628 S= 2.5021
 SCF Done:  E(UB3LYP) =  -3034.34194965     A.U. after   14 cycles
            NFock= 14  Conv=0.80D-08     -V/T= 2.0024
 <Sx>= 0.0000 <Sy>= 0.0000 <Sz>= 2.5000 <S**2>= 8.7621 S= 2.5020
 <L.S>= 0.000000000000E+00
 Annihilation of the first spin contaminant:
 S**2 before annihilation     8.7621,   after     8.7500
 1\1\GINC-HOLY7C04207\SP\UB3LYP\Jul-CC-pVDZ\C8H16Cl3Fe1O1(6)\EKWAN\11-F
 eb-2020\0\\#t pop=none jul-cc-pvdz guess=read ub3lyp\\theory_abbreviat
 ion b3lyp\\0,6\O,0,-0.282402,-0.262825,-0.567584\C,0,-1.08623,-1.21880
 1,-0.331975\C,0,-2.768283,-0.217288,0.875365\C,0,-3.021757,0.718569,-0
 .082527\C,0,-4.037932,0.498766,-1.162343\Fe,0,1.538388,0.186248,-0.085
 313\Cl,0,1.863206,2.095986,-1.090166\C,0,-2.259125,2.003223,-0.139022\
 Cl,0,2.627115,-1.5421,-0.881875\Cl,0,1.697946,0.325544,2.101306\H,0,-3
 .399133,-1.105292,0.877831\H,0,-2.777679,2.760107,-0.733938\H,0,-2.044
 068,2.411644,0.851864\H,0,-1.287138,1.810045,-0.621161\H,0,-4.85298,1.
 224461,-1.036104\H,0,-3.615104,0.686227,-2.157811\H,0,-4.472187,-0.503
 662,-1.138881\C,0,-2.052083,0.10827,2.165714\H,0,-2.614094,0.866928,2.
 724626\H,0,-1.968832,-0.770355,2.8084\H,0,-1.04547,0.502682,2.005711\C
 ,0,-0.747121,-2.204736,0.7578\H,0,-1.604472,-2.807495,1.062417\H,0,0.0
 06181,-2.873225,0.315971\H,0,-0.286349,-1.723028,1.619132\C,0,-1.85323
 2,-1.759211,-1.510898\H,0,-1.179854,-2.473007,-2.005515\H,0,-2.756923,
 -2.295684,-1.216225\H,0,-2.08672,-0.973268,-2.22769\\Version=ES64L-G16
 RevA.03\HF=-3034.3419496\S2=8.762112\S2-1=0.\S2A=8.750045\RMSD=8.013e-
 09\PG=C01 [X(C8H16Cl3Fe1O1)]\\@


 MICRO CREDO - NEVER TRUST A COMPUTER BIGGER
               BIGGER THAN YOU CAN LIFT.
 Job cpu time:       0 days  0 hours 57 minutes 52.7 seconds.
 Elapsed time:       0 days  0 hours 14 minutes 30.9 seconds.
 File lengths (MBytes):  RWF=    174 Int=      0 D2E=      0 Chk=     13 Scr=      1
 Normal termination of Gaussian 16 at Tue Feb 11 14:15:10 2020.
 Initial command:
 /n/sw/g16_nehalem/g16/l1.exe "/scratch/Gau-411184.inp" -scrdir="/scratch/"
 Entering Link 1 = /n/sw/g16_nehalem/g16/l1.exe PID=    414672.
  
 Copyright (c) 1988,1990,1992,1993,1995,1998,2003,2009,2016,
            Gaussian, Inc.  All Rights Reserved.
  
 This is part of the Gaussian(R) 16 program.  It is based on
 the Gaussian(R) 09 system (copyright 2009, Gaussian, Inc.),
 the Gaussian(R) 03 system (copyright 2003, Gaussian, Inc.),
 the Gaussian(R) 98 system (copyright 1998, Gaussian, Inc.),
 the Gaussian(R) 94 system (copyright 1995, Gaussian, Inc.),
 the Gaussian 92(TM) system (copyright 1992, Gaussian, Inc.),
 the Gaussian 90(TM) system (copyright 1990, Gaussian, Inc.),
 the Gaussian 88(TM) system (copyright 1988, Gaussian, Inc.),
 the Gaussian 86(TM) system (copyright 1986, Carnegie Mellon
 University), and the Gaussian 82(TM) system (copyright 1983,
 Carnegie Mellon University). Gaussian is a federally registered
 trademark of Gaussian, Inc.
  
 This software contains proprietary and confidential information,
 including trade secrets, belonging to Gaussian, Inc.
  
 This software is provided under written license and may be
 used, copied, transmitted, or stored only in accord with that
 written license.
  
 The following legend is applicable only to US Government
 contracts under FAR:
  
                    RESTRICTED RIGHTS LEGEND
  
 Use, reproduction and disclosure by the US Government is
 subject to restrictions as set forth in subparagraphs (a)
 and (c) of the Commercial Computer Software - Restricted
 Rights clause in FAR 52.227-19.
  
 Gaussian, Inc.
 340 Quinnipiac St., Bldg. 40, Wallingford CT 06492
  
  
 ---------------------------------------------------------------
 Warning -- This program may not be used in any manner that
 competes with the business of Gaussian, Inc. or will provide
 assistance to any competitor of Gaussian, Inc.  The licensee
 of this program is prohibited from giving any competitor of
 Gaussian, Inc. access to this program.  By using this program,
 the user acknowledges that Gaussian, Inc. is engaged in the
 business of creating and licensing software in the field of
 computational chemistry and represents and warrants to the
 licensee that it is not a competitor of Gaussian, Inc. and that
 it will not use this program in any manner prohibited above.
 ---------------------------------------------------------------
  

 Cite this work as:
 Gaussian 16, Revision A.03,
 M. J. Frisch, G. W. Trucks, H. B. Schlegel, G. E. Scuseria, 
 M. A. Robb, J. R. Cheeseman, G. Scalmani, V. Barone, 
 G. A. Petersson, H. Nakatsuji, X. Li, M. Caricato, A. V. Marenich, 
 J. Bloino, B. G. Janesko, R. Gomperts, B. Mennucci, H. P. Hratchian, 
 J. V. Ortiz, A. F. Izmaylov, J. L. Sonnenberg, D. Williams-Young, 
 F. Ding, F. Lipparini, F. Egidi, J. Goings, B. Peng, A. Petrone, 
 T. Henderson, D. Ranasinghe, V. G. Zakrzewski, J. Gao, N. Rega, 
 G. Zheng, W. Liang, M. Hada, M. Ehara, K. Toyota, R. Fukuda, 
 J. Hasegawa, M. Ishida, T. Nakajima, Y. Honda, O. Kitao, H. Nakai, 
 T. Vreven, K. Throssell, J. A. Montgomery, Jr., J. E. Peralta, 
 F. Ogliaro, M. J. Bearpark, J. J. Heyd, E. N. Brothers, K. N. Kudin, 
 V. N. Staroverov, T. A. Keith, R. Kobayashi, J. Normand, 
 K. Raghavachari, A. P. Rendell, J. C. Burant, S. S. Iyengar, 
 J. Tomasi, M. Cossi, J. M. Millam, M. Klene, C. Adamo, R. Cammi, 
 J. W. Ochterski, R. L. Martin, K. Morokuma, O. Farkas, 
 J. B. Foresman, and D. J. Fox, Gaussian, Inc., Wallingford CT, 2016.
 
 ******************************************
 Gaussian 16:  ES64L-G16RevA.03 25-Dec-2016
                11-Feb-2020 
 ******************************************
 %chk=checkpoint.chk
 %mem=3GB
 %nprocshared=4
 Will use up to    4 processors via shared memory.
 -------------------------------------------------------------------
 #t pop=none jul-cc-pvdz guess=read ub3lyp empiricaldispersion=gd3bj
 -------------------------------------------------------------------
 ------------------------------
 theory_abbreviation b3lyp_d3bj
 ------------------------------
 Symbolic Z-matrix:
 Charge =  0 Multiplicity = 6
 O                    -0.2824   -0.26283  -0.56758 
 C                    -1.08623  -1.2188   -0.33198 
 C                    -2.76828  -0.21729   0.87537 
 C                    -3.02176   0.71857  -0.08253 
 C                    -4.03793   0.49877  -1.16234 
 Fe                    1.53839   0.18625  -0.08531 
 Cl                    1.86321   2.09599  -1.09017 
 C                    -2.25913   2.00322  -0.13902 
 Cl                    2.62712  -1.5421   -0.88188 
 Cl                    1.69795   0.32554   2.10131 
 H                    -3.39913  -1.10529   0.87783 
 H                    -2.77768   2.76011  -0.73394 
 H                    -2.04407   2.41164   0.85186 
 H                    -1.28714   1.81005  -0.62116 
 H                    -4.85298   1.22446  -1.0361 
 H                    -3.6151    0.68623  -2.15781 
 H                    -4.47219  -0.50366  -1.13888 
 C                    -2.05208   0.10827   2.16571 
 H                    -2.61409   0.86693   2.72463 
 H                    -1.96883  -0.77036   2.8084 
 H                    -1.04547   0.50268   2.00571 
 C                    -0.74712  -2.20474   0.7578 
 H                    -1.60447  -2.8075    1.06242 
 H                     0.00618  -2.87323   0.31597 
 H                    -0.28635  -1.72303   1.61913 
 C                    -1.85323  -1.75921  -1.5109 
 H                    -1.17985  -2.47301  -2.00551 
 H                    -2.75692  -2.29568  -1.21623 
 H                    -2.08672  -0.97327  -2.22769 
 
                    Distance matrix (angstroms):
                    1          2          3          4          5
     1  O    0.000000
     2  C    1.271039   0.000000
     3  C    2.874679   2.300000   0.000000
     4  C    2.949997   2.749889   1.362951   0.000000
     5  C    3.877856   3.514554   2.505393   1.498976   0.000000
     6  Fe   1.936370   2.987244   4.430932   4.591111   5.687970
     7  Cl   3.231210   4.501315   5.537620   5.174503   6.113898
     8  C    3.037445   3.434291   2.493771   1.495037   2.544549
     9  Cl   3.193840   3.767737   5.826949   6.136720   6.976148
    10  Cl   3.375045   4.007180   4.663132   5.215284   6.601644
    11  H    3.537370   2.612668   1.089279   2.095512   2.672710
    12  H    3.923289   4.342152   3.384498   2.156800   2.624011
    13  H    3.503011   3.936884   2.726962   2.166902   3.419302
    14  H    2.304160   3.049246   2.922920   2.119044   3.095028
    15  H    4.829256   4.544638   3.174636   2.125703   1.098578
    16  H    3.812666   3.654861   3.276218   2.158683   1.097671
    17  H    4.235408   3.553481   2.653768   2.171055   1.092698
    18  C    3.277255   2.988719   1.511268   2.523355   3.895131
    19  H    4.189484   4.003429   2.149201   2.840477   4.155886
    20  H    3.807742   3.292726   2.163707   3.418041   4.653885
    21  H    2.791079   2.903436   2.182687   2.883237   4.357914
    22  C    2.396586   1.508202   2.837053   3.798135   4.671757
    23  H    3.298502   2.176431   2.845807   3.968970   4.669330
    24  H    2.770945   2.085741   3.881311   4.714678   5.469057
    25  H    2.629436   2.168150   2.996738   4.042214   5.171784
    26  C    2.365696   1.506716   2.984811   3.089513   3.161149
    27  H    2.785313   2.093450   3.988840   4.156519   4.208442
    28  H    3.267492   2.175498   2.948662   3.231274   3.074547
    29  H    2.552694   2.157545   3.265729   2.887617   2.666285
                    6          7          8          9         10
     6  Fe   0.000000
     7  Cl   2.182278   0.000000
     8  C    4.210153   4.231654   0.000000
     9  Cl   2.192493   3.723253   6.082474   0.000000
    10  Cl   2.196853   3.653391   4.846864   3.640167   0.000000
    11  H    5.193730   6.466329   3.463593   6.293094   5.433636
    12  H    5.066942   4.701677   1.093479   6.909607   5.830688
    13  H    4.320264   4.374690   1.093120   6.360652   4.462688
    14  H    3.302642   3.197874   1.102059   5.160061   4.304218
    15  H    6.544576   6.772712   2.852948   7.976808   7.318881
    16  H    5.577070   5.756663   2.765622   6.749722   6.818993
    17  H    6.141091   6.848193   3.490248   7.179449   7.018329
    18  C    4.238477   5.466375   2.990906   5.822921   3.756870
    19  H    5.059861   6.009113   3.101233   6.802980   4.390366
    20  H    4.646424   6.172458   4.057623   5.944447   3.891817
    21  H    3.338987   4.536901   2.885214   5.099722   2.750790
    22  C    3.413385   5.359570   4.560413   3.809605   3.766388
    23  H    4.489694   6.379853   5.001503   4.825746   4.669174
    24  H    3.445151   5.488062   5.396144   3.174275   4.035048
    25  H    3.143268   5.152257   4.568139   3.843962   2.892502
    26  C    4.161753   5.371357   4.025258   4.529494   5.477690
    27  H    4.260006   5.565409   4.968426   4.077029   5.742787
    28  H    5.088089   6.375598   4.459683   5.446792   6.141881
    29  H    4.367570   5.129931   3.640296   4.935081   5.894982
                   11         12         13         14         15
    11  H    0.000000
    12  H    4.233830   0.000000
    13  H    3.769047   1.781679   0.000000
    14  H    3.899576   1.771172   1.762007   0.000000
    15  H    3.347322   2.599305   3.586616   3.637350   0.000000
    16  H    3.531474   2.651353   3.808328   3.007272   1.755067
    17  H    2.362315   3.699665   4.284605   3.970618   1.772562
    18  C    2.223942   3.995837   2.651754   3.353782   4.398016
    19  H    2.813643   3.946207   2.493655   3.720830   4.391302
    20  H    2.425910   5.066217   3.736149   4.345694   5.203634
    21  H    3.065522   3.949961   2.443910   2.944157   4.926534
    22  C    2.873387   5.567595   4.796028   4.279208   5.642301
    23  H    2.480398   5.966699   5.241850   4.925120   5.586883
    24  H    3.877813   6.370762   5.693904   4.948122   6.498506
    25  H    3.258918   5.642886   4.557827   4.301523   6.049139
    26  C    2.919494   4.677874   4.797405   3.721785   4.257489
    27  H    3.887098   5.617422   5.724622   4.502497   5.301215
    28  H    2.492897   5.078785   5.190770   4.401293   4.100893
    29  H    3.374036   4.080050   4.576363   3.311661   3.728550
                   16         17         18         19         20
    16  H    0.000000
    17  H    1.785678   0.000000
    18  C    4.633566   4.141463   0.000000
    19  H    4.987270   4.500857   1.097179   0.000000
    20  H    5.430939   4.681767   1.091768   1.761839   0.000000
    21  H    4.896082   4.758527   1.092901   1.763546   1.765653
    22  C    5.008371   4.513000   3.005852   4.097452   2.784778
    23  H    5.159322   4.286858   3.149493   4.157362   2.707610
    24  H    5.648274   5.271357   4.067839   5.162965   3.812472
    25  H    5.581256   5.158946   2.601965   3.653544   2.269954
    26  C    3.082670   2.928092   4.128499   5.041347   4.432554
    27  H    3.991791   3.933043   4.982261   5.965437   5.166748
    28  H    3.242661   2.481825   4.208718   5.054980   4.375537
    29  H    2.257158   2.663923   4.524701   5.309414   5.041555
                   21         22         23         24         25
    21  H    0.000000
    22  C    2.996065   0.000000
    23  H    3.487056   1.091403   0.000000
    24  H    3.918921   1.099797   1.776430   0.000000
    25  H    2.383169   1.089149   1.795396   1.762599   0.000000
    26  C    4.258542   2.562999   2.789755   2.834765   3.500503
    27  H    4.996270   2.809829   3.115187   2.637452   3.807740
    28  H    4.597912   2.818572   2.604286   3.211841   3.804066
    29  H    4.602642   3.496311   3.797599   3.802668   4.312947
                   26         27         28         29
    26  C    0.000000
    27  H    1.098903   0.000000
    28  H    1.091464   1.772447   0.000000
    29  H    1.089043   1.766631   1.794719   0.000000
 Framework group  C1[X(C8H16Cl3FeO)]
 Deg. of freedom    81
                         Standard orientation:                         
 ---------------------------------------------------------------------
 Center     Atomic      Atomic             Coordinates (Angstroms)
 Number     Number       Type             X           Y           Z
 ---------------------------------------------------------------------
      1          8           0       -0.282402   -0.262825   -0.567584
      2          6           0       -1.086230   -1.218801   -0.331975
      3          6           0       -2.768283   -0.217288    0.875365
      4          6           0       -3.021757    0.718569   -0.082527
      5          6           0       -4.037932    0.498766   -1.162343
      6         26           0        1.538388    0.186248   -0.085313
      7         17           0        1.863206    2.095986   -1.090166
      8          6           0       -2.259125    2.003223   -0.139022
      9         17           0        2.627115   -1.542100   -0.881875
     10         17           0        1.697946    0.325544    2.101306
     11          1           0       -3.399133   -1.105292    0.877831
     12          1           0       -2.777679    2.760107   -0.733938
     13          1           0       -2.044068    2.411644    0.851864
     14          1           0       -1.287138    1.810045   -0.621161
     15          1           0       -4.852980    1.224461   -1.036104
     16          1           0       -3.615104    0.686227   -2.157811
     17          1           0       -4.472187   -0.503662   -1.138881
     18          6           0       -2.052083    0.108270    2.165714
     19          1           0       -2.614094    0.866928    2.724626
     20          1           0       -1.968832   -0.770355    2.808400
     21          1           0       -1.045470    0.502682    2.005711
     22          6           0       -0.747121   -2.204736    0.757800
     23          1           0       -1.604472   -2.807495    1.062417
     24          1           0        0.006181   -2.873225    0.315971
     25          1           0       -0.286349   -1.723028    1.619132
     26          6           0       -1.853232   -1.759211   -1.510898
     27          1           0       -1.179854   -2.473007   -2.005515
     28          1           0       -2.756923   -2.295684   -1.216225
     29          1           0       -2.086720   -0.973268   -2.227690
 ---------------------------------------------------------------------
 Rotational constants (GHZ):           0.5890586           0.3043515           0.2905826
   427 basis functions,  1056 primitive gaussians,   461 cartesian basis functions
    77 alpha electrons       72 beta electrons
       nuclear repulsion energy      1616.2824007138 Hartrees.
 NAtoms=   29 NActive=   29 NUniq=   29 SFac= 1.00D+00 NAtFMM=   60 NAOKFM=F Big=F
 Nuclear repulsion after empirical dispersion term =     1616.2147638298 Hartrees.
 Initial guess from the checkpoint file:  "checkpoint.chk"
 B after Tr=     0.000000    0.000000    0.000000
         Rot=    1.000000    0.000000    0.000000    0.000000 Ang=   0.00 deg.
 Initial guess <Sx>= 0.0000 <Sy>= 0.0000 <Sz>= 2.5000 <S**2>= 8.7621 S= 2.5020
 SCF Done:  E(UB3LYP) =  -3034.40958653     A.U. after    1 cycles
            NFock=  1  Conv=0.41D-08     -V/T= 2.0024
 <Sx>= 0.0000 <Sy>= 0.0000 <Sz>= 2.5000 <S**2>= 8.7621 S= 2.5020
 <L.S>= 0.000000000000E+00
 Annihilation of the first spin contaminant:
 S**2 before annihilation     8.7621,   after     8.7500
 1\1\GINC-HOLY7C04207\SP\UB3LYP\Jul-CC-pVDZ\C8H16Cl3Fe1O1(6)\EKWAN\11-F
 eb-2020\0\\#t pop=none jul-cc-pvdz guess=read ub3lyp empiricaldispersi
 on=gd3bj\\theory_abbreviation b3lyp_d3bj\\0,6\O,0,-0.282402,-0.262825,
 -0.567584\C,0,-1.08623,-1.218801,-0.331975\C,0,-2.768283,-0.217288,0.8
 75365\C,0,-3.021757,0.718569,-0.082527\C,0,-4.037932,0.498766,-1.16234
 3\Fe,0,1.538388,0.186248,-0.085313\Cl,0,1.863206,2.095986,-1.090166\C,
 0,-2.259125,2.003223,-0.139022\Cl,0,2.627115,-1.5421,-0.881875\Cl,0,1.
 697946,0.325544,2.101306\H,0,-3.399133,-1.105292,0.877831\H,0,-2.77767
 9,2.760107,-0.733938\H,0,-2.044068,2.411644,0.851864\H,0,-1.287138,1.8
 10045,-0.621161\H,0,-4.85298,1.224461,-1.036104\H,0,-3.615104,0.686227
 ,-2.157811\H,0,-4.472187,-0.503662,-1.138881\C,0,-2.052083,0.10827,2.1
 65714\H,0,-2.614094,0.866928,2.724626\H,0,-1.968832,-0.770355,2.8084\H
 ,0,-1.04547,0.502682,2.005711\C,0,-0.747121,-2.204736,0.7578\H,0,-1.60
 4472,-2.807495,1.062417\H,0,0.006181,-2.873225,0.315971\H,0,-0.286349,
 -1.723028,1.619132\C,0,-1.853232,-1.759211,-1.510898\H,0,-1.179854,-2.
 473007,-2.005515\H,0,-2.756923,-2.295684,-1.216225\H,0,-2.08672,-0.973
 268,-2.22769\\Version=ES64L-G16RevA.03\HF=-3034.4095865\S2=8.762112\S2
 -1=0.\S2A=8.750045\RMSD=4.095e-09\PG=C01 [X(C8H16Cl3Fe1O1)]\\@


 LIFE IS A CONTINUAL STRUGGLE AGAINST THE TENDENCY TO PRODUCE ENTROPY.
 Job cpu time:       0 days  0 hours  4 minutes 31.1 seconds.
 Elapsed time:       0 days  0 hours  1 minutes  8.4 seconds.
 File lengths (MBytes):  RWF=    170 Int=      0 D2E=      0 Chk=     13 Scr=      1
 Normal termination of Gaussian 16 at Tue Feb 11 14:16:19 2020.
 Initial command:
 /n/sw/g16_nehalem/g16/l1.exe "/scratch/Gau-411184.inp" -scrdir="/scratch/"
 Entering Link 1 = /n/sw/g16_nehalem/g16/l1.exe PID=    415063.
  
 Copyright (c) 1988,1990,1992,1993,1995,1998,2003,2009,2016,
            Gaussian, Inc.  All Rights Reserved.
  
 This is part of the Gaussian(R) 16 program.  It is based on
 the Gaussian(R) 09 system (copyright 2009, Gaussian, Inc.),
 the Gaussian(R) 03 system (copyright 2003, Gaussian, Inc.),
 the Gaussian(R) 98 system (copyright 1998, Gaussian, Inc.),
 the Gaussian(R) 94 system (copyright 1995, Gaussian, Inc.),
 the Gaussian 92(TM) system (copyright 1992, Gaussian, Inc.),
 the Gaussian 90(TM) system (copyright 1990, Gaussian, Inc.),
 the Gaussian 88(TM) system (copyright 1988, Gaussian, Inc.),
 the Gaussian 86(TM) system (copyright 1986, Carnegie Mellon
 University), and the Gaussian 82(TM) system (copyright 1983,
 Carnegie Mellon University). Gaussian is a federally registered
 trademark of Gaussian, Inc.
  
 This software contains proprietary and confidential information,
 including trade secrets, belonging to Gaussian, Inc.
  
 This software is provided under written license and may be
 used, copied, transmitted, or stored only in accord with that
 written license.
  
 The following legend is applicable only to US Government
 contracts under FAR:
  
                    RESTRICTED RIGHTS LEGEND
  
 Use, reproduction and disclosure by the US Government is
 subject to restrictions as set forth in subparagraphs (a)
 and (c) of the Commercial Computer Software - Restricted
 Rights clause in FAR 52.227-19.
  
 Gaussian, Inc.
 340 Quinnipiac St., Bldg. 40, Wallingford CT 06492
  
  
 ---------------------------------------------------------------
 Warning -- This program may not be used in any manner that
 competes with the business of Gaussian, Inc. or will provide
 assistance to any competitor of Gaussian, Inc.  The licensee
 of this program is prohibited from giving any competitor of
 Gaussian, Inc. access to this program.  By using this program,
 the user acknowledges that Gaussian, Inc. is engaged in the
 business of creating and licensing software in the field of
 computational chemistry and represents and warrants to the
 licensee that it is not a competitor of Gaussian, Inc. and that
 it will not use this program in any manner prohibited above.
 ---------------------------------------------------------------
  

 Cite this work as:
 Gaussian 16, Revision A.03,
 M. J. Frisch, G. W. Trucks, H. B. Schlegel, G. E. Scuseria, 
 M. A. Robb, J. R. Cheeseman, G. Scalmani, V. Barone, 
 G. A. Petersson, H. Nakatsuji, X. Li, M. Caricato, A. V. Marenich, 
 J. Bloino, B. G. Janesko, R. Gomperts, B. Mennucci, H. P. Hratchian, 
 J. V. Ortiz, A. F. Izmaylov, J. L. Sonnenberg, D. Williams-Young, 
 F. Ding, F. Lipparini, F. Egidi, J. Goings, B. Peng, A. Petrone, 
 T. Henderson, D. Ranasinghe, V. G. Zakrzewski, J. Gao, N. Rega, 
 G. Zheng, W. Liang, M. Hada, M. Ehara, K. Toyota, R. Fukuda, 
 J. Hasegawa, M. Ishida, T. Nakajima, Y. Honda, O. Kitao, H. Nakai, 
 T. Vreven, K. Throssell, J. A. Montgomery, Jr., J. E. Peralta, 
 F. Ogliaro, M. J. Bearpark, J. J. Heyd, E. N. Brothers, K. N. Kudin, 
 V. N. Staroverov, T. A. Keith, R. Kobayashi, J. Normand, 
 K. Raghavachari, A. P. Rendell, J. C. Burant, S. S. Iyengar, 
 J. Tomasi, M. Cossi, J. M. Millam, M. Klene, C. Adamo, R. Cammi, 
 J. W. Ochterski, R. L. Martin, K. Morokuma, O. Farkas, 
 J. B. Foresman, and D. J. Fox, Gaussian, Inc., Wallingford CT, 2016.
 
 ******************************************
 Gaussian 16:  ES64L-G16RevA.03 25-Dec-2016
                11-Feb-2020 
 ******************************************
 %chk=checkpoint.chk
 %mem=3GB
 %nprocshared=4
 Will use up to    4 processors via shared memory.
 ----------------------------------------
 #t pop=none jul-cc-pvdz guess=read ub97d
 ----------------------------------------
 ------------------------
 theory_abbreviation b97d
 ------------------------
 Symbolic Z-matrix:
 Charge =  0 Multiplicity = 6
 O                    -0.2824   -0.26283  -0.56758 
 C                    -1.08623  -1.2188   -0.33198 
 C                    -2.76828  -0.21729   0.87537 
 C                    -3.02176   0.71857  -0.08253 
 C                    -4.03793   0.49877  -1.16234 
 Fe                    1.53839   0.18625  -0.08531 
 Cl                    1.86321   2.09599  -1.09017 
 C                    -2.25913   2.00322  -0.13902 
 Cl                    2.62712  -1.5421   -0.88188 
 Cl                    1.69795   0.32554   2.10131 
 H                    -3.39913  -1.10529   0.87783 
 H                    -2.77768   2.76011  -0.73394 
 H                    -2.04407   2.41164   0.85186 
 H                    -1.28714   1.81005  -0.62116 
 H                    -4.85298   1.22446  -1.0361 
 H                    -3.6151    0.68623  -2.15781 
 H                    -4.47219  -0.50366  -1.13888 
 C                    -2.05208   0.10827   2.16571 
 H                    -2.61409   0.86693   2.72463 
 H                    -1.96883  -0.77036   2.8084 
 H                    -1.04547   0.50268   2.00571 
 C                    -0.74712  -2.20474   0.7578 
 H                    -1.60447  -2.8075    1.06242 
 H                     0.00618  -2.87323   0.31597 
 H                    -0.28635  -1.72303   1.61913 
 C                    -1.85323  -1.75921  -1.5109 
 H                    -1.17985  -2.47301  -2.00551 
 H                    -2.75692  -2.29568  -1.21623 
 H                    -2.08672  -0.97327  -2.22769 
 
                    Distance matrix (angstroms):
                    1          2          3          4          5
     1  O    0.000000
     2  C    1.271039   0.000000
     3  C    2.874679   2.300000   0.000000
     4  C    2.949997   2.749889   1.362951   0.000000
     5  C    3.877856   3.514554   2.505393   1.498976   0.000000
     6  Fe   1.936370   2.987244   4.430932   4.591111   5.687970
     7  Cl   3.231210   4.501315   5.537620   5.174503   6.113898
     8  C    3.037445   3.434291   2.493771   1.495037   2.544549
     9  Cl   3.193840   3.767737   5.826949   6.136720   6.976148
    10  Cl   3.375045   4.007180   4.663132   5.215284   6.601644
    11  H    3.537370   2.612668   1.089279   2.095512   2.672710
    12  H    3.923289   4.342152   3.384498   2.156800   2.624011
    13  H    3.503011   3.936884   2.726962   2.166902   3.419302
    14  H    2.304160   3.049246   2.922920   2.119044   3.095028
    15  H    4.829256   4.544638   3.174636   2.125703   1.098578
    16  H    3.812666   3.654861   3.276218   2.158683   1.097671
    17  H    4.235408   3.553481   2.653768   2.171055   1.092698
    18  C    3.277255   2.988719   1.511268   2.523355   3.895131
    19  H    4.189484   4.003429   2.149201   2.840477   4.155886
    20  H    3.807742   3.292726   2.163707   3.418041   4.653885
    21  H    2.791079   2.903436   2.182687   2.883237   4.357914
    22  C    2.396586   1.508202   2.837053   3.798135   4.671757
    23  H    3.298502   2.176431   2.845807   3.968970   4.669330
    24  H    2.770945   2.085741   3.881311   4.714678   5.469057
    25  H    2.629436   2.168150   2.996738   4.042214   5.171784
    26  C    2.365696   1.506716   2.984811   3.089513   3.161149
    27  H    2.785313   2.093450   3.988840   4.156519   4.208442
    28  H    3.267492   2.175498   2.948662   3.231274   3.074547
    29  H    2.552694   2.157545   3.265729   2.887617   2.666285
                    6          7          8          9         10
     6  Fe   0.000000
     7  Cl   2.182278   0.000000
     8  C    4.210153   4.231654   0.000000
     9  Cl   2.192493   3.723253   6.082474   0.000000
    10  Cl   2.196853   3.653391   4.846864   3.640167   0.000000
    11  H    5.193730   6.466329   3.463593   6.293094   5.433636
    12  H    5.066942   4.701677   1.093479   6.909607   5.830688
    13  H    4.320264   4.374690   1.093120   6.360652   4.462688
    14  H    3.302642   3.197874   1.102059   5.160061   4.304218
    15  H    6.544576   6.772712   2.852948   7.976808   7.318881
    16  H    5.577070   5.756663   2.765622   6.749722   6.818993
    17  H    6.141091   6.848193   3.490248   7.179449   7.018329
    18  C    4.238477   5.466375   2.990906   5.822921   3.756870
    19  H    5.059861   6.009113   3.101233   6.802980   4.390366
    20  H    4.646424   6.172458   4.057623   5.944447   3.891817
    21  H    3.338987   4.536901   2.885214   5.099722   2.750790
    22  C    3.413385   5.359570   4.560413   3.809605   3.766388
    23  H    4.489694   6.379853   5.001503   4.825746   4.669174
    24  H    3.445151   5.488062   5.396144   3.174275   4.035048
    25  H    3.143268   5.152257   4.568139   3.843962   2.892502
    26  C    4.161753   5.371357   4.025258   4.529494   5.477690
    27  H    4.260006   5.565409   4.968426   4.077029   5.742787
    28  H    5.088089   6.375598   4.459683   5.446792   6.141881
    29  H    4.367570   5.129931   3.640296   4.935081   5.894982
                   11         12         13         14         15
    11  H    0.000000
    12  H    4.233830   0.000000
    13  H    3.769047   1.781679   0.000000
    14  H    3.899576   1.771172   1.762007   0.000000
    15  H    3.347322   2.599305   3.586616   3.637350   0.000000
    16  H    3.531474   2.651353   3.808328   3.007272   1.755067
    17  H    2.362315   3.699665   4.284605   3.970618   1.772562
    18  C    2.223942   3.995837   2.651754   3.353782   4.398016
    19  H    2.813643   3.946207   2.493655   3.720830   4.391302
    20  H    2.425910   5.066217   3.736149   4.345694   5.203634
    21  H    3.065522   3.949961   2.443910   2.944157   4.926534
    22  C    2.873387   5.567595   4.796028   4.279208   5.642301
    23  H    2.480398   5.966699   5.241850   4.925120   5.586883
    24  H    3.877813   6.370762   5.693904   4.948122   6.498506
    25  H    3.258918   5.642886   4.557827   4.301523   6.049139
    26  C    2.919494   4.677874   4.797405   3.721785   4.257489
    27  H    3.887098   5.617422   5.724622   4.502497   5.301215
    28  H    2.492897   5.078785   5.190770   4.401293   4.100893
    29  H    3.374036   4.080050   4.576363   3.311661   3.728550
                   16         17         18         19         20
    16  H    0.000000
    17  H    1.785678   0.000000
    18  C    4.633566   4.141463   0.000000
    19  H    4.987270   4.500857   1.097179   0.000000
    20  H    5.430939   4.681767   1.091768   1.761839   0.000000
    21  H    4.896082   4.758527   1.092901   1.763546   1.765653
    22  C    5.008371   4.513000   3.005852   4.097452   2.784778
    23  H    5.159322   4.286858   3.149493   4.157362   2.707610
    24  H    5.648274   5.271357   4.067839   5.162965   3.812472
    25  H    5.581256   5.158946   2.601965   3.653544   2.269954
[...]
 ---------------------------------------------------------------------
 Rotational constants (GHZ):           0.5890586           0.3043515           0.2905826
   427 basis functions,  1056 primitive gaussians,   461 cartesian basis functions
    77 alpha electrons       72 beta electrons
       nuclear repulsion energy      1616.2824007138 Hartrees.
 NAtoms=   29 NActive=   29 NUniq=   29 SFac= 1.00D+00 NAtFMM=   60 NAOKFM=F Big=F
 Nuclear repulsion after empirical dispersion term =     1616.2799143808 Hartrees.
 Initial guess from the checkpoint file:  "checkpoint.chk"
 B after Tr=     0.000000    0.000000    0.000000
         Rot=    1.000000    0.000000    0.000000    0.000000 Ang=   0.00 deg.
 Initial guess <Sx>= 0.0000 <Sy>= 0.0000 <Sz>= 2.5000 <S**2>= 8.7618 S= 2.5020
 SCF Done:  E(UM06L) =  -3034.20736183     A.U. after   17 cycles
            NFock= 17  Conv=0.85D-08     -V/T= 2.0020
 <Sx>= 0.0000 <Sy>= 0.0000 <Sz>= 2.5000 <S**2>= 8.7618 S= 2.5020
 <L.S>= 0.000000000000E+00
 Annihilation of the first spin contaminant:
 S**2 before annihilation     8.7618,   after     8.7500
 1\1\GINC-HOLY7C04207\SP\UM06L\Jul-CC-pVDZ\C8H16Cl3Fe1O1(6)\EKWAN\11-Fe
 b-2020\0\\#t pop=none jul-cc-pvdz guess=read um06l empiricaldispersion
 =gd3\\theory_abbreviation m06l_d3\\0,6\O,0,-0.282402,-0.262825,-0.5675
 84\C,0,-1.08623,-1.218801,-0.331975\C,0,-2.768283,-0.217288,0.875365\C
 ,0,-3.021757,0.718569,-0.082527\C,0,-4.037932,0.498766,-1.162343\Fe,0,
 1.538388,0.186248,-0.085313\Cl,0,1.863206,2.095986,-1.090166\C,0,-2.25
 9125,2.003223,-0.139022\Cl,0,2.627115,-1.5421,-0.881875\Cl,0,1.697946,
 0.325544,2.101306\H,0,-3.399133,-1.105292,0.877831\H,0,-2.777679,2.760
 107,-0.733938\H,0,-2.044068,2.411644,0.851864\H,0,-1.287138,1.810045,-
 0.621161\H,0,-4.85298,1.224461,-1.036104\H,0,-3.615104,0.686227,-2.157
 811\H,0,-4.472187,-0.503662,-1.138881\C,0,-2.052083,0.10827,2.165714\H
 ,0,-2.614094,0.866928,2.724626\H,0,-1.968832,-0.770355,2.8084\H,0,-1.0
 4547,0.502682,2.005711\C,0,-0.747121,-2.204736,0.7578\H,0,-1.604472,-2
 .807495,1.062417\H,0,0.006181,-2.873225,0.315971\H,0,-0.286349,-1.7230
 28,1.619132\C,0,-1.853232,-1.759211,-1.510898\H,0,-1.179854,-2.473007,
 -2.005515\H,0,-2.756923,-2.295684,-1.216225\H,0,-2.08672,-0.973268,-2.
 22769\\Version=ES64L-G16RevA.03\HF=-3034.2073618\S2=8.761758\S2-1=0.\S
 2A=8.750044\RMSD=8.480e-09\PG=C01 [X(C8H16Cl3Fe1O1)]\\@


 I SUPPOSE A BABY LLAMA HAS A MMAMA AND A PPOPA.
     -- RICHARD AMOUR
 Job cpu time:       0 days  1 hours 14 minutes 26.6 seconds.
 Elapsed time:       0 days  0 hours 18 minutes 40.3 seconds.
 File lengths (MBytes):  RWF=    174 Int=      0 D2E=      0 Chk=     13 Scr=      1
 Normal termination of Gaussian 16 at Tue Feb 11 23:25:21 2020.
 Initial command:
 /n/sw/g16_nehalem/g16/l1.exe "/scratch/Gau-411184.inp" -scrdir="/scratch/"
 Entering Link 1 = /n/sw/g16_nehalem/g16/l1.exe PID=      7881.
  
 Copyright (c) 1988,1990,1992,1993,1995,1998,2003,2009,2016,
            Gaussian, Inc.  All Rights Reserved.
  
 This is part of the Gaussian(R) 16 program.  It is based on
 the Gaussian(R) 09 system (copyright 2009, Gaussian, Inc.),
 the Gaussian(R) 03 system (copyright 2003, Gaussian, Inc.),
 the Gaussian(R) 98 system (copyright 1998, Gaussian, Inc.),
 the Gaussian(R) 94 system (copyright 1995, Gaussian, Inc.),
 the Gaussian 92(TM) system (copyright 1992, Gaussian, Inc.),
 the Gaussian 90(TM) system (copyright 1990, Gaussian, Inc.),
 the Gaussian 88(TM) system (copyright 1988, Gaussian, Inc.),
 the Gaussian 86(TM) system (copyright 1986, Carnegie Mellon
 University), and the Gaussian 82(TM) system (copyright 1983,
 Carnegie Mellon University). Gaussian is a federally registered
 trademark of Gaussian, Inc.
  
 This software contains proprietary and confidential information,
 including trade secrets, belonging to Gaussian, Inc.
  
 This software is provided under written license and may be
 used, copied, transmitted, or stored only in accord with that
 written license.
  
 The following legend is applicable only to US Government
 contracts under FAR:
  
                    RESTRICTED RIGHTS LEGEND
  
 Use, reproduction and disclosure by the US Government is
 subject to restrictions as set forth in subparagraphs (a)
 and (c) of the Commercial Computer Software - Restricted
 Rights clause in FAR 52.227-19.
  
 Gaussian, Inc.
 340 Quinnipiac St., Bldg. 40, Wallingford CT 06492
  
  
 ---------------------------------------------------------------
 Warning -- This program may not be used in any manner that
 competes with the business of Gaussian, Inc. or will provide
 assistance to any competitor of Gaussian, Inc.  The licensee
 of this program is prohibited from giving any competitor of
 Gaussian, Inc. access to this program.  By using this program,
 the user acknowledges that Gaussian, Inc. is engaged in the
 business of creating and licensing software in the field of
 computational chemistry and represents and warrants to the
 licensee that it is not a competitor of Gaussian, Inc. and that
 it will not use this program in any manner prohibited above.
 ---------------------------------------------------------------
  

 Cite this work as:
 Gaussian 16, Revision A.03,
 M. J. Frisch, G. W. Trucks, H. B. Schlegel, G. E. Scuseria, 
 M. A. Robb, J. R. Cheeseman, G. Scalmani, V. Barone, 
 G. A. Petersson, H. Nakatsuji, X. Li, M. Caricato, A. V. Marenich, 
 J. Bloino, B. G. Janesko, R. Gomperts, B. Mennucci, H. P. Hratchian, 
 J. V. Ortiz, A. F. Izmaylov, J. L. Sonnenberg, D. Williams-Young, 
 F. Ding, F. Lipparini, F. Egidi, J. Goings, B. Peng, A. Petrone, 
 T. Henderson, D. Ranasinghe, V. G. Zakrzewski, J. Gao, N. Rega, 
 G. Zheng, W. Liang, M. Hada, M. Ehara, K. Toyota, R. Fukuda, 
 J. Hasegawa, M. Ishida, T. Nakajima, Y. Honda, O. Kitao, H. Nakai, 
 T. Vreven, K. Throssell, J. A. Montgomery, Jr., J. E. Peralta, 
 F. Ogliaro, M. J. Bearpark, J. J. Heyd, E. N. Brothers, K. N. Kudin, 
 V. N. Staroverov, T. A. Keith, R. Kobayashi, J. Normand, 
 K. Raghavachari, A. P. Rendell, J. C. Burant, S. S. Iyengar, 
 J. Tomasi, M. Cossi, J. M. Millam, M. Klene, C. Adamo, R. Cammi, 
 J. W. Ochterski, R. L. Martin, K. Morokuma, O. Farkas, 
 J. B. Foresman, and D. J. Fox, Gaussian, Inc., Wallingford CT, 2016.
 
 ******************************************
 Gaussian 16:  ES64L-G16RevA.03 25-Dec-2016
                11-Feb-2020 
 ******************************************
 %chk=checkpoint.chk
 %mem=3GB
 %nprocshared=4
 Will use up to    4 processors via shared memory.
 -------------------------------------------------------------------
 #t pop=none jul-cc-pvdz guess=read ub97d3 empiricaldispersion=gd3bj
 -------------------------------------------------------------------
 ------------------------------
 theory_abbreviation b97d3_d3bj
 ------------------------------
 Symbolic Z-matrix:
 Charge =  0 Multiplicity = 6
 O                    -0.2824   -0.26283  -0.56758 
 C                    -1.08623  -1.2188   -0.33198 
 C                    -2.76828  -0.21729   0.87537 
 C                    -3.02176   0.71857  -0.08253 
 C                    -4.03793   0.49877  -1.16234 
 Fe                    1.53839   0.18625  -0.08531 
 Cl                    1.86321   2.09599  -1.09017 
 C                    -2.25913   2.00322  -0.13902 
 Cl                    2.62712  -1.5421   -0.88188 
 Cl                    1.69795   0.32554   2.10131 
 H                    -3.39913  -1.10529   0.87783 
 H                    -2.77768   2.76011  -0.73394 
 H                    -2.04407   2.41164   0.85186 
 H                    -1.28714   1.81005  -0.62116 
 H                    -4.85298   1.22446  -1.0361 
 H                    -3.6151    0.68623  -2.15781 
 H                    -4.47219  -0.50366  -1.13888 
 C                    -2.05208   0.10827   2.16571 
 H                    -2.61409   0.86693   2.72463 
 H                    -1.96883  -0.77036   2.8084 
 H                    -1.04547   0.50268   2.00571 
 C                    -0.74712  -2.20474   0.7578 
 H                    -1.60447  -2.8075    1.06242 
 H                     0.00618  -2.87323   0.31597 
 H                    -0.28635  -1.72303   1.61913 
 C                    -1.85323  -1.75921  -1.5109 
 H                    -1.17985  -2.47301  -2.00551 
 H                    -2.75692  -2.29568  -1.21623 
 H                    -2.08672  -0.97327  -2.22769 
 
                    Distance matrix (angstroms):
                    1          2          3          4          5
     1  O    0.000000
     2  C    1.271039   0.000000
     3  C    2.874679   2.300000   0.000000
     4  C    2.949997   2.749889   1.362951   0.000000
     5  C    3.877856   3.514554   2.505393   1.498976   0.000000
     6  Fe   1.936370   2.987244   4.430932   4.591111   5.687970
     7  Cl   3.231210   4.501315   5.537620   5.174503   6.113898
     8  C    3.037445   3.434291   2.493771   1.495037   2.544549
     9  Cl   3.193840   3.767737   5.826949   6.136720   6.976148
    10  Cl   3.375045   4.007180   4.663132   5.215284   6.601644
    11  H    3.537370   2.612668   1.089279   2.095512   2.672710
    12  H    3.923289   4.342152   3.384498   2.156800   2.624011
    13  H    3.503011   3.936884   2.726962   2.166902   3.419302
    14  H    2.304160   3.049246   2.922920   2.119044   3.095028
    15  H    4.829256   4.544638   3.174636   2.125703   1.098578
    16  H    3.812666   3.654861   3.276218   2.158683   1.097671
    17  H    4.235408   3.553481   2.653768   2.171055   1.092698
    18  C    3.277255   2.988719   1.511268   2.523355   3.895131
    19  H    4.189484   4.003429   2.149201   2.840477   4.155886
    20  H    3.807742   3.292726   2.163707   3.418041   4.653885
    21  H    2.791079   2.903436   2.182687   2.883237   4.357914
    22  C    2.396586   1.508202   2.837053   3.798135   4.671757
    23  H    3.298502   2.176431   2.845807   3.968970   4.669330
    24  H    2.770945   2.085741   3.881311   4.714678   5.469057
    25  H    2.629436   2.168150   2.996738   4.042214   5.171784
    26  C    2.365696   1.506716   2.984811   3.089513   3.161149
    27  H    2.785313   2.093450   3.988840   4.156519   4.208442
    28  H    3.267492   2.175498   2.948662   3.231274   3.074547
    29  H    2.552694   2.157545   3.265729   2.887617   2.666285
                    6          7          8          9         10
     6  Fe   0.000000
     7  Cl   2.182278   0.000000
     8  C    4.210153   4.231654   0.000000
     9  Cl   2.192493   3.723253   6.082474   0.000000
    10  Cl   2.196853   3.653391   4.846864   3.640167   0.000000
    11  H    5.193730   6.466329   3.463593   6.293094   5.433636
    12  H    5.066942   4.701677   1.093479   6.909607   5.830688
    13  H    4.320264   4.374690   1.093120   6.360652   4.462688
    14  H    3.302642   3.197874   1.102059   5.160061   4.304218
    15  H    6.544576   6.772712   2.852948   7.976808   7.318881
    16  H    5.577070   5.756663   2.765622   6.749722   6.818993
    17  H    6.141091   6.848193   3.490248   7.179449   7.018329
    18  C    4.238477   5.466375   2.990906   5.822921   3.756870
    19  H    5.059861   6.009113   3.101233   6.802980   4.390366
    20  H    4.646424   6.172458   4.057623   5.944447   3.891817
    21  H    3.338987   4.536901   2.885214   5.099722   2.750790
    22  C    3.413385   5.359570   4.560413   3.809605   3.766388
    23  H    4.489694   6.379853   5.001503   4.825746   4.669174
    24  H    3.445151   5.488062   5.396144   3.174275   4.035048
    25  H    3.143268   5.152257   4.568139   3.843962   2.892502
    26  C    4.161753   5.371357   4.025258   4.529494   5.477690
    27  H    4.260006   5.565409   4.968426   4.077029   5.742787
    28  H    5.088089   6.375598   4.459683   5.446792   6.141881
    29  H    4.367570   5.129931   3.640296   4.935081   5.894982
                   11         12         13         14         15
    11  H    0.000000
    12  H    4.233830   0.000000
    13  H    3.769047   1.781679   0.000000
    14  H    3.899576   1.771172   1.762007   0.000000
    15  H    3.347322   2.599305   3.586616   3.637350   0.000000
    16  H    3.531474   2.651353   3.808328   3.007272   1.755067
    17  H    2.362315   3.699665   4.284605   3.970618   1.772562
    18  C    2.223942   3.995837   2.651754   3.353782   4.398016
    19  H    2.813643   3.946207   2.493655   3.720830   4.391302
    20  H    2.425910   5.066217   3.736149   4.345694   5.203634
    21  H    3.065522   3.949961   2.443910   2.944157   4.926534
    22  C    2.873387   5.567595   4.796028   4.279208   5.642301
    23  H    2.480398   5.966699   5.241850   4.925120   5.586883
    24  H    3.877813   6.370762   5.693904   4.948122   6.498506
    25  H    3.258918   5.642886   4.557827   4.301523   6.049139
    26  C    2.919494   4.677874   4.797405   3.721785   4.257489
    27  H    3.887098   5.617422   5.724622   4.502497   5.301215
    28  H    2.492897   5.078785   5.190770   4.401293   4.100893
    29  H    3.374036   4.080050   4.576363   3.311661   3.728550
                   16         17         18         19         20
    16  H    0.000000
    17  H    1.785678   0.000000
    18  C    4.633566   4.141463   0.000000
    19  H    4.987270   4.500857   1.097179   0.000000
    20  H    5.430939   4.681767   1.091768   1.761839   0.000000
    21  H    4.896082   4.758527   1.092901   1.763546   1.765653
    22  C    5.008371   4.513000   3.005852   4.097452   2.784778
    23  H    5.159322   4.286858   3.149493   4.157362   2.707610
    24  H    5.648274   5.271357   4.067839   5.162965   3.812472
    25  H    5.581256   5.158946   2.601965   3.653544   2.269954
    26  C    3.082670   2.928092   4.128499   5.041347   4.432554
    27  H    3.991791   3.933043   4.982261   5.965437   5.166748
    28  H    3.242661   2.481825   4.208718   5.054980   4.375537
    29  H    2.257158   2.663923   4.524701   5.309414   5.041555
                   21         22         23         24         25
    21  H    0.000000
    22  C    2.996065   0.000000
    23  H    3.487056   1.091403   0.000000
    24  H    3.918921   1.099797   1.776430   0.000000
    25  H    2.383169   1.089149   1.795396   1.762599   0.000000
    26  C    4.258542   2.562999   2.789755   2.834765   3.500503
    27  H    4.996270   2.809829   3.115187   2.637452   3.807740
    28  H    4.597912   2.818572   2.604286   3.211841   3.804066
    29  H    4.602642   3.496311   3.797599   3.802668   4.312947
                   26         27         28         29
    26  C    0.000000
    27  H    1.098903   0.000000
    28  H    1.091464   1.772447   0.000000
    29  H    1.089043   1.766631   1.794719   0.000000
 Framework group  C1[X(C8H16Cl3FeO)]
 Deg. of freedom    81
                         Standard orientation:                         
 ---------------------------------------------------------------------
 Center     Atomic      Atomic             Coordinates (Angstroms)
 Number     Number       Type             X           Y           Z
 ---------------------------------------------------------------------
      1          8           0       -0.282402   -0.262825   -0.567584
      2          6           0       -1.086230   -1.218801   -0.331975
      3          6           0       -2.768283   -0.217288    0.875365
      4          6           0       -3.021757    0.718569   -0.082527
      5          6           0       -4.037932    0.498766   -1.162343
      6         26           0        1.538388    0.186248   -0.085313
      7         17           0        1.863206    2.095986   -1.090166
      8          6           0       -2.259125    2.003223   -0.139022
      9         17           0        2.627115   -1.542100   -0.881875
     10         17           0        1.697946    0.325544    2.101306
     11          1           0       -3.399133   -1.105292    0.877831
     12          1           0       -2.777679    2.760107   -0.733938
     13          1           0       -2.044068    2.411644    0.851864
     14          1           0       -1.287138    1.810045   -0.621161
     15          1           0       -4.852980    1.224461   -1.036104
     16          1           0       -3.615104    0.686227   -2.157811
     17          1           0       -4.472187   -0.503662   -1.138881
     18          6           0       -2.052083    0.108270    2.165714
     19          1           0       -2.614094    0.866928    2.724626
     20          1           0       -1.968832   -0.770355    2.808400
     21          1           0       -1.045470    0.502682    2.005711
     22          6           0       -0.747121   -2.204736    0.757800
     23          1           0       -1.604472   -2.807495    1.062417
     24          1           0        0.006181   -2.873225    0.315971
     25          1           0       -0.286349   -1.723028    1.619132
     26          6           0       -1.853232   -1.759211   -1.510898
     27          1           0       -1.179854   -2.473007   -2.005515
     28          1           0       -2.756923   -2.295684   -1.216225
     29          1           0       -2.086720   -0.973268   -2.227690
 ---------------------------------------------------------------------
 Rotational constants (GHZ):           0.5890586           0.3043515           0.2905826
   427 basis functions,  1056 primitive gaussians,   461 cartesian basis functions
    77 alpha electrons       72 beta electrons
       nuclear repulsion energy      1616.2824007138 Hartrees.
 NAtoms=   29 NActive=   29 NUniq=   29 SFac= 1.00D+00 NAtFMM=   60 NAOKFM=F Big=F
 Nuclear repulsion after empirical dispersion term =     1616.1826323943 Hartrees.
 Initial guess from the checkpoint file:  "checkpoint.chk"
 B after Tr=     0.000000    0.000000    0.000000
         Rot=    1.000000    0.000000    0.000000    0.000000 Ang=   0.00 deg.
 Initial guess <Sx>= 0.0000 <Sy>= 0.0000 <Sz>= 2.5000 <S**2>= 8.7618 S= 2.5020
 EnCoef did   100 forward-backward iterations
 SCF Done:  E(UB97D3) =  -3034.63050761     A.U. after   15 cycles
            NFock= 15  Conv=0.55D-08     -V/T= 2.0019
 <Sx>= 0.0000 <Sy>= 0.0000 <Sz>= 2.5000 <S**2>= 8.7599 S= 2.5016
 <L.S>= 0.000000000000E+00
 Annihilation of the first spin contaminant:
 S**2 before annihilation     8.7599,   after     8.7500
 1\1\GINC-HOLY7C04207\SP\UB97D3\Jul-CC-pVDZ\C8H16Cl3Fe1O1(6)\EKWAN\11-F
 eb-2020\0\\#t pop=none jul-cc-pvdz guess=read ub97d3 empiricaldispersi
 on=gd3bj\\theory_abbreviation b97d3_d3bj\\0,6\O,0,-0.282402,-0.262825,
 -0.567584\C,0,-1.08623,-1.218801,-0.331975\C,0,-2.768283,-0.217288,0.8
 75365\C,0,-3.021757,0.718569,-0.082527\C,0,-4.037932,0.498766,-1.16234
 3\Fe,0,1.538388,0.186248,-0.085313\Cl,0,1.863206,2.095986,-1.090166\C,
 0,-2.259125,2.003223,-0.139022\Cl,0,2.627115,-1.5421,-0.881875\Cl,0,1.
 697946,0.325544,2.101306\H,0,-3.399133,-1.105292,0.877831\H,0,-2.77767
 9,2.760107,-0.733938\H,0,-2.044068,2.411644,0.851864\H,0,-1.287138,1.8
 10045,-0.621161\H,0,-4.85298,1.224461,-1.036104\H,0,-3.615104,0.686227
 ,-2.157811\H,0,-4.472187,-0.503662,-1.138881\C,0,-2.052083,0.10827,2.1
 65714\H,0,-2.614094,0.866928,2.724626\H,0,-1.968832,-0.770355,2.8084\H
 ,0,-1.04547,0.502682,2.005711\C,0,-0.747121,-2.204736,0.7578\H,0,-1.60
 4472,-2.807495,1.062417\H,0,0.006181,-2.873225,0.315971\H,0,-0.286349,
 -1.723028,1.619132\C,0,-1.853232,-1.759211,-1.510898\H,0,-1.179854,-2.
 473007,-2.005515\H,0,-2.756923,-2.295684,-1.216225\H,0,-2.08672,-0.973
 268,-2.22769\\Version=ES64L-G16RevA.03\HF=-3034.6305076\S2=8.759898\S2
 -1=0.\S2A=8.750031\RMSD=5.534e-09\PG=C01 [X(C8H16Cl3Fe1O1)]\\@


 ALL SCIENCE IS EITHER PHYSICS, OR STAMP COLLECTING.
   --ERNEST RUTHERFORD, 1871-1937.
 Job cpu time:       0 days  0 hours 46 minutes 49.7 seconds.
 Elapsed time:       0 days  0 hours 11 minutes 44.7 seconds.
 File lengths (MBytes):  RWF=    174 Int=      0 D2E=      0 Chk=     13 Scr=      1
 Normal termination of Gaussian 16 at Tue Feb 11 23:37:06 2020.
