 Entering Gaussian System, Link 0=g16
 Input=simple-grid-245-240-b3lyp_d3bj-631gd-gas-singlepoint-DFT-juldz2-gas.gjf
 Output=simple-grid-245-240-b3lyp_d3bj-631gd-gas-singlepoint-DFT-juldz2-gas.out
 Initial command:
 /n/sw/g16_nehalem/g16/l1.exe "/scratch/Gau-270324.inp" -scrdir="/scratch/"
 Entering Link 1 = /n/sw/g16_nehalem/g16/l1.exe PID=    270335.
  
 Copyright (c) 1988,1990,1992,1993,1995,1998,2003,2009,2016,
            Gaussian, Inc.  All Rights Reserved.
  
 This is part of the Gaussian(R) 16 program.  It is based on
 the Gaussian(R) 09 system (copyright 2009, Gaussian, Inc.),
 the Gaussian(R) 03 system (copyright 2003, Gaussian, Inc.),
 the Gaussian(R) 98 system (copyright 1998, Gaussian, Inc.),
 the Gaussian(R) 94 system (copyright 1995, Gaussian, Inc.),
 the Gaussian 92(TM) system (copyright 1992, Gaussian, Inc.),
 the Gaussian 90(TM) system (copyright 1990, Gaussian, Inc.),
 the Gaussian 88(TM) system (copyright 1988, Gaussian, Inc.),
 the Gaussian 86(TM) system (copyright 1986, Carnegie Mellon
 University), and the Gaussian 82(TM) system (copyright 1983,
 Carnegie Mellon University). Gaussian is a federally registered
 trademark of Gaussian, Inc.
  
 This software contains proprietary and confidential information,
 including trade secrets, belonging to Gaussian, Inc.
  
 This software is provided under written license and may be
 used, copied, transmitted, or stored only in accord with that
 written license.
  
 The following legend is applicable only to US Government
 contracts under FAR:
  
                    RESTRICTED RIGHTS LEGEND
  
 Use, reproduction and disclosure by the US Government is
 subject to restrictions as set forth in subparagraphs (a)
 and (c) of the Commercial Computer Software - Restricted
 Rights clause in FAR 52.227-19.
  
 Gaussian, Inc.
 340 Quinnipiac St., Bldg. 40, Wallingford CT 06492
  
  
 ---------------------------------------------------------------
 Warning -- This program may not be used in any manner that
 competes with the business of Gaussian, Inc. or will provide
 assistance to any competitor of Gaussian, Inc.  The licensee
 of this program is prohibited from giving any competitor of
 Gaussian, Inc. access to this program.  By using this program,
 the user acknowledges that Gaussian, Inc. is engaged in the
 business of creating and licensing software in the field of
 computational chemistry and represents and warrants to the
 licensee that it is not a competitor of Gaussian, Inc. and that
 it will not use this program in any manner prohibited above.
 ---------------------------------------------------------------
  

 Cite this work as:
 Gaussian 16, Revision A.03,
 M. J. Frisch, G. W. Trucks, H. B. Schlegel, G. E. Scuseria, 
 M. A. Robb, J. R. Cheeseman, G. Scalmani, V. Barone, 
 G. A. Petersson, H. Nakatsuji, X. Li, M. Caricato, A. V. Marenich, 
 J. Bloino, B. G. Janesko, R. Gomperts, B. Mennucci, H. P. Hratchian, 
 J. V. Ortiz, A. F. Izmaylov, J. L. Sonnenberg, D. Williams-Young, 
 F. Ding, F. Lipparini, F. Egidi, J. Goings, B. Peng, A. Petrone, 
 T. Henderson, D. Ranasinghe, V. G. Zakrzewski, J. Gao, N. Rega, 
 G. Zheng, W. Liang, M. Hada, M. Ehara, K. Toyota, R. Fukuda, 
 J. Hasegawa, M. Ishida, T. Nakajima, Y. Honda, O. Kitao, H. Nakai, 
 T. Vreven, K. Throssell, J. A. Montgomery, Jr., J. E. Peralta, 
 F. Ogliaro, M. J. Bearpark, J. J. Heyd, E. N. Brothers, K. N. Kudin, 
 V. N. Staroverov, T. A. Keith, R. Kobayashi, J. Normand, 
 K. Raghavachari, A. P. Rendell, J. C. Burant, S. S. Iyengar, 
 J. Tomasi, M. Cossi, J. M. Millam, M. Klene, C. Adamo, R. Cammi, 
 J. W. Ochterski, R. L. Martin, K. Morokuma, O. Farkas, 
 J. B. Foresman, and D. J. Fox, Gaussian, Inc., Wallingford CT, 2016.
 
 ******************************************
 Gaussian 16:  ES64L-G16RevA.03 25-Dec-2016
                11-Feb-2020 
 ******************************************
 %chk=checkpoint.chk
 %mem=3GB
 %nprocshared=4
 Will use up to    4 processors via shared memory.
 --------------------------------
 #t pop=none jul-cc-pvdz upbe1pbe
 --------------------------------
 ------------------------
 theory_abbreviation pbe0
 ------------------------
 Symbolic Z-matrix:
 Charge =  0 Multiplicity = 6
 O                    -0.31742  -0.15785  -0.65209 
 C                    -1.14653  -1.11303  -0.56932 
 C                    -3.20519   0.03662   0.09604 
 C                    -2.35012   1.04097  -0.21507 
 C                    -2.29564   1.62151  -1.59763 
 Fe                    1.46843   0.08365   0.0576 
 Cl                    2.09982   1.98534  -0.80776 
 C                    -1.55309   1.78759   0.8145 
 Cl                    2.46346  -1.72116  -0.69949 
 Cl                    1.36112   0.08866   2.25269 
 H                    -3.82582  -0.35557  -0.70807 
 H                    -2.16409   2.62139   1.18784 
 H                    -1.26652   1.18007   1.67389 
 H                    -0.64965   2.22289   0.37958 
 H                    -2.59673   2.67625  -1.54775 
 H                    -1.27288   1.60427  -1.98862 
 H                    -2.9683    1.11552  -2.29539 
 C                    -3.59252  -0.4073    1.47983 
 H                    -4.51458   0.1053    1.78648 
 H                    -3.8036   -1.48105   1.52043 
 H                    -2.83206  -0.1801    2.23076 
 C                    -1.1069   -2.02693   0.61682 
 H                    -2.0002   -2.64599   0.69901 
 H                    -0.24289  -2.68808   0.44913 
 H                    -0.91941  -1.48255   1.54263 
 C                    -1.72193  -1.64272  -1.85057 
 H                    -0.95162  -2.31457  -2.25793 
 H                    -2.63385  -2.22083  -1.69455 
 H                    -1.88083  -0.84775  -2.57834 
 
                    Distance matrix (angstroms):
                    1          2          3          4          5
     1  O    0.000000
     2  C    1.267535   0.000000
     3  C    2.989441   2.449999   0.000000
     4  C    2.400005   2.492757   1.355235   0.000000
     5  C    2.823749   3.139364   2.491520   1.500487   0.000000
     6  Fe   1.936808   2.943310   4.674017   3.946151   4.390106
     7  Cl   3.234277   4.493947   5.723417   4.587486   4.480661
     8  C    2.731759   3.239422   2.512277   1.500903   2.529293
     9  Cl   3.190526   3.663168   5.988012   5.570866   5.884654
    10  Cl   3.363924   3.961830   5.050256   4.557415   5.526890
    11  H    3.514410   2.787754   1.088840   2.090705   2.653598
    12  H    3.810471   4.250754   2.992818   2.121436   2.962416
    13  H    2.846225   3.210090   2.748735   2.182135   3.457863
    14  H    2.615846   3.503664   3.375049   2.154559   2.642028
    15  H    3.745606   4.173610   3.168576   2.123902   1.098001
    16  H    2.409214   3.068243   3.246096   2.150164   1.095081
    17  H    3.368842   3.356279   2.634205   2.171498   1.093324
    18  C    3.915810   3.268013   1.503981   2.552201   3.907519
    19  H    4.861282   4.286945   2.139350   3.092994   4.321436
    20  H    4.315571   3.400369   2.165713   3.388978   4.649960
    21  H    3.825537   3.398796   2.177904   2.775860   4.264991
    22  C    2.393082   1.497896   2.988695   3.413158   4.430350
    23  H    3.293636   2.165031   3.001996   3.814663   4.855243
    24  H    2.760489   2.081965   4.040287   4.334444   5.193804
    25  H    2.633251   2.156028   3.102468   3.391841   4.624979
    26  C    2.369351   1.501081   2.968081   3.204938   3.323899
    27  H    2.762671   2.081606   4.018438   4.169976   4.211309
    28  H    3.272382   2.169215   2.937470   3.592871   3.858420
    29  H    2.575007   2.155398   3.112616   3.061463   2.689077
                    6          7          8          9         10
     6  Fe   0.000000
     7  Cl   2.182645   0.000000
     8  C    3.550477   4.001816   0.000000
     9  Cl   2.195585   3.725871   5.544019   0.000000
    10  Cl   2.197716   3.675514   3.667069   3.633997   0.000000
    11  H    5.367324   6.372041   3.475144   6.435829   5.988969
    12  H    4.573043   4.750559   1.099053   6.620717   4.469419
    13  H    3.360725   4.259022   1.090766   5.287985   2.903562
    14  H    3.027588   3.004294   1.093082   5.139199   3.479463
    15  H    5.081750   4.804420   2.731130   6.757381   6.066586
    16  H    3.743541   3.593712   2.823045   5.165328   5.217639
    17  H    5.126975   5.353079   3.482221   6.332273   6.362650
    18  C    5.279863   6.584866   3.069119   6.568906   5.038040
    19  H    6.227834   7.349484   3.541936   7.629487   5.894194
    20  H    5.690557   7.230952   4.030777   6.652950   5.447434
    21  H    4.825594   6.184263   2.741055   6.245296   4.201837
    22  C    3.376323   5.330174   3.845613   3.817539   3.639081
    23  H    4.460237   6.366296   4.457566   4.768163   4.603338
    24  H    3.280916   5.376706   4.677797   3.094933   3.679130
    25  H    3.218707   5.163947   3.409625   4.065449   2.858970
    26  C    4.098758   5.371780   4.347192   4.341501   5.416600
    27  H    4.119432   5.468409   5.160357   3.800477   5.609805
    28  H    5.020893   6.394213   4.850859   5.217511   6.072417
    29  H    4.362705   5.196819   4.308575   4.813081   5.892872
                   11         12         13         14         15
    11  H    0.000000
    12  H    3.901037   0.000000
    13  H    3.818626   1.766149   0.000000
    14  H    4.233135   1.762267   1.772917   0.000000
    15  H    3.377513   2.770129   3.793013   2.776910   0.000000
    16  H    3.463844   3.452342   3.687001   2.525767   1.759562
    17  H    2.327872   3.879078   4.319186   3.709158   1.769997
    18  C    2.200909   3.361343   2.822705   4.097424   4.434641
    19  H    2.628611   3.494841   3.423114   4.626146   4.626554
    20  H    2.496684   4.430420   3.679926   4.996806   5.305974
    21  H    3.107267   3.063039   2.147337   3.736856   4.742492
    22  C    3.455618   4.801101   3.380488   4.280923   5.387465
    23  H    3.249426   5.292550   4.015892   5.062804   5.807747
    24  H    4.429117   5.694486   4.184548   4.928279   6.189028
    25  H    3.844857   4.303182   2.688349   3.893033   5.446042
    26  C    2.718156   5.254521   4.538423   4.589798   4.417059
    27  H    3.807985   6.140607   5.269803   5.257011   5.302733
    28  H    2.423455   5.654729   4.978162   5.290155   4.899421
    29  H    2.742835   5.128285   4.750885   4.437787   3.740751
                   16         17         18         19         20
    16  H    0.000000
    17  H    1.790927   0.000000
    18  C    4.632195   4.118354   0.000000
    19  H    5.196817   4.480307   1.098633   0.000000
    20  H    5.313865   4.690453   1.095054   1.758630   0.000000
    21  H    4.839235   4.709906   1.092628   1.763446   1.772271
    22  C    4.472299   4.671267   3.089710   4.186506   2.895982
    23  H    5.081046   4.904341   2.856027   3.882565   2.298711
    24  H    5.042598   5.424722   4.181425   5.276252   3.909381
    25  H    4.703523   5.067374   2.881944   3.937761   2.884273
    26  C    3.280797   3.059279   4.014581   4.907399   3.965237
    27  H    3.941198   3.979189   4.958108   5.908275   4.806719
    28  H    4.070644   3.406485   3.779497   4.589728   3.500240
    29  H    2.594183   2.262106   4.426356   5.186200   4.571441
                   21         22         23         24         25
    21  H    0.000000
    22  C    2.998630   0.000000
    23  H    3.019748   1.089946   0.000000
    24  H    4.020943   1.100794   1.775484   0.000000
    25  H    2.414145   1.090246   1.798167   1.762598   0.000000
    26  C    4.475363   2.571741   2.753961   2.927273   3.490483
    27  H    5.314165   2.893266   3.154808   2.823108   3.890699
    28  H    4.428539   2.776975   2.512243   3.245049   3.736803
    29  H    4.947536   3.492629   3.740176   3.903230   4.278984
                   26         27         28         29
    26  C    0.000000
    27  H    1.100323   0.000000
    28  H    1.090946   1.776541   0.000000
    29  H    1.089438   1.765685   1.798193   0.000000
 Framework group  C1[X(C8H16Cl3FeO)]
 Deg. of freedom    81
                         Standard orientation:                         
 ---------------------------------------------------------------------
 Center     Atomic      Atomic             Coordinates (Angstroms)
 Number     Number       Type             X           Y           Z
 ---------------------------------------------------------------------
      1          8           0       -0.317418   -0.157852   -0.652088
      2          6           0       -1.146531   -1.113031   -0.569318
      3          6           0       -3.205194    0.036623    0.096036
      4          6           0       -2.350117    1.040972   -0.215074
      5          6           0       -2.295641    1.621512   -1.597632
      6         26           0        1.468428    0.083648    0.057599
      7         17           0        2.099817    1.985344   -0.807757
      8          6           0       -1.553089    1.787594    0.814495
      9         17           0        2.463460   -1.721158   -0.699488
     10         17           0        1.361121    0.088660    2.252688
     11          1           0       -3.825815   -0.355565   -0.708073
     12          1           0       -2.164085    2.621390    1.187838
     13          1           0       -1.266520    1.180067    1.673890
     14          1           0       -0.649652    2.222889    0.379583
     15          1           0       -2.596726    2.676247   -1.547747
     16          1           0       -1.272884    1.604271   -1.988621
     17          1           0       -2.968302    1.115523   -2.295385
     18          6           0       -3.592520   -0.407297    1.479825
     19          1           0       -4.514583    0.105302    1.786480
     20          1           0       -3.803601   -1.481047    1.520431
     21          1           0       -2.832055   -0.180097    2.230764
     22          6           0       -1.106898   -2.026928    0.616816
     23          1           0       -2.000202   -2.645988    0.699006
     24          1           0       -0.242894   -2.688083    0.449127
     25          1           0       -0.919414   -1.482546    1.542632
     26          6           0       -1.721931   -1.642716   -1.850565
     27          1           0       -0.951618   -2.314569   -2.257926
     28          1           0       -2.633853   -2.220834   -1.694547
     29          1           0       -1.880825   -0.847753   -2.578343
 ---------------------------------------------------------------------
 Rotational constants (GHZ):           0.5857972           0.3299457           0.3108913
   427 basis functions,  1056 primitive gaussians,   461 cartesian basis functions
    77 alpha electrons       72 beta electrons
       nuclear repulsion energy      1641.5719781402 Hartrees.
 NAtoms=   29 NActive=   29 NUniq=   29 SFac= 1.00D+00 NAtFMM=   60 NAOKFM=F Big=F
 ExpMin= 1.40D-02 ExpMax= 4.32D+06 ExpMxC= 4.91D+03 IAcc=3 IRadAn=         5 AccDes= 0.00D+00
 Harris functional with IExCor= 1009 and IRadAn=       5 diagonalized for initial guess.
 HarFok:  IExCor= 1009 AccDes= 0.00D+00 IRadAn=         5 IDoV= 1 UseB2=F ITyADJ=14
 ICtDFT=  3500011 ScaDFX=  1.000000  1.000000  1.000000  1.000000
 FoFCou: FMM=F IPFlag=           0 FMFlag=      100000 FMFlg1=           0
         NFxFlg=           0 DoJE=T BraDBF=F KetDBF=T FulRan=T
         wScrn=  0.000000 ICntrl=       500 IOpCl=  0 I1Cent=   200000004 NGrid=           0
         NMat0=    1 NMatS0=      1 NMatT0=    0 NMatD0=    1 NMtDS0=    0 NMtDT0=    0
 Petite list used in FoFCou.
 Initial guess <Sx>= 0.0000 <Sy>= 0.0000 <Sz>= 2.5000 <S**2>= 8.7500 S= 2.5000
 EnCoef did   100 forward-backward iterations
 SCF Done:  E(UPBE1PBE) =  -3033.11757537     A.U. after   20 cycles
            NFock= 20  Conv=0.60D-08     -V/T= 2.0021
 <Sx>= 0.0000 <Sy>= 0.0000 <Sz>= 2.5000 <S**2>= 8.7628 S= 2.5021
 <L.S>= 0.000000000000E+00
 Annihilation of the first spin contaminant:
 S**2 before annihilation     8.7628,   after     8.7501
 1\1\GINC-HOLY7C04208\SP\UPBE1PBE\Jul-CC-pVDZ\C8H16Cl3Fe1O1(6)\EKWAN\11
 -Feb-2020\0\\#t pop=none jul-cc-pvdz upbe1pbe\\theory_abbreviation pbe
 0\\0,6\O,0,-0.317418,-0.157852,-0.652088\C,0,-1.146531,-1.113031,-0.56
 9318\C,0,-3.205194,0.036623,0.096036\C,0,-2.350117,1.040972,-0.215074\
 C,0,-2.295641,1.621512,-1.597632\Fe,0,1.468428,0.083648,0.057599\Cl,0,
 2.099817,1.985344,-0.807757\C,0,-1.553089,1.787594,0.814495\Cl,0,2.463
 46,-1.721158,-0.699488\Cl,0,1.361121,0.08866,2.252688\H,0,-3.825815,-0
 .355565,-0.708073\H,0,-2.164085,2.62139,1.187838\H,0,-1.26652,1.180067
 ,1.67389\H,0,-0.649652,2.222889,0.379583\H,0,-2.596726,2.676247,-1.547
 747\H,0,-1.272884,1.604271,-1.988621\H,0,-2.968302,1.115523,-2.295385\
 C,0,-3.59252,-0.407297,1.479825\H,0,-4.514583,0.105302,1.78648\H,0,-3.
 803601,-1.481047,1.520431\H,0,-2.832055,-0.180097,2.230764\C,0,-1.1068
 98,-2.026928,0.616816\H,0,-2.000202,-2.645988,0.699006\H,0,-0.242894,-
 2.688083,0.449127\H,0,-0.919414,-1.482546,1.542632\C,0,-1.721931,-1.64
 2716,-1.850565\H,0,-0.951618,-2.314569,-2.257926\H,0,-2.633853,-2.2208
 34,-1.694547\H,0,-1.880825,-0.847753,-2.578343\\Version=ES64L-G16RevA.
 03\HF=-3033.1175754\S2=8.762838\S2-1=0.\S2A=8.750051\RMSD=6.016e-09\PG
 =C01 [X(C8H16Cl3Fe1O1)]\\@


 TRUST EVERYONE, BUT CUT THE CARDS.
 Job cpu time:       0 days  1 hours 26 minutes 20.8 seconds.
 Elapsed time:       0 days  0 hours 21 minutes 39.8 seconds.
 File lengths (MBytes):  RWF=    173 Int=      0 D2E=      0 Chk=     13 Scr=      1
 Normal termination of Gaussian 16 at Tue Feb 11 13:59:03 2020.
 Initial command:
 /n/sw/g16_nehalem/g16/l1.exe "/scratch/Gau-270324.inp" -scrdir="/scratch/"
 Entering Link 1 = /n/sw/g16_nehalem/g16/l1.exe PID=    271960.
  
 Copyright (c) 1988,1990,1992,1993,1995,1998,2003,2009,2016,
            Gaussian, Inc.  All Rights Reserved.
  
 This is part of the Gaussian(R) 16 program.  It is based on
 the Gaussian(R) 09 system (copyright 2009, Gaussian, Inc.),
 the Gaussian(R) 03 system (copyright 2003, Gaussian, Inc.),
 the Gaussian(R) 98 system (copyright 1998, Gaussian, Inc.),
 the Gaussian(R) 94 system (copyright 1995, Gaussian, Inc.),
 the Gaussian 92(TM) system (copyright 1992, Gaussian, Inc.),
 the Gaussian 90(TM) system (copyright 1990, Gaussian, Inc.),
 the Gaussian 88(TM) system (copyright 1988, Gaussian, Inc.),
 the Gaussian 86(TM) system (copyright 1986, Carnegie Mellon
 University), and the Gaussian 82(TM) system (copyright 1983,
 Carnegie Mellon University). Gaussian is a federally registered
 trademark of Gaussian, Inc.
  
 This software contains proprietary and confidential information,
 including trade secrets, belonging to Gaussian, Inc.
  
 This software is provided under written license and may be
 used, copied, transmitted, or stored only in accord with that
 written license.
  
 The following legend is applicable only to US Government
 contracts under FAR:
  
                    RESTRICTED RIGHTS LEGEND
  
 Use, reproduction and disclosure by the US Government is
 subject to restrictions as set forth in subparagraphs (a)
 and (c) of the Commercial Computer Software - Restricted
 Rights clause in FAR 52.227-19.
  
 Gaussian, Inc.
 340 Quinnipiac St., Bldg. 40, Wallingford CT 06492
  
  
 ---------------------------------------------------------------
 Warning -- This program may not be used in any manner that
 competes with the business of Gaussian, Inc. or will provide
 assistance to any competitor of Gaussian, Inc.  The licensee
 of this program is prohibited from giving any competitor of
 Gaussian, Inc. access to this program.  By using this program,
 the user acknowledges that Gaussian, Inc. is engaged in the
 business of creating and licensing software in the field of
 computational chemistry and represents and warrants to the
 licensee that it is not a competitor of Gaussian, Inc. and that
 it will not use this program in any manner prohibited above.
 ---------------------------------------------------------------
  

 Cite this work as:
 Gaussian 16, Revision A.03,
 M. J. Frisch, G. W. Trucks, H. B. Schlegel, G. E. Scuseria, 
 M. A. Robb, J. R. Cheeseman, G. Scalmani, V. Barone, 
 G. A. Petersson, H. Nakatsuji, X. Li, M. Caricato, A. V. Marenich, 
 J. Bloino, B. G. Janesko, R. Gomperts, B. Mennucci, H. P. Hratchian, 
 J. V. Ortiz, A. F. Izmaylov, J. L. Sonnenberg, D. Williams-Young, 
 F. Ding, F. Lipparini, F. Egidi, J. Goings, B. Peng, A. Petrone, 
 T. Henderson, D. Ranasinghe, V. G. Zakrzewski, J. Gao, N. Rega, 
 G. Zheng, W. Liang, M. Hada, M. Ehara, K. Toyota, R. Fukuda, 
 J. Hasegawa, M. Ishida, T. Nakajima, Y. Honda, O. Kitao, H. Nakai, 
 T. Vreven, K. Throssell, J. A. Montgomery, Jr., J. E. Peralta, 
 F. Ogliaro, M. J. Bearpark, J. J. Heyd, E. N. Brothers, K. N. Kudin, 
 V. N. Staroverov, T. A. Keith, R. Kobayashi, J. Normand, 
 K. Raghavachari, A. P. Rendell, J. C. Burant, S. S. Iyengar, 
 J. Tomasi, M. Cossi, J. M. Millam, M. Klene, C. Adamo, R. Cammi, 
 J. W. Ochterski, R. L. Martin, K. Morokuma, O. Farkas, 
 J. B. Foresman, and D. J. Fox, Gaussian, Inc., Wallingford CT, 2016.
 
 ******************************************
 Gaussian 16:  ES64L-G16RevA.03 25-Dec-2016
                11-Feb-2020 
 ******************************************
 %chk=checkpoint.chk
 %mem=3GB
 %nprocshared=4
 Will use up to    4 processors via shared memory.
 ---------------------------------------------------------------------
 #t pop=none jul-cc-pvdz guess=read upbe1pbe empiricaldispersion=gd3bj
 ---------------------------------------------------------------------
 -----------------------------
 theory_abbreviation pbe0_d3bj
 -----------------------------
 Symbolic Z-matrix:
 Charge =  0 Multiplicity = 6
 O                    -0.31742  -0.15785  -0.65209 
 C                    -1.14653  -1.11303  -0.56932 
 C                    -3.20519   0.03662   0.09604 
 C                    -2.35012   1.04097  -0.21507 
 C                    -2.29564   1.62151  -1.59763 
 Fe                    1.46843   0.08365   0.0576 
 Cl                    2.09982   1.98534  -0.80776 
 C                    -1.55309   1.78759   0.8145 
 Cl                    2.46346  -1.72116  -0.69949 
 Cl                    1.36112   0.08866   2.25269 
 H                    -3.82582  -0.35557  -0.70807 
 H                    -2.16409   2.62139   1.18784 
 H                    -1.26652   1.18007   1.67389 
 H                    -0.64965   2.22289   0.37958 
 H                    -2.59673   2.67625  -1.54775 
 H                    -1.27288   1.60427  -1.98862 
 H                    -2.9683    1.11552  -2.29539 
 C                    -3.59252  -0.4073    1.47983 
 H                    -4.51458   0.1053    1.78648 
 H                    -3.8036   -1.48105   1.52043 
 H                    -2.83206  -0.1801    2.23076 
 C                    -1.1069   -2.02693   0.61682 
 H                    -2.0002   -2.64599   0.69901 
 H                    -0.24289  -2.68808   0.44913 
 H                    -0.91941  -1.48255   1.54263 
 C                    -1.72193  -1.64272  -1.85057 
 H                    -0.95162  -2.31457  -2.25793 
 H                    -2.63385  -2.22083  -1.69455 
 H                    -1.88083  -0.84775  -2.57834 
 
                    Distance matrix (angstroms):
                    1          2          3          4          5
     1  O    0.000000
     2  C    1.267535   0.000000
     3  C    2.989441   2.449999   0.000000
     4  C    2.400005   2.492757   1.355235   0.000000
     5  C    2.823749   3.139364   2.491520   1.500487   0.000000
     6  Fe   1.936808   2.943310   4.674017   3.946151   4.390106
     7  Cl   3.234277   4.493947   5.723417   4.587486   4.480661
     8  C    2.731759   3.239422   2.512277   1.500903   2.529293
     9  Cl   3.190526   3.663168   5.988012   5.570866   5.884654
    10  Cl   3.363924   3.961830   5.050256   4.557415   5.526890
    11  H    3.514410   2.787754   1.088840   2.090705   2.653598
    12  H    3.810471   4.250754   2.992818   2.121436   2.962416
    13  H    2.846225   3.210090   2.748735   2.182135   3.457863
    14  H    2.615846   3.503664   3.375049   2.154559   2.642028
    15  H    3.745606   4.173610   3.168576   2.123902   1.098001
    16  H    2.409214   3.068243   3.246096   2.150164   1.095081
    17  H    3.368842   3.356279   2.634205   2.171498   1.093324
    18  C    3.915810   3.268013   1.503981   2.552201   3.907519
    19  H    4.861282   4.286945   2.139350   3.092994   4.321436
    20  H    4.315571   3.400369   2.165713   3.388978   4.649960
    21  H    3.825537   3.398796   2.177904   2.775860   4.264991
    22  C    2.393082   1.497896   2.988695   3.413158   4.430350
    23  H    3.293636   2.165031   3.001996   3.814663   4.855243
    24  H    2.760489   2.081965   4.040287   4.334444   5.193804
    25  H    2.633251   2.156028   3.102468   3.391841   4.624979
    26  C    2.369351   1.501081   2.968081   3.204938   3.323899
    27  H    2.762671   2.081606   4.018438   4.169976   4.211309
    28  H    3.272382   2.169215   2.937470   3.592871   3.858420
    29  H    2.575007   2.155398   3.112616   3.061463   2.689077
                    6          7          8          9         10
     6  Fe   0.000000
     7  Cl   2.182645   0.000000
     8  C    3.550477   4.001816   0.000000
     9  Cl   2.195585   3.725871   5.544019   0.000000
    10  Cl   2.197716   3.675514   3.667069   3.633997   0.000000
    11  H    5.367324   6.372041   3.475144   6.435829   5.988969
    12  H    4.573043   4.750559   1.099053   6.620717   4.469419
    13  H    3.360725   4.259022   1.090766   5.287985   2.903562
    14  H    3.027588   3.004294   1.093082   5.139199   3.479463
    15  H    5.081750   4.804420   2.731130   6.757381   6.066586
    16  H    3.743541   3.593712   2.823045   5.165328   5.217639
    17  H    5.126975   5.353079   3.482221   6.332273   6.362650
    18  C    5.279863   6.584866   3.069119   6.568906   5.038040
    19  H    6.227834   7.349484   3.541936   7.629487   5.894194
    20  H    5.690557   7.230952   4.030777   6.652950   5.447434
    21  H    4.825594   6.184263   2.741055   6.245296   4.201837
    22  C    3.376323   5.330174   3.845613   3.817539   3.639081
    23  H    4.460237   6.366296   4.457566   4.768163   4.603338
    24  H    3.280916   5.376706   4.677797   3.094933   3.679130
    25  H    3.218707   5.163947   3.409625   4.065449   2.858970
    26  C    4.098758   5.371780   4.347192   4.341501   5.416600
    27  H    4.119432   5.468409   5.160357   3.800477   5.609805
    28  H    5.020893   6.394213   4.850859   5.217511   6.072417
    29  H    4.362705   5.196819   4.308575   4.813081   5.892872
                   11         12         13         14         15
    11  H    0.000000
    12  H    3.901037   0.000000
    13  H    3.818626   1.766149   0.000000
    14  H    4.233135   1.762267   1.772917   0.000000
    15  H    3.377513   2.770129   3.793013   2.776910   0.000000
    16  H    3.463844   3.452342   3.687001   2.525767   1.759562
    17  H    2.327872   3.879078   4.319186   3.709158   1.769997
    18  C    2.200909   3.361343   2.822705   4.097424   4.434641
    19  H    2.628611   3.494841   3.423114   4.626146   4.626554
    20  H    2.496684   4.430420   3.679926   4.996806   5.305974
    21  H    3.107267   3.063039   2.147337   3.736856   4.742492
    22  C    3.455618   4.801101   3.380488   4.280923   5.387465
    23  H    3.249426   5.292550   4.015892   5.062804   5.807747
    24  H    4.429117   5.694486   4.184548   4.928279   6.189028
    25  H    3.844857   4.303182   2.688349   3.893033   5.446042
    26  C    2.718156   5.254521   4.538423   4.589798   4.417059
    27  H    3.807985   6.140607   5.269803   5.257011   5.302733
    28  H    2.423455   5.654729   4.978162   5.290155   4.899421
    29  H    2.742835   5.128285   4.750885   4.437787   3.740751
                   16         17         18         19         20
    16  H    0.000000
    17  H    1.790927   0.000000
    18  C    4.632195   4.118354   0.000000
    19  H    5.196817   4.480307   1.098633   0.000000
    20  H    5.313865   4.690453   1.095054   1.758630   0.000000
    21  H    4.839235   4.709906   1.092628   1.763446   1.772271
    22  C    4.472299   4.671267   3.089710   4.186506   2.895982
    23  H    5.081046   4.904341   2.856027   3.882565   2.298711
    24  H    5.042598   5.424722   4.181425   5.276252   3.909381
    25  H    4.703523   5.067374   2.881944   3.937761   2.884273
    26  C    3.280797   3.059279   4.014581   4.907399   3.965237
    27  H    3.941198   3.979189   4.958108   5.908275   4.806719
    28  H    4.070644   3.406485   3.779497   4.589728   3.500240
    29  H    2.594183   2.262106   4.426356   5.186200   4.571441
                   21         22         23         24         25
    21  H    0.000000
    22  C    2.998630   0.000000
    23  H    3.019748   1.089946   0.000000
    24  H    4.020943   1.100794   1.775484   0.000000
    25  H    2.414145   1.090246   1.798167   1.762598   0.000000
    26  C    4.475363   2.571741   2.753961   2.927273   3.490483
    27  H    5.314165   2.893266   3.154808   2.823108   3.890699
    28  H    4.428539   2.776975   2.512243   3.245049   3.736803
    29  H    4.947536   3.492629   3.740176   3.903230   4.278984
                   26         27         28         29
    26  C    0.000000
    27  H    1.100323   0.000000
    28  H    1.090946   1.776541   0.000000
    29  H    1.089438   1.765685   1.798193   0.000000
 Framework group  C1[X(C8H16Cl3FeO)]
 Deg. of freedom    81
                         Standard orientation:                         
 ---------------------------------------------------------------------
 Center     Atomic      Atomic             Coordinates (Angstroms)
 Number     Number       Type             X           Y           Z
 ---------------------------------------------------------------------
      1          8           0       -0.317418   -0.157852   -0.652088
      2          6           0       -1.146531   -1.113031   -0.569318
      3          6           0       -3.205194    0.036623    0.096036
      4          6           0       -2.350117    1.040972   -0.215074
      5          6           0       -2.295641    1.621512   -1.597632
      6         26           0        1.468428    0.083648    0.057599
      7         17           0        2.099817    1.985344   -0.807757
      8          6           0       -1.553089    1.787594    0.814495
      9         17           0        2.463460   -1.721158   -0.699488
     10         17           0        1.361121    0.088660    2.252688
     11          1           0       -3.825815   -0.355565   -0.708073
     12          1           0       -2.164085    2.621390    1.187838
     13          1           0       -1.266520    1.180067    1.673890
     14          1           0       -0.649652    2.222889    0.379583
     15          1           0       -2.596726    2.676247   -1.547747
     16          1           0       -1.272884    1.604271   -1.988621
     17          1           0       -2.968302    1.115523   -2.295385
     18          6           0       -3.592520   -0.407297    1.479825
     19          1           0       -4.514583    0.105302    1.786480
     20          1           0       -3.803601   -1.481047    1.520431
     21          1           0       -2.832055   -0.180097    2.230764
     22          6           0       -1.106898   -2.026928    0.616816
     23          1           0       -2.000202   -2.645988    0.699006
     24          1           0       -0.242894   -2.688083    0.449127
     25          1           0       -0.919414   -1.482546    1.542632
     26          6           0       -1.721931   -1.642716   -1.850565
     27          1           0       -0.951618   -2.314569   -2.257926
     28          1           0       -2.633853   -2.220834   -1.694547
     29          1           0       -1.880825   -0.847753   -2.578343
 ---------------------------------------------------------------------
 Rotational constants (GHZ):           0.5857972           0.3299457           0.3108913
   427 basis functions,  1056 primitive gaussians,   461 cartesian basis functions
    77 alpha electrons       72 beta electrons
       nuclear repulsion energy      1641.5719781402 Hartrees.
 NAtoms=   29 NActive=   29 NUniq=   29 SFac= 1.00D+00 NAtFMM=   60 NAOKFM=F Big=F
 Nuclear repulsion after empirical dispersion term =     1641.5343319043 Hartrees.
 Initial guess from the checkpoint file:  "checkpoint.chk"
 B after Tr=     0.000000    0.000000    0.000000
         Rot=    1.000000    0.000000    0.000000    0.000000 Ang=   0.00 deg.
 Initial guess <Sx>= 0.0000 <Sy>= 0.0000 <Sz>= 2.5000 <S**2>= 8.7628 S= 2.5021
 SCF Done:  E(UPBE1PBE) =  -3033.15522160     A.U. after    1 cycles
            NFock=  1  Conv=0.25D-08     -V/T= 2.0021
 <Sx>= 0.0000 <Sy>= 0.0000 <Sz>= 2.5000 <S**2>= 8.7628 S= 2.5021
 <L.S>= 0.000000000000E+00
 Annihilation of the first spin contaminant:
 S**2 before annihilation     8.7628,   after     8.7501
 1\1\GINC-HOLY7C04208\SP\UPBE1PBE\Jul-CC-pVDZ\C8H16Cl3Fe1O1(6)\EKWAN\11
 -Feb-2020\0\\#t pop=none jul-cc-pvdz guess=read upbe1pbe empiricaldisp
 ersion=gd3bj\\theory_abbreviation pbe0_d3bj\\0,6\O,0,-0.317418,-0.1578
 52,-0.652088\C,0,-1.146531,-1.113031,-0.569318\C,0,-3.205194,0.036623,
 0.096036\C,0,-2.350117,1.040972,-0.215074\C,0,-2.295641,1.621512,-1.59
 7632\Fe,0,1.468428,0.083648,0.057599\Cl,0,2.099817,1.985344,-0.807757\
 C,0,-1.553089,1.787594,0.814495\Cl,0,2.46346,-1.721158,-0.699488\Cl,0,
 1.361121,0.08866,2.252688\H,0,-3.825815,-0.355565,-0.708073\H,0,-2.164
 085,2.62139,1.187838\H,0,-1.26652,1.180067,1.67389\H,0,-0.649652,2.222
 889,0.379583\H,0,-2.596726,2.676247,-1.547747\H,0,-1.272884,1.604271,-
 1.988621\H,0,-2.968302,1.115523,-2.295385\C,0,-3.59252,-0.407297,1.479
 825\H,0,-4.514583,0.105302,1.78648\H,0,-3.803601,-1.481047,1.520431\H,
 0,-2.832055,-0.180097,2.230764\C,0,-1.106898,-2.026928,0.616816\H,0,-2
 .000202,-2.645988,0.699006\H,0,-0.242894,-2.688083,0.449127\H,0,-0.919
 414,-1.482546,1.542632\C,0,-1.721931,-1.642716,-1.850565\H,0,-0.951618
 ,-2.314569,-2.257926\H,0,-2.633853,-2.220834,-1.694547\H,0,-1.880825,-
 0.847753,-2.578343\\Version=ES64L-G16RevA.03\HF=-3033.1552216\S2=8.762
 838\S2-1=0.\S2A=8.750051\RMSD=2.475e-09\PG=C01 [X(C8H16Cl3Fe1O1)]\\@


          EVOLUTION
 IN THE BEGINNING GOD MADE MAN.
 HE WORKED THE DIRT WITH HIS HANDS.
 THEN GOD DECIDED TO GIVE MAN SCIENCE,
 MAN SHOULD BE USEFUL (LIKE AN APPLIANCE.)
 BUT SOON MAN'S KNOWLEDGE GREW TOO GREAT,
 TO THE HEADING SCIENCE HE COULDN'T RELATE
 SO GOD SAID "LETS HAVE DIFFERENT FIELDS,
 WE'LL DIVIDE THEM UP, SEE WHAT IT YIELDS."
 ENTER PHYSICS, CHEMISTRY, BIO
 THEY SPRANG UP AROUND THE NILE.
 BUT CHEMISTRY SURPASSED THE REST
 FAR AND AWAY IT WAS THE BEST.
 EXPERIMENT WAS GOD'S DECREE
 EXPERIMENT DID CHEMISTS WITH LOTS OF GLEE
 BUT SOON THEIR TESTS BEGAN TO BOG,
 THEY FOUND THEMSELVES DEEP IN A FOG.
 "GIVE US SOME HELP" THEY CRIED TO GOD.
 GOD LOOKED AROUND, THEN GAVE THE NOD.
 ENTER EINSTEIN, HEISENBERG, BOHR,
 REACTION PATHS WERE CLEAR ONCE MORE.
 WITH THEORISTS GOD SEND DIRECTION
 AND THEN HE STOPPED, HE'D MADE PERFECTION.
          -- THOMAS A. HOLME, 1981
 Job cpu time:       0 days  0 hours  4 minutes 39.6 seconds.
 Elapsed time:       0 days  0 hours  1 minutes 10.6 seconds.
 File lengths (MBytes):  RWF=    170 Int=      0 D2E=      0 Chk=     13 Scr=      1
 Normal termination of Gaussian 16 at Tue Feb 11 14:00:14 2020.
 Initial command:
 /n/sw/g16_nehalem/g16/l1.exe "/scratch/Gau-270324.inp" -scrdir="/scratch/"
 Entering Link 1 = /n/sw/g16_nehalem/g16/l1.exe PID=    272364.
  
 Copyright (c) 1988,1990,1992,1993,1995,1998,2003,2009,2016,
            Gaussian, Inc.  All Rights Reserved.
  
 This is part of the Gaussian(R) 16 program.  It is based on
 the Gaussian(R) 09 system (copyright 2009, Gaussian, Inc.),
 the Gaussian(R) 03 system (copyright 2003, Gaussian, Inc.),
 the Gaussian(R) 98 system (copyright 1998, Gaussian, Inc.),
 the Gaussian(R) 94 system (copyright 1995, Gaussian, Inc.),
 the Gaussian 92(TM) system (copyright 1992, Gaussian, Inc.),
 the Gaussian 90(TM) system (copyright 1990, Gaussian, Inc.),
 the Gaussian 88(TM) system (copyright 1988, Gaussian, Inc.),
 the Gaussian 86(TM) system (copyright 1986, Carnegie Mellon
 University), and the Gaussian 82(TM) system (copyright 1983,
 Carnegie Mellon University). Gaussian is a federally registered
 trademark of Gaussian, Inc.
  
 This software contains proprietary and confidential information,
 including trade secrets, belonging to Gaussian, Inc.
  
 This software is provided under written license and may be
 used, copied, transmitted, or stored only in accord with that
 written license.
  
 The following legend is applicable only to US Government
 contracts under FAR:
  
                    RESTRICTED RIGHTS LEGEND
  
 Use, reproduction and disclosure by the US Government is
 subject to restrictions as set forth in subparagraphs (a)
 and (c) of the Commercial Computer Software - Restricted
 Rights clause in FAR 52.227-19.
  
 Gaussian, Inc.
 340 Quinnipiac St., Bldg. 40, Wallingford CT 06492
  
  
 ---------------------------------------------------------------
 Warning -- This program may not be used in any manner that
 competes with the business of Gaussian, Inc. or will provide
 assistance to any competitor of Gaussian, Inc.  The licensee
 of this program is prohibited from giving any competitor of
 Gaussian, Inc. access to this program.  By using this program,
 the user acknowledges that Gaussian, Inc. is engaged in the
 business of creating and licensing software in the field of
 computational chemistry and represents and warrants to the
 licensee that it is not a competitor of Gaussian, Inc. and that
 it will not use this program in any manner prohibited above.
 ---------------------------------------------------------------
  

 Cite this work as:
 Gaussian 16, Revision A.03,
 M. J. Frisch, G. W. Trucks, H. B. Schlegel, G. E. Scuseria, 
 M. A. Robb, J. R. Cheeseman, G. Scalmani, V. Barone, 
 G. A. Petersson, H. Nakatsuji, X. Li, M. Caricato, A. V. Marenich, 
 J. Bloino, B. G. Janesko, R. Gomperts, B. Mennucci, H. P. Hratchian, 
 J. V. Ortiz, A. F. Izmaylov, J. L. Sonnenberg, D. Williams-Young, 
 F. Ding, F. Lipparini, F. Egidi, J. Goings, B. Peng, A. Petrone, 
 T. Henderson, D. Ranasinghe, V. G. Zakrzewski, J. Gao, N. Rega, 
 G. Zheng, W. Liang, M. Hada, M. Ehara, K. Toyota, R. Fukuda, 
 J. Hasegawa, M. Ishida, T. Nakajima, Y. Honda, O. Kitao, H. Nakai, 
 T. Vreven, K. Throssell, J. A. Montgomery, Jr., J. E. Peralta, 
 F. Ogliaro, M. J. Bearpark, J. J. Heyd, E. N. Brothers, K. N. Kudin, 
 V. N. Staroverov, T. A. Keith, R. Kobayashi, J. Normand, 
 K. Raghavachari, A. P. Rendell, J. C. Burant, S. S. Iyengar, 
 J. Tomasi, M. Cossi, J. M. Millam, M. Klene, C. Adamo, R. Cammi, 
 J. W. Ochterski, R. L. Martin, K. Morokuma, O. Farkas, 
 J. B. Foresman, and D. J. Fox, Gaussian, Inc., Wallingford CT, 2016.
 
 ******************************************
 Gaussian 16:  ES64L-G16RevA.03 25-Dec-2016
                11-Feb-2020 
 ******************************************
 %chk=checkpoint.chk
 %mem=3GB
 %nprocshared=4
 Will use up to    4 processors via shared memory.
 -----------------------------------------
 #t pop=none jul-cc-pvdz guess=read ub3lyp
 -----------------------------------------
 -------------------------
 theory_abbreviation b3lyp
 -------------------------
 Symbolic Z-matrix:
 Charge =  0 Multiplicity = 6
 O                    -0.31742  -0.15785  -0.65209 
 C                    -1.14653  -1.11303  -0.56932 
 C                    -3.20519   0.03662   0.09604 
 C                    -2.35012   1.04097  -0.21507 
 C                    -2.29564   1.62151  -1.59763 
 Fe                    1.46843   0.08365   0.0576 
 Cl                    2.09982   1.98534  -0.80776 
 C                    -1.55309   1.78759   0.8145 
 Cl                    2.46346  -1.72116  -0.69949 
 Cl                    1.36112   0.08866   2.25269 
 H                    -3.82582  -0.35557  -0.70807 
 H                    -2.16409   2.62139   1.18784 
 H                    -1.26652   1.18007   1.67389 
 H                    -0.64965   2.22289   0.37958 
 H                    -2.59673   2.67625  -1.54775 
 H                    -1.27288   1.60427  -1.98862 
 H                    -2.9683    1.11552  -2.29539 
 C                    -3.59252  -0.4073    1.47983 
 H                    -4.51458   0.1053    1.78648 
 H                    -3.8036   -1.48105   1.52043 
 H                    -2.83206  -0.1801    2.23076 
 C                    -1.1069   -2.02693   0.61682 
 H                    -2.0002   -2.64599   0.69901 
 H                    -0.24289  -2.68808   0.44913 
 H                    -0.91941  -1.48255   1.54263 
 C                    -1.72193  -1.64272  -1.85057 
 H                    -0.95162  -2.31457  -2.25793 
 H                    -2.63385  -2.22083  -1.69455 
 H                    -1.88083  -0.84775  -2.57834 
 
                    Distance matrix (angstroms):
                    1          2          3          4          5
     1  O    0.000000
     2  C    1.267535   0.000000
     3  C    2.989441   2.449999   0.000000
     4  C    2.400005   2.492757   1.355235   0.000000
     5  C    2.823749   3.139364   2.491520   1.500487   0.000000
     6  Fe   1.936808   2.943310   4.674017   3.946151   4.390106
     7  Cl   3.234277   4.493947   5.723417   4.587486   4.480661
     8  C    2.731759   3.239422   2.512277   1.500903   2.529293
     9  Cl   3.190526   3.663168   5.988012   5.570866   5.884654
    10  Cl   3.363924   3.961830   5.050256   4.557415   5.526890
    11  H    3.514410   2.787754   1.088840   2.090705   2.653598
    12  H    3.810471   4.250754   2.992818   2.121436   2.962416
    13  H    2.846225   3.210090   2.748735   2.182135   3.457863
    14  H    2.615846   3.503664   3.375049   2.154559   2.642028
    15  H    3.745606   4.173610   3.168576   2.123902   1.098001
    16  H    2.409214   3.068243   3.246096   2.150164   1.095081
    17  H    3.368842   3.356279   2.634205   2.171498   1.093324
    18  C    3.915810   3.268013   1.503981   2.552201   3.907519
    19  H    4.861282   4.286945   2.139350   3.092994   4.321436
    20  H    4.315571   3.400369   2.165713   3.388978   4.649960
    21  H    3.825537   3.398796   2.177904   2.775860   4.264991
    22  C    2.393082   1.497896   2.988695   3.413158   4.430350
    23  H    3.293636   2.165031   3.001996   3.814663   4.855243
    24  H    2.760489   2.081965   4.040287   4.334444   5.193804
    25  H    2.633251   2.156028   3.102468   3.391841   4.624979
    26  C    2.369351   1.501081   2.968081   3.204938   3.323899
    27  H    2.762671   2.081606   4.018438   4.169976   4.211309
    28  H    3.272382   2.169215   2.937470   3.592871   3.858420
    29  H    2.575007   2.155398   3.112616   3.061463   2.689077
                    6          7          8          9         10
     6  Fe   0.000000
     7  Cl   2.182645   0.000000
     8  C    3.550477   4.001816   0.000000
     9  Cl   2.195585   3.725871   5.544019   0.000000
    10  Cl   2.197716   3.675514   3.667069   3.633997   0.000000
    11  H    5.367324   6.372041   3.475144   6.435829   5.988969
    12  H    4.573043   4.750559   1.099053   6.620717   4.469419
    13  H    3.360725   4.259022   1.090766   5.287985   2.903562
    14  H    3.027588   3.004294   1.093082   5.139199   3.479463
    15  H    5.081750   4.804420   2.731130   6.757381   6.066586
    16  H    3.743541   3.593712   2.823045   5.165328   5.217639
    17  H    5.126975   5.353079   3.482221   6.332273   6.362650
    18  C    5.279863   6.584866   3.069119   6.568906   5.038040
    19  H    6.227834   7.349484   3.541936   7.629487   5.894194
    20  H    5.690557   7.230952   4.030777   6.652950   5.447434
    21  H    4.825594   6.184263   2.741055   6.245296   4.201837
    22  C    3.376323   5.330174   3.845613   3.817539   3.639081
    23  H    4.460237   6.366296   4.457566   4.768163   4.603338
    24  H    3.280916   5.376706   4.677797   3.094933   3.679130
    25  H    3.218707   5.163947   3.409625   4.065449   2.858970
    26  C    4.098758   5.371780   4.347192   4.341501   5.416600
    27  H    4.119432   5.468409   5.160357   3.800477   5.609805
    28  H    5.020893   6.394213   4.850859   5.217511   6.072417
    29  H    4.362705   5.196819   4.308575   4.813081   5.892872
                   11         12         13         14         15
    11  H    0.000000
    12  H    3.901037   0.000000
    13  H    3.818626   1.766149   0.000000
    14  H    4.233135   1.762267   1.772917   0.000000
    15  H    3.377513   2.770129   3.793013   2.776910   0.000000
    16  H    3.463844   3.452342   3.687001   2.525767   1.759562
    17  H    2.327872   3.879078   4.319186   3.709158   1.769997
    18  C    2.200909   3.361343   2.822705   4.097424   4.434641
    19  H    2.628611   3.494841   3.423114   4.626146   4.626554
    20  H    2.496684   4.430420   3.679926   4.996806   5.305974
    21  H    3.107267   3.063039   2.147337   3.736856   4.742492
    22  C    3.455618   4.801101   3.380488   4.280923   5.387465
    23  H    3.249426   5.292550   4.015892   5.062804   5.807747
    24  H    4.429117   5.694486   4.184548   4.928279   6.189028
    25  H    3.844857   4.303182   2.688349   3.893033   5.446042
    26  C    2.718156   5.254521   4.538423   4.589798   4.417059
    27  H    3.807985   6.140607   5.269803   5.257011   5.302733
    28  H    2.423455   5.654729   4.978162   5.290155   4.899421
    29  H    2.742835   5.128285   4.750885   4.437787   3.740751
                   16         17         18         19         20
    16  H    0.000000
    17  H    1.790927   0.000000
    18  C    4.632195   4.118354   0.000000
    19  H    5.196817   4.480307   1.098633   0.000000
    20  H    5.313865   4.690453   1.095054   1.758630   0.000000
    21  H    4.839235   4.709906   1.092628   1.763446   1.772271
    22  C    4.472299   4.671267   3.089710   4.186506   2.895982
    23  H    5.081046   4.904341   2.856027   3.882565   2.298711
    24  H    5.042598   5.424722   4.181425   5.276252   3.909381
    25  H    4.703523   5.067374   2.881944   3.937761   2.884273
    26  C    3.280797   3.059279   4.014581   4.907399   3.965237
    27  H    3.941198   3.979189   4.958108   5.908275   4.806719
    28  H    4.070644   3.406485   3.779497   4.589728   3.500240
    29  H    2.594183   2.262106   4.426356   5.186200   4.571441
                   21         22         23         24         25
    21  H    0.000000
    22  C    2.998630   0.000000
    23  H    3.019748   1.089946   0.000000
    24  H    4.020943   1.100794   1.775484   0.000000
    25  H    2.414145   1.090246   1.798167   1.762598   0.000000
    26  C    4.475363   2.571741   2.753961   2.927273   3.490483
    27  H    5.314165   2.893266   3.154808   2.823108   3.890699
    28  H    4.428539   2.776975   2.512243   3.245049   3.736803
    29  H    4.947536   3.492629   3.740176   3.903230   4.278984
                   26         27         28         29
    26  C    0.000000
    27  H    1.100323   0.000000
    28  H    1.090946   1.776541   0.000000
    29  H    1.089438   1.765685   1.798193   0.000000
 Framework group  C1[X(C8H16Cl3FeO)]
 Deg. of freedom    81
                         Standard orientation:                         
 ---------------------------------------------------------------------
 Center     Atomic      Atomic             Coordinates (Angstroms)
 Number     Number       Type             X           Y           Z
 ---------------------------------------------------------------------
      1          8           0       -0.317418   -0.157852   -0.652088
      2          6           0       -1.146531   -1.113031   -0.569318
      3          6           0       -3.205194    0.036623    0.096036
      4          6           0       -2.350117    1.040972   -0.215074
      5          6           0       -2.295641    1.621512   -1.597632
      6         26           0        1.468428    0.083648    0.057599
      7         17           0        2.099817    1.985344   -0.807757
      8          6           0       -1.553089    1.787594    0.814495
      9         17           0        2.463460   -1.721158   -0.699488
     10         17           0        1.361121    0.088660    2.252688
     11          1           0       -3.825815   -0.355565   -0.708073
     12          1           0       -2.164085    2.621390    1.187838
     13          1           0       -1.266520    1.180067    1.673890
     14          1           0       -0.649652    2.222889    0.379583
     15          1           0       -2.596726    2.676247   -1.547747
     16          1           0       -1.272884    1.604271   -1.988621
     17          1           0       -2.968302    1.115523   -2.295385
     18          6           0       -3.592520   -0.407297    1.479825
     19          1           0       -4.514583    0.105302    1.786480
     20          1           0       -3.803601   -1.481047    1.520431
     21          1           0       -2.832055   -0.180097    2.230764
     22          6           0       -1.106898   -2.026928    0.616816
     23          1           0       -2.000202   -2.645988    0.699006
     24          1           0       -0.242894   -2.688083    0.449127
     25          1           0       -0.919414   -1.482546    1.542632
     26          6           0       -1.721931   -1.642716   -1.850565
     27          1           0       -0.951618   -2.314569   -2.257926
     28          1           0       -2.633853   -2.220834   -1.694547
     29          1           0       -1.880825   -0.847753   -2.578343
 ---------------------------------------------------------------------
 Rotational constants (GHZ):           0.5857972           0.3299457           0.3108913
   427 basis functions,  1056 primitive gaussians,   461 cartesian basis functions
    77 alpha electrons       72 beta electrons
       nuclear repulsion energy      1641.5719781402 Hartrees.
 NAtoms=   29 NActive=   29 NUniq=   29 SFac= 1.00D+00 NAtFMM=   60 NAOKFM=F Big=F
 Initial guess from the checkpoint file:  "checkpoint.chk"
 B after Tr=     0.000000    0.000000    0.000000
         Rot=    1.000000    0.000000    0.000000    0.000000 Ang=   0.00 deg.
 Initial guess <Sx>= 0.0000 <Sy>= 0.0000 <Sz>= 2.5000 <S**2>= 8.7628 S= 2.5021
 SCF Done:  E(UB3LYP) =  -3034.33335538     A.U. after   13 cycles
            NFock= 13  Conv=0.92D-08     -V/T= 2.0024
 <Sx>= 0.0000 <Sy>= 0.0000 <Sz>= 2.5000 <S**2>= 8.7621 S= 2.5020
 <L.S>= 0.000000000000E+00
 Annihilation of the first spin contaminant:
 S**2 before annihilation     8.7621,   after     8.7500
 1\1\GINC-HOLY7C04208\SP\UB3LYP\Jul-CC-pVDZ\C8H16Cl3Fe1O1(6)\EKWAN\11-F
 eb-2020\0\\#t pop=none jul-cc-pvdz guess=read ub3lyp\\theory_abbreviat
 ion b3lyp\\0,6\O,0,-0.317418,-0.157852,-0.652088\C,0,-1.146531,-1.1130
 31,-0.569318\C,0,-3.205194,0.036623,0.096036\C,0,-2.350117,1.040972,-0
 .215074\C,0,-2.295641,1.621512,-1.597632\Fe,0,1.468428,0.083648,0.0575
 99\Cl,0,2.099817,1.985344,-0.807757\C,0,-1.553089,1.787594,0.814495\Cl
 ,0,2.46346,-1.721158,-0.699488\Cl,0,1.361121,0.08866,2.252688\H,0,-3.8
 25815,-0.355565,-0.708073\H,0,-2.164085,2.62139,1.187838\H,0,-1.26652,
 1.180067,1.67389\H,0,-0.649652,2.222889,0.379583\H,0,-2.596726,2.67624
 7,-1.547747\H,0,-1.272884,1.604271,-1.988621\H,0,-2.968302,1.115523,-2
 .295385\C,0,-3.59252,-0.407297,1.479825\H,0,-4.514583,0.105302,1.78648
 \H,0,-3.803601,-1.481047,1.520431\H,0,-2.832055,-0.180097,2.230764\C,0
 ,-1.106898,-2.026928,0.616816\H,0,-2.000202,-2.645988,0.699006\H,0,-0.
 242894,-2.688083,0.449127\H,0,-0.919414,-1.482546,1.542632\C,0,-1.7219
 31,-1.642716,-1.850565\H,0,-0.951618,-2.314569,-2.257926\H,0,-2.633853
 ,-2.220834,-1.694547\H,0,-1.880825,-0.847753,-2.578343\\Version=ES64L-
 G16RevA.03\HF=-3034.3333554\S2=8.762103\S2-1=0.\S2A=8.750045\RMSD=9.21
 1e-09\PG=C01 [X(C8H16Cl3Fe1O1)]\\@


 YOU KNOW YOU'RE A TEACHER WHEN YOU SAY 2, WRITE 3, AND MEAN 4.
 -- RONALD ANSTROM, HIGH SCHOOL TEACHER, UNDERWOOD, N.D. 1974
 Job cpu time:       0 days  0 hours 55 minutes 33.7 seconds.
 Elapsed time:       0 days  0 hours 13 minutes 55.9 seconds.
 File lengths (MBytes):  RWF=    174 Int=      0 D2E=      0 Chk=     13 Scr=      1
 Normal termination of Gaussian 16 at Tue Feb 11 14:14:11 2020.
 Initial command:
 /n/sw/g16_nehalem/g16/l1.exe "/scratch/Gau-270324.inp" -scrdir="/scratch/"
 Entering Link 1 = /n/sw/g16_nehalem/g16/l1.exe PID=    273560.
  
 Copyright (c) 1988,1990,1992,1993,1995,1998,2003,2009,2016,
            Gaussian, Inc.  All Rights Reserved.
  
 This is part of the Gaussian(R) 16 program.  It is based on
 the Gaussian(R) 09 system (copyright 2009, Gaussian, Inc.),
 the Gaussian(R) 03 system (copyright 2003, Gaussian, Inc.),
 the Gaussian(R) 98 system (copyright 1998, Gaussian, Inc.),
 the Gaussian(R) 94 system (copyright 1995, Gaussian, Inc.),
 the Gaussian 92(TM) system (copyright 1992, Gaussian, Inc.),
 the Gaussian 90(TM) system (copyright 1990, Gaussian, Inc.),
 the Gaussian 88(TM) system (copyright 1988, Gaussian, Inc.),
 the Gaussian 86(TM) system (copyright 1986, Carnegie Mellon
 University), and the Gaussian 82(TM) system (copyright 1983,
 Carnegie Mellon University). Gaussian is a federally registered
 trademark of Gaussian, Inc.
  
 This software contains proprietary and confidential information,
 including trade secrets, belonging to Gaussian, Inc.
  
 This software is provided under written license and may be
 used, copied, transmitted, or stored only in accord with that
 written license.
  
 The following legend is applicable only to US Government
 contracts under FAR:
  
                    RESTRICTED RIGHTS LEGEND
  
 Use, reproduction and disclosure by the US Government is
 subject to restrictions as set forth in subparagraphs (a)
 and (c) of the Commercial Computer Software - Restricted
 Rights clause in FAR 52.227-19.
  
 Gaussian, Inc.
 340 Quinnipiac St., Bldg. 40, Wallingford CT 06492
  
  
 ---------------------------------------------------------------
 Warning -- This program may not be used in any manner that
 competes with the business of Gaussian, Inc. or will provide
 assistance to any competitor of Gaussian, Inc.  The licensee
 of this program is prohibited from giving any competitor of
 Gaussian, Inc. access to this program.  By using this program,
 the user acknowledges that Gaussian, Inc. is engaged in the
 business of creating and licensing software in the field of
 computational chemistry and represents and warrants to the
 licensee that it is not a competitor of Gaussian, Inc. and that
 it will not use this program in any manner prohibited above.
 ---------------------------------------------------------------
  

 Cite this work as:
 Gaussian 16, Revision A.03,
 M. J. Frisch, G. W. Trucks, H. B. Schlegel, G. E. Scuseria, 
 M. A. Robb, J. R. Cheeseman, G. Scalmani, V. Barone, 
 G. A. Petersson, H. Nakatsuji, X. Li, M. Caricato, A. V. Marenich, 
 J. Bloino, B. G. Janesko, R. Gomperts, B. Mennucci, H. P. Hratchian, 
 J. V. Ortiz, A. F. Izmaylov, J. L. Sonnenberg, D. Williams-Young, 
 F. Ding, F. Lipparini, F. Egidi, J. Goings, B. Peng, A. Petrone, 
 T. Henderson, D. Ranasinghe, V. G. Zakrzewski, J. Gao, N. Rega, 
 G. Zheng, W. Liang, M. Hada, M. Ehara, K. Toyota, R. Fukuda, 
 J. Hasegawa, M. Ishida, T. Nakajima, Y. Honda, O. Kitao, H. Nakai, 
 T. Vreven, K. Throssell, J. A. Montgomery, Jr., J. E. Peralta, 
 F. Ogliaro, M. J. Bearpark, J. J. Heyd, E. N. Brothers, K. N. Kudin, 
 V. N. Staroverov, T. A. Keith, R. Kobayashi, J. Normand, 
 K. Raghavachari, A. P. Rendell, J. C. Burant, S. S. Iyengar, 
 J. Tomasi, M. Cossi, J. M. Millam, M. Klene, C. Adamo, R. Cammi, 
 J. W. Ochterski, R. L. Martin, K. Morokuma, O. Farkas, 
 J. B. Foresman, and D. J. Fox, Gaussian, Inc., Wallingford CT, 2016.
 
 ******************************************
 Gaussian 16:  ES64L-G16RevA.03 25-Dec-2016
                11-Feb-2020 
 ******************************************
 %chk=checkpoint.chk
 %mem=3GB
 %nprocshared=4
 Will use up to    4 processors via shared memory.
 -------------------------------------------------------------------
 #t pop=none jul-cc-pvdz guess=read ub3lyp empiricaldispersion=gd3bj
 -------------------------------------------------------------------
 ------------------------------
 theory_abbreviation b3lyp_d3bj
 ------------------------------
 Symbolic Z-matrix:
 Charge =  0 Multiplicity = 6
 O                    -0.31742  -0.15785  -0.65209 
 C                    -1.14653  -1.11303  -0.56932 
 C                    -3.20519   0.03662   0.09604 
 C                    -2.35012   1.04097  -0.21507 
 C                    -2.29564   1.62151  -1.59763 
 Fe                    1.46843   0.08365   0.0576 
 Cl                    2.09982   1.98534  -0.80776 
 C                    -1.55309   1.78759   0.8145 
 Cl                    2.46346  -1.72116  -0.69949 
 Cl                    1.36112   0.08866   2.25269 
 H                    -3.82582  -0.35557  -0.70807 
 H                    -2.16409   2.62139   1.18784 
 H                    -1.26652   1.18007   1.67389 
 H                    -0.64965   2.22289   0.37958 
 H                    -2.59673   2.67625  -1.54775 
 H                    -1.27288   1.60427  -1.98862 
 H                    -2.9683    1.11552  -2.29539 
 C                    -3.59252  -0.4073    1.47983 
 H                    -4.51458   0.1053    1.78648 
 H                    -3.8036   -1.48105   1.52043 
 H                    -2.83206  -0.1801    2.23076 
 C                    -1.1069   -2.02693   0.61682 
 H                    -2.0002   -2.64599   0.69901 
 H                    -0.24289  -2.68808   0.44913 
 H                    -0.91941  -1.48255   1.54263 
 C                    -1.72193  -1.64272  -1.85057 
 H                    -0.95162  -2.31457  -2.25793 
 H                    -2.63385  -2.22083  -1.69455 
 H                    -1.88083  -0.84775  -2.57834 
 
                    Distance matrix (angstroms):
                    1          2          3          4          5
     1  O    0.000000
     2  C    1.267535   0.000000
     3  C    2.989441   2.449999   0.000000
     4  C    2.400005   2.492757   1.355235   0.000000
     5  C    2.823749   3.139364   2.491520   1.500487   0.000000
     6  Fe   1.936808   2.943310   4.674017   3.946151   4.390106
     7  Cl   3.234277   4.493947   5.723417   4.587486   4.480661
     8  C    2.731759   3.239422   2.512277   1.500903   2.529293
     9  Cl   3.190526   3.663168   5.988012   5.570866   5.884654
    10  Cl   3.363924   3.961830   5.050256   4.557415   5.526890
    11  H    3.514410   2.787754   1.088840   2.090705   2.653598
    12  H    3.810471   4.250754   2.992818   2.121436   2.962416
    13  H    2.846225   3.210090   2.748735   2.182135   3.457863
    14  H    2.615846   3.503664   3.375049   2.154559   2.642028
    15  H    3.745606   4.173610   3.168576   2.123902   1.098001
    16  H    2.409214   3.068243   3.246096   2.150164   1.095081
    17  H    3.368842   3.356279   2.634205   2.171498   1.093324
    18  C    3.915810   3.268013   1.503981   2.552201   3.907519
    19  H    4.861282   4.286945   2.139350   3.092994   4.321436
    20  H    4.315571   3.400369   2.165713   3.388978   4.649960
    21  H    3.825537   3.398796   2.177904   2.775860   4.264991
    22  C    2.393082   1.497896   2.988695   3.413158   4.430350
    23  H    3.293636   2.165031   3.001996   3.814663   4.855243
    24  H    2.760489   2.081965   4.040287   4.334444   5.193804
    25  H    2.633251   2.156028   3.102468   3.391841   4.624979
    26  C    2.369351   1.501081   2.968081   3.204938   3.323899
    27  H    2.762671   2.081606   4.018438   4.169976   4.211309
    28  H    3.272382   2.169215   2.937470   3.592871   3.858420
    29  H    2.575007   2.155398   3.112616   3.061463   2.689077
                    6          7          8          9         10
     6  Fe   0.000000
     7  Cl   2.182645   0.000000
     8  C    3.550477   4.001816   0.000000
     9  Cl   2.195585   3.725871   5.544019   0.000000
    10  Cl   2.197716   3.675514   3.667069   3.633997   0.000000
    11  H    5.367324   6.372041   3.475144   6.435829   5.988969
    12  H    4.573043   4.750559   1.099053   6.620717   4.469419
    13  H    3.360725   4.259022   1.090766   5.287985   2.903562
    14  H    3.027588   3.004294   1.093082   5.139199   3.479463
    15  H    5.081750   4.804420   2.731130   6.757381   6.066586
    16  H    3.743541   3.593712   2.823045   5.165328   5.217639
    17  H    5.126975   5.353079   3.482221   6.332273   6.362650
    18  C    5.279863   6.584866   3.069119   6.568906   5.038040
    19  H    6.227834   7.349484   3.541936   7.629487   5.894194
    20  H    5.690557   7.230952   4.030777   6.652950   5.447434
    21  H    4.825594   6.184263   2.741055   6.245296   4.201837
    22  C    3.376323   5.330174   3.845613   3.817539   3.639081
    23  H    4.460237   6.366296   4.457566   4.768163   4.603338
    24  H    3.280916   5.376706   4.677797   3.094933   3.679130
    25  H    3.218707   5.163947   3.409625   4.065449   2.858970
    26  C    4.098758   5.371780   4.347192   4.341501   5.416600
    27  H    4.119432   5.468409   5.160357   3.800477   5.609805
    28  H    5.020893   6.394213   4.850859   5.217511   6.072417
    29  H    4.362705   5.196819   4.308575   4.813081   5.892872
                   11         12         13         14         15
    11  H    0.000000
    12  H    3.901037   0.000000
    13  H    3.818626   1.766149   0.000000
    14  H    4.233135   1.762267   1.772917   0.000000
    15  H    3.377513   2.770129   3.793013   2.776910   0.000000
    16  H    3.463844   3.452342   3.687001   2.525767   1.759562
    17  H    2.327872   3.879078   4.319186   3.709158   1.769997
    18  C    2.200909   3.361343   2.822705   4.097424   4.434641
    19  H    2.628611   3.494841   3.423114   4.626146   4.626554
    20  H    2.496684   4.430420   3.679926   4.996806   5.305974
    21  H    3.107267   3.063039   2.147337   3.736856   4.742492
    22  C    3.455618   4.801101   3.380488   4.280923   5.387465
    23  H    3.249426   5.292550   4.015892   5.062804   5.807747
    24  H    4.429117   5.694486   4.184548   4.928279   6.189028
    25  H    3.844857   4.303182   2.688349   3.893033   5.446042
    26  C    2.718156   5.254521   4.538423   4.589798   4.417059
    27  H    3.807985   6.140607   5.269803   5.257011   5.302733
    28  H    2.423455   5.654729   4.978162   5.290155   4.899421
    29  H    2.742835   5.128285   4.750885   4.437787   3.740751
                   16         17         18         19         20
    16  H    0.000000
    17  H    1.790927   0.000000
    18  C    4.632195   4.118354   0.000000
    19  H    5.196817   4.480307   1.098633   0.000000
    20  H    5.313865   4.690453   1.095054   1.758630   0.000000
    21  H    4.839235   4.709906   1.092628   1.763446   1.772271
    22  C    4.472299   4.671267   3.089710   4.186506   2.895982
    23  H    5.081046   4.904341   2.856027   3.882565   2.298711
    24  H    5.042598   5.424722   4.181425   5.276252   3.909381
    25  H    4.703523   5.067374   2.881944   3.937761   2.884273
    26  C    3.280797   3.059279   4.014581   4.907399   3.965237
    27  H    3.941198   3.979189   4.958108   5.908275   4.806719
    28  H    4.070644   3.406485   3.779497   4.589728   3.500240
    29  H    2.594183   2.262106   4.426356   5.186200   4.571441
                   21         22         23         24         25
    21  H    0.000000
    22  C    2.998630   0.000000
    23  H    3.019748   1.089946   0.000000
    24  H    4.020943   1.100794   1.775484   0.000000
    25  H    2.414145   1.090246   1.798167   1.762598   0.000000
    26  C    4.475363   2.571741   2.753961   2.927273   3.490483
    27  H    5.314165   2.893266   3.154808   2.823108   3.890699
    28  H    4.428539   2.776975   2.512243   3.245049   3.736803
    29  H    4.947536   3.492629   3.740176   3.903230   4.278984
                   26         27         28         29
    26  C    0.000000
    27  H    1.100323   0.000000
    28  H    1.090946   1.776541   0.000000
    29  H    1.089438   1.765685   1.798193   0.000000
 Framework group  C1[X(C8H16Cl3FeO)]
 Deg. of freedom    81
                         Standard orientation:                         
 ---------------------------------------------------------------------
 Center     Atomic      Atomic             Coordinates (Angstroms)
 Number     Number       Type             X           Y           Z
 ---------------------------------------------------------------------
      1          8           0       -0.317418   -0.157852   -0.652088
      2          6           0       -1.146531   -1.113031   -0.569318
      3          6           0       -3.205194    0.036623    0.096036
      4          6           0       -2.350117    1.040972   -0.215074
      5          6           0       -2.295641    1.621512   -1.597632
      6         26           0        1.468428    0.083648    0.057599
      7         17           0        2.099817    1.985344   -0.807757
      8          6           0       -1.553089    1.787594    0.814495
      9         17           0        2.463460   -1.721158   -0.699488
     10         17           0        1.361121    0.088660    2.252688
     11          1           0       -3.825815   -0.355565   -0.708073
     12          1           0       -2.164085    2.621390    1.187838
     13          1           0       -1.266520    1.180067    1.673890
     14          1           0       -0.649652    2.222889    0.379583
     15          1           0       -2.596726    2.676247   -1.547747
     16          1           0       -1.272884    1.604271   -1.988621
     17          1           0       -2.968302    1.115523   -2.295385
     18          6           0       -3.592520   -0.407297    1.479825
     19          1           0       -4.514583    0.105302    1.786480
     20          1           0       -3.803601   -1.481047    1.520431
     21          1           0       -2.832055   -0.180097    2.230764
     22          6           0       -1.106898   -2.026928    0.616816
     23          1           0       -2.000202   -2.645988    0.699006
     24          1           0       -0.242894   -2.688083    0.449127
     25          1           0       -0.919414   -1.482546    1.542632
     26          6           0       -1.721931   -1.642716   -1.850565
     27          1           0       -0.951618   -2.314569   -2.257926
     28          1           0       -2.633853   -2.220834   -1.694547
     29          1           0       -1.880825   -0.847753   -2.578343
 ---------------------------------------------------------------------
 Rotational constants (GHZ):           0.5857972           0.3299457           0.3108913
   427 basis functions,  1056 primitive gaussians,   461 cartesian basis functions
    77 alpha electrons       72 beta electrons
       nuclear repulsion energy      1641.5719781402 Hartrees.
 NAtoms=   29 NActive=   29 NUniq=   29 SFac= 1.00D+00 NAtFMM=   60 NAOKFM=F Big=F
 Nuclear repulsion after empirical dispersion term =     1641.5019226816 Hartrees.
 Initial guess from the checkpoint file:  "checkpoint.chk"
 B after Tr=     0.000000    0.000000    0.000000
         Rot=    1.000000    0.000000    0.000000    0.000000 Ang=   0.00 deg.
 Initial guess <Sx>= 0.0000 <Sy>= 0.0000 <Sz>= 2.5000 <S**2>= 8.7621 S= 2.5020
 SCF Done:  E(UB3LYP) =  -3034.40341084     A.U. after    1 cycles
            NFock=  1  Conv=0.61D-08     -V/T= 2.0024
 <Sx>= 0.0000 <Sy>= 0.0000 <Sz>= 2.5000 <S**2>= 8.7621 S= 2.5020
 <L.S>= 0.000000000000E+00
 Annihilation of the first spin contaminant:
 S**2 before annihilation     8.7621,   after     8.7500
 1\1\GINC-HOLY7C04208\SP\UB3LYP\Jul-CC-pVDZ\C8H16Cl3Fe1O1(6)\EKWAN\11-F
 eb-2020\0\\#t pop=none jul-cc-pvdz guess=read ub3lyp empiricaldispersi
 on=gd3bj\\theory_abbreviation b3lyp_d3bj\\0,6\O,0,-0.317418,-0.157852,
 -0.652088\C,0,-1.146531,-1.113031,-0.569318\C,0,-3.205194,0.036623,0.0
 96036\C,0,-2.350117,1.040972,-0.215074\C,0,-2.295641,1.621512,-1.59763
 2\Fe,0,1.468428,0.083648,0.057599\Cl,0,2.099817,1.985344,-0.807757\C,0
 ,-1.553089,1.787594,0.814495\Cl,0,2.46346,-1.721158,-0.699488\Cl,0,1.3
 61121,0.08866,2.252688\H,0,-3.825815,-0.355565,-0.708073\H,0,-2.164085
 ,2.62139,1.187838\H,0,-1.26652,1.180067,1.67389\H,0,-0.649652,2.222889
 ,0.379583\H,0,-2.596726,2.676247,-1.547747\H,0,-1.272884,1.604271,-1.9
 88621\H,0,-2.968302,1.115523,-2.295385\C,0,-3.59252,-0.407297,1.479825
 \H,0,-4.514583,0.105302,1.78648\H,0,-3.803601,-1.481047,1.520431\H,0,-
 2.832055,-0.180097,2.230764\C,0,-1.106898,-2.026928,0.616816\H,0,-2.00
 0202,-2.645988,0.699006\H,0,-0.242894,-2.688083,0.449127\H,0,-0.919414
 ,-1.482546,1.542632\C,0,-1.721931,-1.642716,-1.850565\H,0,-0.951618,-2
 .314569,-2.257926\H,0,-2.633853,-2.220834,-1.694547\H,0,-1.880825,-0.8
 47753,-2.578343\\Version=ES64L-G16RevA.03\HF=-3034.4034108\S2=8.762103
 \S2-1=0.\S2A=8.750045\RMSD=6.124e-09\PG=C01 [X(C8H16Cl3Fe1O1)]\\@


 IN SO FAR AS QUANTUM MECHANICS IS CORRECT, CHEMICAL 
 QUESTIONS ARE PROBLEMS IN APPLIED MATHEMATICS.

                    -- EYRING, WALTER, & KIMBALL, 1944
 Job cpu time:       0 days  0 hours  4 minutes 39.7 seconds.
 Elapsed time:       0 days  0 hours  1 minutes 10.5 seconds.
 File lengths (MBytes):  RWF=    170 Int=      0 D2E=      0 Chk=     13 Scr=      1
 Normal termination of Gaussian 16 at Tue Feb 11 14:15:22 2020.
 Initial command:
 /n/sw/g16_nehalem/g16/l1.exe "/scratch/Gau-270324.inp" -scrdir="/scratch/"
 Entering Link 1 = /n/sw/g16_nehalem/g16/l1.exe PID=    273953.
  
 Copyright (c) 1988,1990,1992,1993,1995,1998,2003,2009,2016,
            Gaussian, Inc.  All Rights Reserved.
  
 This is part of the Gaussian(R) 16 program.  It is based on
 the Gaussian(R) 09 system (copyright 2009, Gaussian, Inc.),
 the Gaussian(R) 03 system (copyright 2003, Gaussian, Inc.),
 the Gaussian(R) 98 system (copyright 1998, Gaussian, Inc.),
 the Gaussian(R) 94 system (copyright 1995, Gaussian, Inc.),
 the Gaussian 92(TM) system (copyright 1992, Gaussian, Inc.),
 the Gaussian 90(TM) system (copyright 1990, Gaussian, Inc.),
 the Gaussian 88(TM) system (copyright 1988, Gaussian, Inc.),
 the Gaussian 86(TM) system (copyright 1986, Carnegie Mellon
 University), and the Gaussian 82(TM) system (copyright 1983,
 Carnegie Mellon University). Gaussian is a federally registered
 trademark of Gaussian, Inc.
  
 This software contains proprietary and confidential information,
 including trade secrets, belonging to Gaussian, Inc.
  
 This software is provided under written license and may be
 used, copied, transmitted, or stored only in accord with that
 written license.
  
 The following legend is applicable only to US Government
 contracts under FAR:
  
                    RESTRICTED RIGHTS LEGEND
  
 Use, reproduction and disclosure by the US Government is
 subject to restrictions as set forth in subparagraphs (a)
 and (c) of the Commercial Computer Software - Restricted
 Rights clause in FAR 52.227-19.
  
 Gaussian, Inc.
 340 Quinnipiac St., Bldg. 40, Wallingford CT 06492
  
  
 ---------------------------------------------------------------
 Warning -- This program may not be used in any manner that
 competes with the business of Gaussian, Inc. or will provide
 assistance to any competitor of Gaussian, Inc.  The licensee
 of this program is prohibited from giving any competitor of
 Gaussian, Inc. access to this program.  By using this program,
 the user acknowledges that Gaussian, Inc. is engaged in the
 business of creating and licensing software in the field of
 computational chemistry and represents and warrants to the
 licensee that it is not a competitor of Gaussian, Inc. and that
 it will not use this program in any manner prohibited above.
 ---------------------------------------------------------------
  

 Cite this work as:
 Gaussian 16, Revision A.03,
 M. J. Frisch, G. W. Trucks, H. B. Schlegel, G. E. Scuseria, 
 M. A. Robb, J. R. Cheeseman, G. Scalmani, V. Barone, 
 G. A. Petersson, H. Nakatsuji, X. Li, M. Caricato, A. V. Marenich, 
 J. Bloino, B. G. Janesko, R. Gomperts, B. Mennucci, H. P. Hratchian, 
 J. V. Ortiz, A. F. Izmaylov, J. L. Sonnenberg, D. Williams-Young, 
 F. Ding, F. Lipparini, F. Egidi, J. Goings, B. Peng, A. Petrone, 
 T. Henderson, D. Ranasinghe, V. G. Zakrzewski, J. Gao, N. Rega, 
 G. Zheng, W. Liang, M. Hada, M. Ehara, K. Toyota, R. Fukuda, 
 J. Hasegawa, M. Ishida, T. Nakajima, Y. Honda, O. Kitao, H. Nakai, 
 T. Vreven, K. Throssell, J. A. Montgomery, Jr., J. E. Peralta, 
 F. Ogliaro, M. J. Bearpark, J. J. Heyd, E. N. Brothers, K. N. Kudin, 
 V. N. Staroverov, T. A. Keith, R. Kobayashi, J. Normand, 
 K. Raghavachari, A. P. Rendell, J. C. Burant, S. S. Iyengar, 
 J. Tomasi, M. Cossi, J. M. Millam, M. Klene, C. Adamo, R. Cammi, 
 J. W. Ochterski, R. L. Martin, K. Morokuma, O. Farkas, 
 J. B. Foresman, and D. J. Fox, Gaussian, Inc., Wallingford CT, 2016.
 
 ******************************************
 Gaussian 16:  ES64L-G16RevA.03 25-Dec-2016
                11-Feb-2020 
 ******************************************
 %chk=checkpoint.chk
 %mem=3GB
 %nprocshared=4
 Will use up to    4 processors via shared memory.
 ----------------------------------------
 #t pop=none jul-cc-pvdz guess=read ub97d
 ----------------------------------------
 ------------------------
 theory_abbreviation b97d
 ------------------------
 Symbolic Z-matrix:
 Charge =  0 Multiplicity = 6
 O                    -0.31742  -0.15785  -0.65209 
 C                    -1.14653  -1.11303  -0.56932 
 C                    -3.20519   0.03662   0.09604 
 C                    -2.35012   1.04097  -0.21507 
 C                    -2.29564   1.62151  -1.59763 
 Fe                    1.46843   0.08365   0.0576 
 Cl                    2.09982   1.98534  -0.80776 
 C                    -1.55309   1.78759   0.8145 
 Cl                    2.46346  -1.72116  -0.69949 
 Cl                    1.36112   0.08866   2.25269 
 H                    -3.82582  -0.35557  -0.70807 
 H                    -2.16409   2.62139   1.18784 
 H                    -1.26652   1.18007   1.67389 
 H                    -0.64965   2.22289   0.37958 
 H                    -2.59673   2.67625  -1.54775 
 H                    -1.27288   1.60427  -1.98862 
 H                    -2.9683    1.11552  -2.29539 
 C                    -3.59252  -0.4073    1.47983 
 H                    -4.51458   0.1053    1.78648 
 H                    -3.8036   -1.48105   1.52043 
 H                    -2.83206  -0.1801    2.23076 
 C                    -1.1069   -2.02693   0.61682 
 H                    -2.0002   -2.64599   0.69901 
 H                    -0.24289  -2.68808   0.44913 
 H                    -0.91941  -1.48255   1.54263 
 C                    -1.72193  -1.64272  -1.85057 
 H                    -0.95162  -2.31457  -2.25793 
 H                    -2.63385  -2.22083  -1.69455 
 H                    -1.88083  -0.84775  -2.57834 
 
                    Distance matrix (angstroms):
                    1          2          3          4          5
     1  O    0.000000
     2  C    1.267535   0.000000
     3  C    2.989441   2.449999   0.000000
     4  C    2.400005   2.492757   1.355235   0.000000
     5  C    2.823749   3.139364   2.491520   1.500487   0.000000
     6  Fe   1.936808   2.943310   4.674017   3.946151   4.390106
     7  Cl   3.234277   4.493947   5.723417   4.587486   4.480661
     8  C    2.731759   3.239422   2.512277   1.500903   2.529293
     9  Cl   3.190526   3.663168   5.988012   5.570866   5.884654
    10  Cl   3.363924   3.961830   5.050256   4.557415   5.526890
    11  H    3.514410   2.787754   1.088840   2.090705   2.653598
    12  H    3.810471   4.250754   2.992818   2.121436   2.962416
    13  H    2.846225   3.210090   2.748735   2.182135   3.457863
    14  H    2.615846   3.503664   3.375049   2.154559   2.642028
    15  H    3.745606   4.173610   3.168576   2.123902   1.098001
    16  H    2.409214   3.068243   3.246096   2.150164   1.095081
    17  H    3.368842   3.356279   2.634205   2.171498   1.093324
    18  C    3.915810   3.268013   1.503981   2.552201   3.907519
    19  H    4.861282   4.286945   2.139350   3.092994   4.321436
    20  H    4.315571   3.400369   2.165713   3.388978   4.649960
    21  H    3.825537   3.398796   2.177904   2.775860   4.264991
    22  C    2.393082   1.497896   2.988695   3.413158   4.430350
    23  H    3.293636   2.165031   3.001996   3.814663   4.855243
    24  H    2.760489   2.081965   4.040287   4.334444   5.193804
    25  H    2.633251   2.156028   3.102468   3.391841   4.624979
    26  C    2.369351   1.501081   2.968081   3.204938   3.323899
    27  H    2.762671   2.081606   4.018438   4.169976   4.211309
    28  H    3.272382   2.169215   2.937470   3.592871   3.858420
    29  H    2.575007   2.155398   3.112616   3.061463   2.689077
                    6          7          8          9         10
     6  Fe   0.000000
     7  Cl   2.182645   0.000000
     8  C    3.550477   4.001816   0.000000
     9  Cl   2.195585   3.725871   5.544019   0.000000
    10  Cl   2.197716   3.675514   3.667069   3.633997   0.000000
    11  H    5.367324   6.372041   3.475144   6.435829   5.988969
    12  H    4.573043   4.750559   1.099053   6.620717   4.469419
    13  H    3.360725   4.259022   1.090766   5.287985   2.903562
    14  H    3.027588   3.004294   1.093082   5.139199   3.479463
    15  H    5.081750   4.804420   2.731130   6.757381   6.066586
    16  H    3.743541   3.593712   2.823045   5.165328   5.217639
    17  H    5.126975   5.353079   3.482221   6.332273   6.362650
    18  C    5.279863   6.584866   3.069119   6.568906   5.038040
    19  H    6.227834   7.349484   3.541936   7.629487   5.894194
    20  H    5.690557   7.230952   4.030777   6.652950   5.447434
    21  H    4.825594   6.184263   2.741055   6.245296   4.201837
    22  C    3.376323   5.330174   3.845613   3.817539   3.639081
    23  H    4.460237   6.366296   4.457566   4.768163   4.603338
    24  H    3.280916   5.376706   4.677797   3.094933   3.679130
    25  H    3.218707   5.163947   3.409625   4.065449   2.858970
    26  C    4.098758   5.371780   4.347192   4.341501   5.416600
    27  H    4.119432   5.468409   5.160357   3.800477   5.609805
    28  H    5.020893   6.394213   4.850859   5.217511   6.072417
    29  H    4.362705   5.196819   4.308575   4.813081   5.892872
                   11         12         13         14         15
    11  H    0.000000
    12  H    3.901037   0.000000
    13  H    3.818626   1.766149   0.000000
    14  H    4.233135   1.762267   1.772917   0.000000
    15  H    3.377513   2.770129   3.793013   2.776910   0.000000
    16  H    3.463844   3.452342   3.687001   2.525767   1.759562
    17  H    2.327872   3.879078   4.319186   3.709158   1.769997
    18  C    2.200909   3.361343   2.822705   4.097424   4.434641
    19  H    2.628611   3.494841   3.423114   4.626146   4.626554
    20  H    2.496684   4.430420   3.679926   4.996806   5.305974
    21  H    3.107267   3.063039   2.147337   3.736856   4.742492
    22  C    3.455618   4.801101   3.380488   4.280923   5.387465
    23  H    3.249426   5.292550   4.015892   5.062804   5.807747
    24  H    4.429117   5.694486   4.184548   4.928279   6.189028
    25  H    3.844857   4.303182   2.688349   3.893033   5.446042
    26  C    2.718156   5.254521   4.538423   4.589798   4.417059
    27  H    3.807985   6.140607   5.269803   5.257011   5.302733
    28  H    2.423455   5.654729   4.978162   5.290155   4.899421
[...]
   427 basis functions,  1056 primitive gaussians,   461 cartesian basis functions
    77 alpha electrons       72 beta electrons
       nuclear repulsion energy      1641.5719781402 Hartrees.
 NAtoms=   29 NActive=   29 NUniq=   29 SFac= 1.00D+00 NAtFMM=   60 NAOKFM=F Big=F
 Nuclear repulsion after empirical dispersion term =     1641.5695148596 Hartrees.
 Initial guess from the checkpoint file:  "checkpoint.chk"
 B after Tr=     0.000000    0.000000    0.000000
         Rot=    1.000000    0.000000    0.000000    0.000000 Ang=   0.00 deg.
 Initial guess <Sx>= 0.0000 <Sy>= 0.0000 <Sz>= 2.5000 <S**2>= 8.7618 S= 2.5020
 SCF Done:  E(UM06L) =  -3034.20276198     A.U. after   17 cycles
            NFock= 17  Conv=0.75D-08     -V/T= 2.0020
 <Sx>= 0.0000 <Sy>= 0.0000 <Sz>= 2.5000 <S**2>= 8.7617 S= 2.5020
 <L.S>= 0.000000000000E+00
 Annihilation of the first spin contaminant:
 S**2 before annihilation     8.7617,   after     8.7500
 1\1\GINC-HOLY7C04208\SP\UM06L\Jul-CC-pVDZ\C8H16Cl3Fe1O1(6)\EKWAN\11-Fe
 b-2020\0\\#t pop=none jul-cc-pvdz guess=read um06l empiricaldispersion
 =gd3\\theory_abbreviation m06l_d3\\0,6\O,0,-0.317418,-0.157852,-0.6520
 88\C,0,-1.146531,-1.113031,-0.569318\C,0,-3.205194,0.036623,0.096036\C
 ,0,-2.350117,1.040972,-0.215074\C,0,-2.295641,1.621512,-1.597632\Fe,0,
 1.468428,0.083648,0.057599\Cl,0,2.099817,1.985344,-0.807757\C,0,-1.553
 089,1.787594,0.814495\Cl,0,2.46346,-1.721158,-0.699488\Cl,0,1.361121,0
 .08866,2.252688\H,0,-3.825815,-0.355565,-0.708073\H,0,-2.164085,2.6213
 9,1.187838\H,0,-1.26652,1.180067,1.67389\H,0,-0.649652,2.222889,0.3795
 83\H,0,-2.596726,2.676247,-1.547747\H,0,-1.272884,1.604271,-1.988621\H
 ,0,-2.968302,1.115523,-2.295385\C,0,-3.59252,-0.407297,1.479825\H,0,-4
 .514583,0.105302,1.78648\H,0,-3.803601,-1.481047,1.520431\H,0,-2.83205
 5,-0.180097,2.230764\C,0,-1.106898,-2.026928,0.616816\H,0,-2.000202,-2
 .645988,0.699006\H,0,-0.242894,-2.688083,0.449127\H,0,-0.919414,-1.482
 546,1.542632\C,0,-1.721931,-1.642716,-1.850565\H,0,-0.951618,-2.314569
 ,-2.257926\H,0,-2.633853,-2.220834,-1.694547\H,0,-1.880825,-0.847753,-
 2.578343\\Version=ES64L-G16RevA.03\HF=-3034.202762\S2=8.761735\S2-1=0.
 \S2A=8.750044\RMSD=7.509e-09\PG=C01 [X(C8H16Cl3Fe1O1)]\\@


      SCIENCE SANS CONSCIENCE N'EST QUE RUINE DE L'AME.

                                                  -- RABELAIS
 Job cpu time:       0 days  1 hours 15 minutes 43.9 seconds.
 Elapsed time:       0 days  0 hours 18 minutes 59.3 seconds.
 File lengths (MBytes):  RWF=    174 Int=      0 D2E=      0 Chk=     13 Scr=      1
 Normal termination of Gaussian 16 at Tue Feb 11 23:13:26 2020.
 Initial command:
 /n/sw/g16_nehalem/g16/l1.exe "/scratch/Gau-270324.inp" -scrdir="/scratch/"
 Entering Link 1 = /n/sw/g16_nehalem/g16/l1.exe PID=    324782.
  
 Copyright (c) 1988,1990,1992,1993,1995,1998,2003,2009,2016,
            Gaussian, Inc.  All Rights Reserved.
  
 This is part of the Gaussian(R) 16 program.  It is based on
 the Gaussian(R) 09 system (copyright 2009, Gaussian, Inc.),
 the Gaussian(R) 03 system (copyright 2003, Gaussian, Inc.),
 the Gaussian(R) 98 system (copyright 1998, Gaussian, Inc.),
 the Gaussian(R) 94 system (copyright 1995, Gaussian, Inc.),
 the Gaussian 92(TM) system (copyright 1992, Gaussian, Inc.),
 the Gaussian 90(TM) system (copyright 1990, Gaussian, Inc.),
 the Gaussian 88(TM) system (copyright 1988, Gaussian, Inc.),
 the Gaussian 86(TM) system (copyright 1986, Carnegie Mellon
 University), and the Gaussian 82(TM) system (copyright 1983,
 Carnegie Mellon University). Gaussian is a federally registered
 trademark of Gaussian, Inc.
  
 This software contains proprietary and confidential information,
 including trade secrets, belonging to Gaussian, Inc.
  
 This software is provided under written license and may be
 used, copied, transmitted, or stored only in accord with that
 written license.
  
 The following legend is applicable only to US Government
 contracts under FAR:
  
                    RESTRICTED RIGHTS LEGEND
  
 Use, reproduction and disclosure by the US Government is
 subject to restrictions as set forth in subparagraphs (a)
 and (c) of the Commercial Computer Software - Restricted
 Rights clause in FAR 52.227-19.
  
 Gaussian, Inc.
 340 Quinnipiac St., Bldg. 40, Wallingford CT 06492
  
  
 ---------------------------------------------------------------
 Warning -- This program may not be used in any manner that
 competes with the business of Gaussian, Inc. or will provide
 assistance to any competitor of Gaussian, Inc.  The licensee
 of this program is prohibited from giving any competitor of
 Gaussian, Inc. access to this program.  By using this program,
 the user acknowledges that Gaussian, Inc. is engaged in the
 business of creating and licensing software in the field of
 computational chemistry and represents and warrants to the
 licensee that it is not a competitor of Gaussian, Inc. and that
 it will not use this program in any manner prohibited above.
 ---------------------------------------------------------------
  

 Cite this work as:
 Gaussian 16, Revision A.03,
 M. J. Frisch, G. W. Trucks, H. B. Schlegel, G. E. Scuseria, 
 M. A. Robb, J. R. Cheeseman, G. Scalmani, V. Barone, 
 G. A. Petersson, H. Nakatsuji, X. Li, M. Caricato, A. V. Marenich, 
 J. Bloino, B. G. Janesko, R. Gomperts, B. Mennucci, H. P. Hratchian, 
 J. V. Ortiz, A. F. Izmaylov, J. L. Sonnenberg, D. Williams-Young, 
 F. Ding, F. Lipparini, F. Egidi, J. Goings, B. Peng, A. Petrone, 
 T. Henderson, D. Ranasinghe, V. G. Zakrzewski, J. Gao, N. Rega, 
 G. Zheng, W. Liang, M. Hada, M. Ehara, K. Toyota, R. Fukuda, 
 J. Hasegawa, M. Ishida, T. Nakajima, Y. Honda, O. Kitao, H. Nakai, 
 T. Vreven, K. Throssell, J. A. Montgomery, Jr., J. E. Peralta, 
 F. Ogliaro, M. J. Bearpark, J. J. Heyd, E. N. Brothers, K. N. Kudin, 
 V. N. Staroverov, T. A. Keith, R. Kobayashi, J. Normand, 
 K. Raghavachari, A. P. Rendell, J. C. Burant, S. S. Iyengar, 
 J. Tomasi, M. Cossi, J. M. Millam, M. Klene, C. Adamo, R. Cammi, 
 J. W. Ochterski, R. L. Martin, K. Morokuma, O. Farkas, 
 J. B. Foresman, and D. J. Fox, Gaussian, Inc., Wallingford CT, 2016.
 
 ******************************************
 Gaussian 16:  ES64L-G16RevA.03 25-Dec-2016
                11-Feb-2020 
 ******************************************
 %chk=checkpoint.chk
 %mem=3GB
 %nprocshared=4
 Will use up to    4 processors via shared memory.
 -------------------------------------------------------------------
 #t pop=none jul-cc-pvdz guess=read ub97d3 empiricaldispersion=gd3bj
 -------------------------------------------------------------------
 ------------------------------
 theory_abbreviation b97d3_d3bj
 ------------------------------
 Symbolic Z-matrix:
 Charge =  0 Multiplicity = 6
 O                    -0.31742  -0.15785  -0.65209 
 C                    -1.14653  -1.11303  -0.56932 
 C                    -3.20519   0.03662   0.09604 
 C                    -2.35012   1.04097  -0.21507 
 C                    -2.29564   1.62151  -1.59763 
 Fe                    1.46843   0.08365   0.0576 
 Cl                    2.09982   1.98534  -0.80776 
 C                    -1.55309   1.78759   0.8145 
 Cl                    2.46346  -1.72116  -0.69949 
 Cl                    1.36112   0.08866   2.25269 
 H                    -3.82582  -0.35557  -0.70807 
 H                    -2.16409   2.62139   1.18784 
 H                    -1.26652   1.18007   1.67389 
 H                    -0.64965   2.22289   0.37958 
 H                    -2.59673   2.67625  -1.54775 
 H                    -1.27288   1.60427  -1.98862 
 H                    -2.9683    1.11552  -2.29539 
 C                    -3.59252  -0.4073    1.47983 
 H                    -4.51458   0.1053    1.78648 
 H                    -3.8036   -1.48105   1.52043 
 H                    -2.83206  -0.1801    2.23076 
 C                    -1.1069   -2.02693   0.61682 
 H                    -2.0002   -2.64599   0.69901 
 H                    -0.24289  -2.68808   0.44913 
 H                    -0.91941  -1.48255   1.54263 
 C                    -1.72193  -1.64272  -1.85057 
 H                    -0.95162  -2.31457  -2.25793 
 H                    -2.63385  -2.22083  -1.69455 
 H                    -1.88083  -0.84775  -2.57834 
 
                    Distance matrix (angstroms):
                    1          2          3          4          5
     1  O    0.000000
     2  C    1.267535   0.000000
     3  C    2.989441   2.449999   0.000000
     4  C    2.400005   2.492757   1.355235   0.000000
     5  C    2.823749   3.139364   2.491520   1.500487   0.000000
     6  Fe   1.936808   2.943310   4.674017   3.946151   4.390106
     7  Cl   3.234277   4.493947   5.723417   4.587486   4.480661
     8  C    2.731759   3.239422   2.512277   1.500903   2.529293
     9  Cl   3.190526   3.663168   5.988012   5.570866   5.884654
    10  Cl   3.363924   3.961830   5.050256   4.557415   5.526890
    11  H    3.514410   2.787754   1.088840   2.090705   2.653598
    12  H    3.810471   4.250754   2.992818   2.121436   2.962416
    13  H    2.846225   3.210090   2.748735   2.182135   3.457863
    14  H    2.615846   3.503664   3.375049   2.154559   2.642028
    15  H    3.745606   4.173610   3.168576   2.123902   1.098001
    16  H    2.409214   3.068243   3.246096   2.150164   1.095081
    17  H    3.368842   3.356279   2.634205   2.171498   1.093324
    18  C    3.915810   3.268013   1.503981   2.552201   3.907519
    19  H    4.861282   4.286945   2.139350   3.092994   4.321436
    20  H    4.315571   3.400369   2.165713   3.388978   4.649960
    21  H    3.825537   3.398796   2.177904   2.775860   4.264991
    22  C    2.393082   1.497896   2.988695   3.413158   4.430350
    23  H    3.293636   2.165031   3.001996   3.814663   4.855243
    24  H    2.760489   2.081965   4.040287   4.334444   5.193804
    25  H    2.633251   2.156028   3.102468   3.391841   4.624979
    26  C    2.369351   1.501081   2.968081   3.204938   3.323899
    27  H    2.762671   2.081606   4.018438   4.169976   4.211309
    28  H    3.272382   2.169215   2.937470   3.592871   3.858420
    29  H    2.575007   2.155398   3.112616   3.061463   2.689077
                    6          7          8          9         10
     6  Fe   0.000000
     7  Cl   2.182645   0.000000
     8  C    3.550477   4.001816   0.000000
     9  Cl   2.195585   3.725871   5.544019   0.000000
    10  Cl   2.197716   3.675514   3.667069   3.633997   0.000000
    11  H    5.367324   6.372041   3.475144   6.435829   5.988969
    12  H    4.573043   4.750559   1.099053   6.620717   4.469419
    13  H    3.360725   4.259022   1.090766   5.287985   2.903562
    14  H    3.027588   3.004294   1.093082   5.139199   3.479463
    15  H    5.081750   4.804420   2.731130   6.757381   6.066586
    16  H    3.743541   3.593712   2.823045   5.165328   5.217639
    17  H    5.126975   5.353079   3.482221   6.332273   6.362650
    18  C    5.279863   6.584866   3.069119   6.568906   5.038040
    19  H    6.227834   7.349484   3.541936   7.629487   5.894194
    20  H    5.690557   7.230952   4.030777   6.652950   5.447434
    21  H    4.825594   6.184263   2.741055   6.245296   4.201837
    22  C    3.376323   5.330174   3.845613   3.817539   3.639081
    23  H    4.460237   6.366296   4.457566   4.768163   4.603338
    24  H    3.280916   5.376706   4.677797   3.094933   3.679130
    25  H    3.218707   5.163947   3.409625   4.065449   2.858970
    26  C    4.098758   5.371780   4.347192   4.341501   5.416600
    27  H    4.119432   5.468409   5.160357   3.800477   5.609805
    28  H    5.020893   6.394213   4.850859   5.217511   6.072417
    29  H    4.362705   5.196819   4.308575   4.813081   5.892872
                   11         12         13         14         15
    11  H    0.000000
    12  H    3.901037   0.000000
    13  H    3.818626   1.766149   0.000000
    14  H    4.233135   1.762267   1.772917   0.000000
    15  H    3.377513   2.770129   3.793013   2.776910   0.000000
    16  H    3.463844   3.452342   3.687001   2.525767   1.759562
    17  H    2.327872   3.879078   4.319186   3.709158   1.769997
    18  C    2.200909   3.361343   2.822705   4.097424   4.434641
    19  H    2.628611   3.494841   3.423114   4.626146   4.626554
    20  H    2.496684   4.430420   3.679926   4.996806   5.305974
    21  H    3.107267   3.063039   2.147337   3.736856   4.742492
    22  C    3.455618   4.801101   3.380488   4.280923   5.387465
    23  H    3.249426   5.292550   4.015892   5.062804   5.807747
    24  H    4.429117   5.694486   4.184548   4.928279   6.189028
    25  H    3.844857   4.303182   2.688349   3.893033   5.446042
    26  C    2.718156   5.254521   4.538423   4.589798   4.417059
    27  H    3.807985   6.140607   5.269803   5.257011   5.302733
    28  H    2.423455   5.654729   4.978162   5.290155   4.899421
    29  H    2.742835   5.128285   4.750885   4.437787   3.740751
                   16         17         18         19         20
    16  H    0.000000
    17  H    1.790927   0.000000
    18  C    4.632195   4.118354   0.000000
    19  H    5.196817   4.480307   1.098633   0.000000
    20  H    5.313865   4.690453   1.095054   1.758630   0.000000
    21  H    4.839235   4.709906   1.092628   1.763446   1.772271
    22  C    4.472299   4.671267   3.089710   4.186506   2.895982
    23  H    5.081046   4.904341   2.856027   3.882565   2.298711
    24  H    5.042598   5.424722   4.181425   5.276252   3.909381
    25  H    4.703523   5.067374   2.881944   3.937761   2.884273
    26  C    3.280797   3.059279   4.014581   4.907399   3.965237
    27  H    3.941198   3.979189   4.958108   5.908275   4.806719
    28  H    4.070644   3.406485   3.779497   4.589728   3.500240
    29  H    2.594183   2.262106   4.426356   5.186200   4.571441
                   21         22         23         24         25
    21  H    0.000000
    22  C    2.998630   0.000000
    23  H    3.019748   1.089946   0.000000
    24  H    4.020943   1.100794   1.775484   0.000000
    25  H    2.414145   1.090246   1.798167   1.762598   0.000000
    26  C    4.475363   2.571741   2.753961   2.927273   3.490483
    27  H    5.314165   2.893266   3.154808   2.823108   3.890699
    28  H    4.428539   2.776975   2.512243   3.245049   3.736803
    29  H    4.947536   3.492629   3.740176   3.903230   4.278984
                   26         27         28         29
    26  C    0.000000
    27  H    1.100323   0.000000
    28  H    1.090946   1.776541   0.000000
    29  H    1.089438   1.765685   1.798193   0.000000
 Framework group  C1[X(C8H16Cl3FeO)]
 Deg. of freedom    81
                         Standard orientation:                         
 ---------------------------------------------------------------------
 Center     Atomic      Atomic             Coordinates (Angstroms)
 Number     Number       Type             X           Y           Z
 ---------------------------------------------------------------------
      1          8           0       -0.317418   -0.157852   -0.652088
      2          6           0       -1.146531   -1.113031   -0.569318
      3          6           0       -3.205194    0.036623    0.096036
      4          6           0       -2.350117    1.040972   -0.215074
      5          6           0       -2.295641    1.621512   -1.597632
      6         26           0        1.468428    0.083648    0.057599
      7         17           0        2.099817    1.985344   -0.807757
      8          6           0       -1.553089    1.787594    0.814495
      9         17           0        2.463460   -1.721158   -0.699488
     10         17           0        1.361121    0.088660    2.252688
     11          1           0       -3.825815   -0.355565   -0.708073
     12          1           0       -2.164085    2.621390    1.187838
     13          1           0       -1.266520    1.180067    1.673890
     14          1           0       -0.649652    2.222889    0.379583
     15          1           0       -2.596726    2.676247   -1.547747
     16          1           0       -1.272884    1.604271   -1.988621
     17          1           0       -2.968302    1.115523   -2.295385
     18          6           0       -3.592520   -0.407297    1.479825
     19          1           0       -4.514583    0.105302    1.786480
     20          1           0       -3.803601   -1.481047    1.520431
     21          1           0       -2.832055   -0.180097    2.230764
     22          6           0       -1.106898   -2.026928    0.616816
     23          1           0       -2.000202   -2.645988    0.699006
     24          1           0       -0.242894   -2.688083    0.449127
     25          1           0       -0.919414   -1.482546    1.542632
     26          6           0       -1.721931   -1.642716   -1.850565
     27          1           0       -0.951618   -2.314569   -2.257926
     28          1           0       -2.633853   -2.220834   -1.694547
     29          1           0       -1.880825   -0.847753   -2.578343
 ---------------------------------------------------------------------
 Rotational constants (GHZ):           0.5857972           0.3299457           0.3108913
   427 basis functions,  1056 primitive gaussians,   461 cartesian basis functions
    77 alpha electrons       72 beta electrons
       nuclear repulsion energy      1641.5719781402 Hartrees.
 NAtoms=   29 NActive=   29 NUniq=   29 SFac= 1.00D+00 NAtFMM=   60 NAOKFM=F Big=F
 Nuclear repulsion after empirical dispersion term =     1641.4692576067 Hartrees.
 Initial guess from the checkpoint file:  "checkpoint.chk"
 B after Tr=     0.000000    0.000000    0.000000
         Rot=    1.000000    0.000000    0.000000    0.000000 Ang=   0.00 deg.
 Initial guess <Sx>= 0.0000 <Sy>= 0.0000 <Sz>= 2.5000 <S**2>= 8.7617 S= 2.5020
 EnCoef did     1 forward-backward iterations
 SCF Done:  E(UB97D3) =  -3034.62344710     A.U. after   17 cycles
            NFock= 17  Conv=0.48D-08     -V/T= 2.0019
 <Sx>= 0.0000 <Sy>= 0.0000 <Sz>= 2.5000 <S**2>= 8.7598 S= 2.5016
 <L.S>= 0.000000000000E+00
 Annihilation of the first spin contaminant:
 S**2 before annihilation     8.7598,   after     8.7500
 1\1\GINC-HOLY7C04208\SP\UB97D3\Jul-CC-pVDZ\C8H16Cl3Fe1O1(6)\EKWAN\11-F
 eb-2020\0\\#t pop=none jul-cc-pvdz guess=read ub97d3 empiricaldispersi
 on=gd3bj\\theory_abbreviation b97d3_d3bj\\0,6\O,0,-0.317418,-0.157852,
 -0.652088\C,0,-1.146531,-1.113031,-0.569318\C,0,-3.205194,0.036623,0.0
 96036\C,0,-2.350117,1.040972,-0.215074\C,0,-2.295641,1.621512,-1.59763
 2\Fe,0,1.468428,0.083648,0.057599\Cl,0,2.099817,1.985344,-0.807757\C,0
 ,-1.553089,1.787594,0.814495\Cl,0,2.46346,-1.721158,-0.699488\Cl,0,1.3
 61121,0.08866,2.252688\H,0,-3.825815,-0.355565,-0.708073\H,0,-2.164085
 ,2.62139,1.187838\H,0,-1.26652,1.180067,1.67389\H,0,-0.649652,2.222889
 ,0.379583\H,0,-2.596726,2.676247,-1.547747\H,0,-1.272884,1.604271,-1.9
 88621\H,0,-2.968302,1.115523,-2.295385\C,0,-3.59252,-0.407297,1.479825
 \H,0,-4.514583,0.105302,1.78648\H,0,-3.803601,-1.481047,1.520431\H,0,-
 2.832055,-0.180097,2.230764\C,0,-1.106898,-2.026928,0.616816\H,0,-2.00
 0202,-2.645988,0.699006\H,0,-0.242894,-2.688083,0.449127\H,0,-0.919414
 ,-1.482546,1.542632\C,0,-1.721931,-1.642716,-1.850565\H,0,-0.951618,-2
 .314569,-2.257926\H,0,-2.633853,-2.220834,-1.694547\H,0,-1.880825,-0.8
 47753,-2.578343\\Version=ES64L-G16RevA.03\HF=-3034.6234471\S2=8.759801
 \S2-1=0.\S2A=8.75003\RMSD=4.841e-09\PG=C01 [X(C8H16Cl3Fe1O1)]\\@


 A MAN SHOULD NEVER BE ASHAMED TO OWN HE HAS BEEN IN THE WRONG
 WHICH IS BUT SAYING IN OTHER WORDS,
 THAT HE IS WISER TODAY THAN HE WAS YESTERDAY.

                          -- JONATHAN SWIFT
 Job cpu time:       0 days  0 hours 54 minutes 29.1 seconds.
 Elapsed time:       0 days  0 hours 13 minutes 39.8 seconds.
 File lengths (MBytes):  RWF=    174 Int=      0 D2E=      0 Chk=     13 Scr=      1
 Normal termination of Gaussian 16 at Tue Feb 11 23:27:07 2020.
