 Entering Gaussian System, Link 0=g16
 Input=simple-grid-170-295-b3lyp_d3bj-631gd-gas-singlepoint-DFT-juldz2-gas.gjf
 Output=simple-grid-170-295-b3lyp_d3bj-631gd-gas-singlepoint-DFT-juldz2-gas.out
 Initial command:
 /n/sw/g16_nehalem/g16/l1.exe "/scratch/Gau-5801.inp" -scrdir="/scratch/"
 Entering Link 1 = /n/sw/g16_nehalem/g16/l1.exe PID=      5818.
  
 Copyright (c) 1988,1990,1992,1993,1995,1998,2003,2009,2016,
            Gaussian, Inc.  All Rights Reserved.
  
 This is part of the Gaussian(R) 16 program.  It is based on
 the Gaussian(R) 09 system (copyright 2009, Gaussian, Inc.),
 the Gaussian(R) 03 system (copyright 2003, Gaussian, Inc.),
 the Gaussian(R) 98 system (copyright 1998, Gaussian, Inc.),
 the Gaussian(R) 94 system (copyright 1995, Gaussian, Inc.),
 the Gaussian 92(TM) system (copyright 1992, Gaussian, Inc.),
 the Gaussian 90(TM) system (copyright 1990, Gaussian, Inc.),
 the Gaussian 88(TM) system (copyright 1988, Gaussian, Inc.),
 the Gaussian 86(TM) system (copyright 1986, Carnegie Mellon
 University), and the Gaussian 82(TM) system (copyright 1983,
 Carnegie Mellon University). Gaussian is a federally registered
 trademark of Gaussian, Inc.
  
 This software contains proprietary and confidential information,
 including trade secrets, belonging to Gaussian, Inc.
  
 This software is provided under written license and may be
 used, copied, transmitted, or stored only in accord with that
 written license.
  
 The following legend is applicable only to US Government
 contracts under FAR:
  
                    RESTRICTED RIGHTS LEGEND
  
 Use, reproduction and disclosure by the US Government is
 subject to restrictions as set forth in subparagraphs (a)
 and (c) of the Commercial Computer Software - Restricted
 Rights clause in FAR 52.227-19.
  
 Gaussian, Inc.
 340 Quinnipiac St., Bldg. 40, Wallingford CT 06492
  
  
 ---------------------------------------------------------------
 Warning -- This program may not be used in any manner that
 competes with the business of Gaussian, Inc. or will provide
 assistance to any competitor of Gaussian, Inc.  The licensee
 of this program is prohibited from giving any competitor of
 Gaussian, Inc. access to this program.  By using this program,
 the user acknowledges that Gaussian, Inc. is engaged in the
 business of creating and licensing software in the field of
 computational chemistry and represents and warrants to the
 licensee that it is not a competitor of Gaussian, Inc. and that
 it will not use this program in any manner prohibited above.
 ---------------------------------------------------------------
  

 Cite this work as:
 Gaussian 16, Revision A.03,
 M. J. Frisch, G. W. Trucks, H. B. Schlegel, G. E. Scuseria, 
 M. A. Robb, J. R. Cheeseman, G. Scalmani, V. Barone, 
 G. A. Petersson, H. Nakatsuji, X. Li, M. Caricato, A. V. Marenich, 
 J. Bloino, B. G. Janesko, R. Gomperts, B. Mennucci, H. P. Hratchian, 
 J. V. Ortiz, A. F. Izmaylov, J. L. Sonnenberg, D. Williams-Young, 
 F. Ding, F. Lipparini, F. Egidi, J. Goings, B. Peng, A. Petrone, 
 T. Henderson, D. Ranasinghe, V. G. Zakrzewski, J. Gao, N. Rega, 
 G. Zheng, W. Liang, M. Hada, M. Ehara, K. Toyota, R. Fukuda, 
 J. Hasegawa, M. Ishida, T. Nakajima, Y. Honda, O. Kitao, H. Nakai, 
 T. Vreven, K. Throssell, J. A. Montgomery, Jr., J. E. Peralta, 
 F. Ogliaro, M. J. Bearpark, J. J. Heyd, E. N. Brothers, K. N. Kudin, 
 V. N. Staroverov, T. A. Keith, R. Kobayashi, J. Normand, 
 K. Raghavachari, A. P. Rendell, J. C. Burant, S. S. Iyengar, 
 J. Tomasi, M. Cossi, J. M. Millam, M. Klene, C. Adamo, R. Cammi, 
 J. W. Ochterski, R. L. Martin, K. Morokuma, O. Farkas, 
 J. B. Foresman, and D. J. Fox, Gaussian, Inc., Wallingford CT, 2016.
 
 ******************************************
 Gaussian 16:  ES64L-G16RevA.03 25-Dec-2016
                11-Feb-2020 
 ******************************************
 %chk=checkpoint.chk
 %mem=3GB
 %nprocshared=4
 Will use up to    4 processors via shared memory.
 --------------------------------
 #t pop=none jul-cc-pvdz upbe1pbe
 --------------------------------
 ------------------------
 theory_abbreviation pbe0
 ------------------------
 Symbolic Z-matrix:
 Charge =  0 Multiplicity = 6
 O                    -0.26088  -0.36104  -0.60076 
 C                    -1.30766  -1.14301  -0.267 
 C                    -2.32653  -0.30088   0.80198 
 C                    -2.94915   0.70237  -0.01351 
 C                    -4.306     0.50702  -0.57742 
 Fe                    1.47956   0.12531  -0.1029 
 Cl                    2.77594  -0.40303  -1.7912 
 C                    -2.17209   1.87025  -0.41847 
 Cl                    2.06965  -0.88713   1.76986 
 Cl                    1.30801   2.31899   0.23703 
 H                    -3.05435  -1.05452   1.11373 
 H                    -2.69223   2.54528  -1.09903 
 H                    -1.74037   2.41623   0.42751 
 H                    -1.26108   1.4366   -0.89638 
 H                    -4.96975   1.22939  -0.07472 
 H                    -4.33811   0.76299  -1.64304 
 H                    -4.70333  -0.4955   -0.41182 
 C                    -1.50156   0.219     1.98727 
 H                    -2.14272   0.80464   2.65401 
 H                    -1.08796  -0.60943   2.56197 
 H                    -0.67329   0.84877   1.66348 
 C                    -0.90395  -2.40087   0.52621 
 H                    -1.78059  -2.98414   0.8229 
 H                    -0.28741  -3.01139  -0.14146 
 H                    -0.29986  -2.16218   1.39992 
 C                    -2.07289  -1.55292  -1.53484 
 H                    -1.42723  -2.21725  -2.11602 
 H                    -3.00094  -2.08759  -1.30626 
 H                    -2.29446  -0.68744  -2.16535 
 
                    Distance matrix (angstroms):
                    1          2          3          4          5
     1  O    0.000000
     2  C    1.348567   0.000000
     3  C    2.497645   1.700000   0.000000
     4  C    2.950004   2.482775   1.434985   0.000000
     5  C    4.137279   3.436422   2.544350   1.482286   0.000000
     6  Fe   1.874433   3.066617   3.935325   4.467043   5.817518
     7  Cl   3.262075   4.421141   5.724526   6.095796   7.242598
     8  C    2.943575   3.138462   2.495428   1.460060   2.537167
     9  Cl   3.365701   3.952274   4.539482   5.558353   6.935576
    10  Cl   3.216491   4.368203   4.515838   4.560670   5.955138
    11  H    3.350204   2.228263   1.093103   2.090067   2.620116
    12  H    3.821837   4.026514   3.442125   2.154232   2.651575
    13  H    3.310506   3.652094   2.804733   2.143133   3.352229
    14  H    2.078289   2.655687   2.653012   2.041610   3.199594
    15  H    4.997969   4.367629   3.177569   2.089096   1.102310
    16  H    4.355873   3.835358   3.340118   2.142017   1.096407
    17  H    4.448499   3.459884   2.675878   2.161165   1.091023
    18  C    2.928070   2.640902   1.534847   2.516403   3.811224
    19  H    3.936199   3.608733   2.164711   2.788631   3.900057
    20  H    3.278510   2.887222   2.174133   3.437730   4.632280
    21  H    2.600097   2.845413   2.190227   2.830775   4.281935
    22  C    2.417545   1.540902   2.551426   3.755563   4.609531
    23  H    3.349185   2.191193   2.738320   3.956700   4.530651
    24  H    2.689988   2.132489   3.520647   4.570910   5.358947
    25  H    2.692280   2.198407   2.815918   4.149963   5.204196
    26  C    2.361467   1.536570   2.663209   2.858076   3.185400
    27  H    2.664946   2.141768   3.604987   3.906524   4.251615
    28  H    3.314613   2.199882   2.844609   3.075338   2.994392
    29  H    2.586493   2.187480   2.992577   2.643974   2.827467
                    6          7          8          9         10
     6  Fe   0.000000
     7  Cl   2.193190   0.000000
     8  C    4.059428   5.615622   0.000000
     9  Cl   2.209183   3.662558   5.512196   0.000000
    10  Cl   2.226475   3.698365   3.569619   3.634394   0.000000
    11  H    4.840299   6.546390   3.417644   5.168546   5.583845
    12  H    4.924665   6.250796   1.090585   6.533564   4.223531
    13  H    3.987175   5.767834   1.095518   5.218267   3.055872
    14  H    3.140089   4.525748   1.116430   4.858220   2.943376
    15  H    6.543194   8.099801   2.890634   7.578609   6.379245
    16  H    6.051769   7.210492   2.723460   7.445143   6.150975
    17  H    6.221646   7.605956   3.464672   7.126449   6.669221
    18  C    3.642066   5.741139   2.993962   3.744904   3.920073
    19  H    4.602499   6.738811   3.252155   4.624704   4.476900
    20  H    3.772737   5.824291   4.025817   3.267266   4.440906
    21  H    2.877200   5.039743   2.761219   3.247830   2.849887
    22  C    3.529657   4.785735   4.554462   3.560950   5.220484
    23  H    4.599392   5.852998   5.025878   4.485371   6.164893
    24  H    3.600355   4.348476   5.240153   3.704234   5.576875
    25  H    3.264574   4.768476   4.803368   2.716098   4.900862
    26  C    4.181727   4.989901   3.601981   5.340881   5.437072
    27  H    4.241421   4.589499   4.488227   5.394206   5.796193
    28  H    5.140022   6.036983   4.140008   6.050987   6.353479
    29  H    4.376920   5.092124   3.099736   5.879726   5.271414
                   11         12         13         14         15
    11  H    0.000000
    12  H    4.240993   0.000000
    13  H    3.774066   1.803616   0.000000
    14  H    3.669066   1.821659   1.715255   0.000000
    15  H    3.208962   2.822749   3.477037   3.804254   0.000000
    16  H    3.542763   2.486248   3.710615   3.237186   1.753886
    17  H    2.314936   3.709867   4.238134   3.977043   1.777595
    18  C    2.189991   4.044075   2.705128   3.139399   4.159455
    19  H    2.580696   4.173385   2.777848   3.712410   3.952024
    20  H    2.482380   5.092041   3.759817   4.021995   5.040018
    21  H    3.097447   3.819127   2.263449   2.691457   4.650355
    22  C    2.604241   5.504890   4.890180   4.108223   5.483676
    23  H    2.330340   5.924481   5.414982   4.771667   5.360070
    24  H    3.613969   6.129983   5.647468   4.615467   6.317673
    25  H    2.982621   5.841955   4.897198   4.375865   5.956950
    26  C    2.868202   4.167587   4.440225   3.162896   4.273755
    27  H    3.798778   5.031518   5.294975   3.855609   5.347490
    28  H    2.631805   4.647767   4.987926   3.951583   4.049103
    29  H    3.385936   3.427204   4.082000   2.681357   3.898995
                   16         17         18         19         20
    16  H    0.000000
    17  H    1.798077   0.000000
    18  C    4.639081   4.064162   0.000000
    19  H    4.825567   4.200754   1.094814   0.000000
    20  H    5.489005   4.682661   1.089793   1.766522   0.000000
    21  H    4.936733   4.728118   1.089717   1.772662   1.762270
    22  C    5.148704   4.352658   3.058685   4.041958   2.717990
    23  H    5.163604   4.032404   3.419606   4.223620   3.023800
    24  H    5.736625   5.089511   4.054752   5.081230   3.703892
    25  H    5.841552   5.044875   2.731131   3.710920   2.093442
    26  C    3.241351   3.049343   3.983888   4.807229   4.317890
    27  H    4.192702   4.074496   4.772606   5.691829   4.958205
    28  H    3.166585   2.496576   4.291357   4.978474   4.561538
    29  H    2.559897   2.985695   4.323719   5.047333   4.879481
                   21         22         23         24         25
    21  H    0.000000
    22  C    3.450624   0.000000
    23  H    4.077247   1.093956   0.000000
    24  H    4.278735   1.094816   1.777730   0.000000
    25  H    3.045453   1.088702   1.789172   1.759874   0.000000
    26  C    4.237489   2.516622   2.773590   2.693809   3.482484
    27  H    4.924790   2.699797   3.057819   2.414279   3.692674
    28  H    4.781160   2.802398   2.612732   3.094090   3.824236
    29  H    4.432616   3.480499   3.803761   3.677654   4.343326
                   26         27         28         29
    26  C    0.000000
    27  H    1.093608   0.000000
    28  H    1.095164   1.774565   0.000000
    29  H    1.093480   1.759215   1.788182   0.000000
 Framework group  C1[X(C8H16Cl3FeO)]
 Deg. of freedom    81
                         Standard orientation:                         
 ---------------------------------------------------------------------
 Center     Atomic      Atomic             Coordinates (Angstroms)
 Number     Number       Type             X           Y           Z
 ---------------------------------------------------------------------
      1          8           0       -0.260875   -0.361035   -0.600757
      2          6           0       -1.307658   -1.143009   -0.266998
      3          6           0       -2.326533   -0.300880    0.801980
      4          6           0       -2.949154    0.702365   -0.013511
      5          6           0       -4.305997    0.507021   -0.577416
      6         26           0        1.479558    0.125312   -0.102904
      7         17           0        2.775935   -0.403033   -1.791199
      8          6           0       -2.172093    1.870254   -0.418465
      9         17           0        2.069649   -0.887129    1.769860
     10         17           0        1.308014    2.318986    0.237033
     11          1           0       -3.054347   -1.054520    1.113728
     12          1           0       -2.692227    2.545283   -1.099033
     13          1           0       -1.740365    2.416234    0.427511
     14          1           0       -1.261076    1.436599   -0.896384
     15          1           0       -4.969753    1.229389   -0.074724
     16          1           0       -4.338109    0.762993   -1.643040
     17          1           0       -4.703325   -0.495496   -0.411819
     18          6           0       -1.501559    0.218996    1.987266
     19          1           0       -2.142725    0.804637    2.654011
     20          1           0       -1.087956   -0.609432    2.561973
     21          1           0       -0.673292    0.848774    1.663482
     22          6           0       -0.903946   -2.400873    0.526206
     23          1           0       -1.780591   -2.984144    0.822902
     24          1           0       -0.287410   -3.011389   -0.141459
     25          1           0       -0.299859   -2.162184    1.399921
     26          6           0       -2.072895   -1.552921   -1.534843
     27          1           0       -1.427232   -2.217248   -2.116020
     28          1           0       -3.000938   -2.087588   -1.306255
     29          1           0       -2.294455   -0.687435   -2.165353
 ---------------------------------------------------------------------
 Rotational constants (GHZ):           0.6294140           0.3107979           0.2957390
   427 basis functions,  1056 primitive gaussians,   461 cartesian basis functions
    77 alpha electrons       72 beta electrons
       nuclear repulsion energy      1639.1140236131 Hartrees.
 NAtoms=   29 NActive=   29 NUniq=   29 SFac= 1.00D+00 NAtFMM=   60 NAOKFM=F Big=F
 ExpMin= 1.40D-02 ExpMax= 4.32D+06 ExpMxC= 4.91D+03 IAcc=3 IRadAn=         5 AccDes= 0.00D+00
 Harris functional with IExCor= 1009 and IRadAn=       5 diagonalized for initial guess.
 HarFok:  IExCor= 1009 AccDes= 0.00D+00 IRadAn=         5 IDoV= 1 UseB2=F ITyADJ=14
 ICtDFT=  3500011 ScaDFX=  1.000000  1.000000  1.000000  1.000000
 FoFCou: FMM=F IPFlag=           0 FMFlag=      100000 FMFlg1=           0
         NFxFlg=           0 DoJE=T BraDBF=F KetDBF=T FulRan=T
         wScrn=  0.000000 ICntrl=       500 IOpCl=  0 I1Cent=   200000004 NGrid=           0
         NMat0=    1 NMatS0=      1 NMatT0=    0 NMatD0=    1 NMtDS0=    0 NMtDT0=    0
 Petite list used in FoFCou.
 Initial guess <Sx>= 0.0000 <Sy>= 0.0000 <Sz>= 2.5000 <S**2>= 8.7500 S= 2.5000
 EnCoef did     5 forward-backward iterations
 EnCoef did     6 forward-backward iterations
 EnCoef did     5 forward-backward iterations
 EnCoef did   100 forward-backward iterations
 EnCoef did     6 forward-backward iterations
 EnCoef did     2 forward-backward iterations
 Restarting incremental Fock formation.
 SCF Done:  E(UPBE1PBE) =  -3033.10953524     A.U. after   22 cycles
            NFock= 22  Conv=0.53D-08     -V/T= 2.0021
 <Sx>= 0.0000 <Sy>= 0.0000 <Sz>= 2.5000 <S**2>= 8.7627 S= 2.5021
 <L.S>= 0.000000000000E+00
 Annihilation of the first spin contaminant:
 S**2 before annihilation     8.7627,   after     8.7501
 1\1\GINC-HOLY7C18605\SP\UPBE1PBE\Jul-CC-pVDZ\C8H16Cl3Fe1O1(6)\EKWAN\11
 -Feb-2020\0\\#t pop=none jul-cc-pvdz upbe1pbe\\theory_abbreviation pbe
 0\\0,6\O,0,-0.260875,-0.361035,-0.600757\C,0,-1.307658,-1.143009,-0.26
 6998\C,0,-2.326533,-0.30088,0.80198\C,0,-2.949154,0.702365,-0.013511\C
 ,0,-4.305997,0.507021,-0.577416\Fe,0,1.479558,0.125312,-0.102904\Cl,0,
 2.775935,-0.403033,-1.791199\C,0,-2.172093,1.870254,-0.418465\Cl,0,2.0
 69649,-0.887129,1.76986\Cl,0,1.308014,2.318986,0.237033\H,0,-3.054347,
 -1.05452,1.113728\H,0,-2.692227,2.545283,-1.099033\H,0,-1.740365,2.416
 234,0.427511\H,0,-1.261076,1.436599,-0.896384\H,0,-4.969753,1.229389,-
 0.074724\H,0,-4.338109,0.762993,-1.64304\H,0,-4.703325,-0.495496,-0.41
 1819\C,0,-1.501559,0.218996,1.987266\H,0,-2.142725,0.804637,2.654011\H
 ,0,-1.087956,-0.609432,2.561973\H,0,-0.673292,0.848774,1.663482\C,0,-0
 .903946,-2.400873,0.526206\H,0,-1.780591,-2.984144,0.822902\H,0,-0.287
 41,-3.011389,-0.141459\H,0,-0.299859,-2.162184,1.399921\C,0,-2.072895,
 -1.552921,-1.534843\H,0,-1.427232,-2.217248,-2.11602\H,0,-3.000938,-2.
 087588,-1.306255\H,0,-2.294455,-0.687435,-2.165353\\Version=ES64L-G16R
 evA.03\HF=-3033.1095352\S2=8.762664\S2-1=0.\S2A=8.75005\RMSD=5.350e-09
 \PG=C01 [X(C8H16Cl3Fe1O1)]\\@


 IT IS DOUBTED WHETHER A MAN EVER BRINGS HIS FACULTIES TO BEAR WITH THEIR FULL FORCE
 ON A SUBJECT UNTIL HE WRITES UPON IT.

                          -- CICERO
 Job cpu time:       0 days  1 hours 31 minutes  5.0 seconds.
 Elapsed time:       0 days  0 hours 23 minutes 57.4 seconds.
 File lengths (MBytes):  RWF=    173 Int=      0 D2E=      0 Chk=     13 Scr=      1
 Normal termination of Gaussian 16 at Tue Feb 11 14:46:49 2020.
 Initial command:
 /n/sw/g16_nehalem/g16/l1.exe "/scratch/Gau-5801.inp" -scrdir="/scratch/"
 Entering Link 1 = /n/sw/g16_nehalem/g16/l1.exe PID=     11045.
  
 Copyright (c) 1988,1990,1992,1993,1995,1998,2003,2009,2016,
            Gaussian, Inc.  All Rights Reserved.
  
 This is part of the Gaussian(R) 16 program.  It is based on
 the Gaussian(R) 09 system (copyright 2009, Gaussian, Inc.),
 the Gaussian(R) 03 system (copyright 2003, Gaussian, Inc.),
 the Gaussian(R) 98 system (copyright 1998, Gaussian, Inc.),
 the Gaussian(R) 94 system (copyright 1995, Gaussian, Inc.),
 the Gaussian 92(TM) system (copyright 1992, Gaussian, Inc.),
 the Gaussian 90(TM) system (copyright 1990, Gaussian, Inc.),
 the Gaussian 88(TM) system (copyright 1988, Gaussian, Inc.),
 the Gaussian 86(TM) system (copyright 1986, Carnegie Mellon
 University), and the Gaussian 82(TM) system (copyright 1983,
 Carnegie Mellon University). Gaussian is a federally registered
 trademark of Gaussian, Inc.
  
 This software contains proprietary and confidential information,
 including trade secrets, belonging to Gaussian, Inc.
  
 This software is provided under written license and may be
 used, copied, transmitted, or stored only in accord with that
 written license.
  
 The following legend is applicable only to US Government
 contracts under FAR:
  
                    RESTRICTED RIGHTS LEGEND
  
 Use, reproduction and disclosure by the US Government is
 subject to restrictions as set forth in subparagraphs (a)
 and (c) of the Commercial Computer Software - Restricted
 Rights clause in FAR 52.227-19.
  
 Gaussian, Inc.
 340 Quinnipiac St., Bldg. 40, Wallingford CT 06492
  
  
 ---------------------------------------------------------------
 Warning -- This program may not be used in any manner that
 competes with the business of Gaussian, Inc. or will provide
 assistance to any competitor of Gaussian, Inc.  The licensee
 of this program is prohibited from giving any competitor of
 Gaussian, Inc. access to this program.  By using this program,
 the user acknowledges that Gaussian, Inc. is engaged in the
 business of creating and licensing software in the field of
 computational chemistry and represents and warrants to the
 licensee that it is not a competitor of Gaussian, Inc. and that
 it will not use this program in any manner prohibited above.
 ---------------------------------------------------------------
  

 Cite this work as:
 Gaussian 16, Revision A.03,
 M. J. Frisch, G. W. Trucks, H. B. Schlegel, G. E. Scuseria, 
 M. A. Robb, J. R. Cheeseman, G. Scalmani, V. Barone, 
 G. A. Petersson, H. Nakatsuji, X. Li, M. Caricato, A. V. Marenich, 
 J. Bloino, B. G. Janesko, R. Gomperts, B. Mennucci, H. P. Hratchian, 
 J. V. Ortiz, A. F. Izmaylov, J. L. Sonnenberg, D. Williams-Young, 
 F. Ding, F. Lipparini, F. Egidi, J. Goings, B. Peng, A. Petrone, 
 T. Henderson, D. Ranasinghe, V. G. Zakrzewski, J. Gao, N. Rega, 
 G. Zheng, W. Liang, M. Hada, M. Ehara, K. Toyota, R. Fukuda, 
 J. Hasegawa, M. Ishida, T. Nakajima, Y. Honda, O. Kitao, H. Nakai, 
 T. Vreven, K. Throssell, J. A. Montgomery, Jr., J. E. Peralta, 
 F. Ogliaro, M. J. Bearpark, J. J. Heyd, E. N. Brothers, K. N. Kudin, 
 V. N. Staroverov, T. A. Keith, R. Kobayashi, J. Normand, 
 K. Raghavachari, A. P. Rendell, J. C. Burant, S. S. Iyengar, 
 J. Tomasi, M. Cossi, J. M. Millam, M. Klene, C. Adamo, R. Cammi, 
 J. W. Ochterski, R. L. Martin, K. Morokuma, O. Farkas, 
 J. B. Foresman, and D. J. Fox, Gaussian, Inc., Wallingford CT, 2016.
 
 ******************************************
 Gaussian 16:  ES64L-G16RevA.03 25-Dec-2016
                11-Feb-2020 
 ******************************************
 %chk=checkpoint.chk
 %mem=3GB
 %nprocshared=4
 Will use up to    4 processors via shared memory.
 ---------------------------------------------------------------------
 #t pop=none jul-cc-pvdz guess=read upbe1pbe empiricaldispersion=gd3bj
 ---------------------------------------------------------------------
 -----------------------------
 theory_abbreviation pbe0_d3bj
 -----------------------------
 Symbolic Z-matrix:
 Charge =  0 Multiplicity = 6
 O                    -0.26088  -0.36104  -0.60076 
 C                    -1.30766  -1.14301  -0.267 
 C                    -2.32653  -0.30088   0.80198 
 C                    -2.94915   0.70237  -0.01351 
 C                    -4.306     0.50702  -0.57742 
 Fe                    1.47956   0.12531  -0.1029 
 Cl                    2.77594  -0.40303  -1.7912 
 C                    -2.17209   1.87025  -0.41847 
 Cl                    2.06965  -0.88713   1.76986 
 Cl                    1.30801   2.31899   0.23703 
 H                    -3.05435  -1.05452   1.11373 
 H                    -2.69223   2.54528  -1.09903 
 H                    -1.74037   2.41623   0.42751 
 H                    -1.26108   1.4366   -0.89638 
 H                    -4.96975   1.22939  -0.07472 
 H                    -4.33811   0.76299  -1.64304 
 H                    -4.70333  -0.4955   -0.41182 
 C                    -1.50156   0.219     1.98727 
 H                    -2.14272   0.80464   2.65401 
 H                    -1.08796  -0.60943   2.56197 
 H                    -0.67329   0.84877   1.66348 
 C                    -0.90395  -2.40087   0.52621 
 H                    -1.78059  -2.98414   0.8229 
 H                    -0.28741  -3.01139  -0.14146 
 H                    -0.29986  -2.16218   1.39992 
 C                    -2.07289  -1.55292  -1.53484 
 H                    -1.42723  -2.21725  -2.11602 
 H                    -3.00094  -2.08759  -1.30626 
 H                    -2.29446  -0.68744  -2.16535 
 
                    Distance matrix (angstroms):
                    1          2          3          4          5
     1  O    0.000000
     2  C    1.348567   0.000000
     3  C    2.497645   1.700000   0.000000
     4  C    2.950004   2.482775   1.434985   0.000000
     5  C    4.137279   3.436422   2.544350   1.482286   0.000000
     6  Fe   1.874433   3.066617   3.935325   4.467043   5.817518
     7  Cl   3.262075   4.421141   5.724526   6.095796   7.242598
     8  C    2.943575   3.138462   2.495428   1.460060   2.537167
     9  Cl   3.365701   3.952274   4.539482   5.558353   6.935576
    10  Cl   3.216491   4.368203   4.515838   4.560670   5.955138
    11  H    3.350204   2.228263   1.093103   2.090067   2.620116
    12  H    3.821837   4.026514   3.442125   2.154232   2.651575
    13  H    3.310506   3.652094   2.804733   2.143133   3.352229
    14  H    2.078289   2.655687   2.653012   2.041610   3.199594
    15  H    4.997969   4.367629   3.177569   2.089096   1.102310
    16  H    4.355873   3.835358   3.340118   2.142017   1.096407
    17  H    4.448499   3.459884   2.675878   2.161165   1.091023
    18  C    2.928070   2.640902   1.534847   2.516403   3.811224
    19  H    3.936199   3.608733   2.164711   2.788631   3.900057
    20  H    3.278510   2.887222   2.174133   3.437730   4.632280
    21  H    2.600097   2.845413   2.190227   2.830775   4.281935
    22  C    2.417545   1.540902   2.551426   3.755563   4.609531
    23  H    3.349185   2.191193   2.738320   3.956700   4.530651
    24  H    2.689988   2.132489   3.520647   4.570910   5.358947
    25  H    2.692280   2.198407   2.815918   4.149963   5.204196
    26  C    2.361467   1.536570   2.663209   2.858076   3.185400
    27  H    2.664946   2.141768   3.604987   3.906524   4.251615
    28  H    3.314613   2.199882   2.844609   3.075338   2.994392
    29  H    2.586493   2.187480   2.992577   2.643974   2.827467
                    6          7          8          9         10
     6  Fe   0.000000
     7  Cl   2.193190   0.000000
     8  C    4.059428   5.615622   0.000000
     9  Cl   2.209183   3.662558   5.512196   0.000000
    10  Cl   2.226475   3.698365   3.569619   3.634394   0.000000
    11  H    4.840299   6.546390   3.417644   5.168546   5.583845
    12  H    4.924665   6.250796   1.090585   6.533564   4.223531
    13  H    3.987175   5.767834   1.095518   5.218267   3.055872
    14  H    3.140089   4.525748   1.116430   4.858220   2.943376
    15  H    6.543194   8.099801   2.890634   7.578609   6.379245
    16  H    6.051769   7.210492   2.723460   7.445143   6.150975
    17  H    6.221646   7.605956   3.464672   7.126449   6.669221
    18  C    3.642066   5.741139   2.993962   3.744904   3.920073
    19  H    4.602499   6.738811   3.252155   4.624704   4.476900
    20  H    3.772737   5.824291   4.025817   3.267266   4.440906
    21  H    2.877200   5.039743   2.761219   3.247830   2.849887
    22  C    3.529657   4.785735   4.554462   3.560950   5.220484
    23  H    4.599392   5.852998   5.025878   4.485371   6.164893
    24  H    3.600355   4.348476   5.240153   3.704234   5.576875
    25  H    3.264574   4.768476   4.803368   2.716098   4.900862
    26  C    4.181727   4.989901   3.601981   5.340881   5.437072
    27  H    4.241421   4.589499   4.488227   5.394206   5.796193
    28  H    5.140022   6.036983   4.140008   6.050987   6.353479
    29  H    4.376920   5.092124   3.099736   5.879726   5.271414
                   11         12         13         14         15
    11  H    0.000000
    12  H    4.240993   0.000000
    13  H    3.774066   1.803616   0.000000
    14  H    3.669066   1.821659   1.715255   0.000000
    15  H    3.208962   2.822749   3.477037   3.804254   0.000000
    16  H    3.542763   2.486248   3.710615   3.237186   1.753886
    17  H    2.314936   3.709867   4.238134   3.977043   1.777595
    18  C    2.189991   4.044075   2.705128   3.139399   4.159455
    19  H    2.580696   4.173385   2.777848   3.712410   3.952024
    20  H    2.482380   5.092041   3.759817   4.021995   5.040018
    21  H    3.097447   3.819127   2.263449   2.691457   4.650355
    22  C    2.604241   5.504890   4.890180   4.108223   5.483676
    23  H    2.330340   5.924481   5.414982   4.771667   5.360070
    24  H    3.613969   6.129983   5.647468   4.615467   6.317673
    25  H    2.982621   5.841955   4.897198   4.375865   5.956950
    26  C    2.868202   4.167587   4.440225   3.162896   4.273755
    27  H    3.798778   5.031518   5.294975   3.855609   5.347490
    28  H    2.631805   4.647767   4.987926   3.951583   4.049103
    29  H    3.385936   3.427204   4.082000   2.681357   3.898995
                   16         17         18         19         20
    16  H    0.000000
    17  H    1.798077   0.000000
    18  C    4.639081   4.064162   0.000000
    19  H    4.825567   4.200754   1.094814   0.000000
    20  H    5.489005   4.682661   1.089793   1.766522   0.000000
    21  H    4.936733   4.728118   1.089717   1.772662   1.762270
    22  C    5.148704   4.352658   3.058685   4.041958   2.717990
    23  H    5.163604   4.032404   3.419606   4.223620   3.023800
    24  H    5.736625   5.089511   4.054752   5.081230   3.703892
    25  H    5.841552   5.044875   2.731131   3.710920   2.093442
    26  C    3.241351   3.049343   3.983888   4.807229   4.317890
    27  H    4.192702   4.074496   4.772606   5.691829   4.958205
    28  H    3.166585   2.496576   4.291357   4.978474   4.561538
    29  H    2.559897   2.985695   4.323719   5.047333   4.879481
                   21         22         23         24         25
    21  H    0.000000
    22  C    3.450624   0.000000
    23  H    4.077247   1.093956   0.000000
    24  H    4.278735   1.094816   1.777730   0.000000
    25  H    3.045453   1.088702   1.789172   1.759874   0.000000
    26  C    4.237489   2.516622   2.773590   2.693809   3.482484
    27  H    4.924790   2.699797   3.057819   2.414279   3.692674
    28  H    4.781160   2.802398   2.612732   3.094090   3.824236
    29  H    4.432616   3.480499   3.803761   3.677654   4.343326
                   26         27         28         29
    26  C    0.000000
    27  H    1.093608   0.000000
    28  H    1.095164   1.774565   0.000000
    29  H    1.093480   1.759215   1.788182   0.000000
 Framework group  C1[X(C8H16Cl3FeO)]
 Deg. of freedom    81
                         Standard orientation:                         
 ---------------------------------------------------------------------
 Center     Atomic      Atomic             Coordinates (Angstroms)
 Number     Number       Type             X           Y           Z
 ---------------------------------------------------------------------
      1          8           0       -0.260875   -0.361035   -0.600757
      2          6           0       -1.307658   -1.143009   -0.266998
      3          6           0       -2.326533   -0.300880    0.801980
      4          6           0       -2.949154    0.702365   -0.013511
      5          6           0       -4.305997    0.507021   -0.577416
      6         26           0        1.479558    0.125312   -0.102904
      7         17           0        2.775935   -0.403033   -1.791199
      8          6           0       -2.172093    1.870254   -0.418465
      9         17           0        2.069649   -0.887129    1.769860
     10         17           0        1.308014    2.318986    0.237033
     11          1           0       -3.054347   -1.054520    1.113728
     12          1           0       -2.692227    2.545283   -1.099033
     13          1           0       -1.740365    2.416234    0.427511
     14          1           0       -1.261076    1.436599   -0.896384
     15          1           0       -4.969753    1.229389   -0.074724
     16          1           0       -4.338109    0.762993   -1.643040
     17          1           0       -4.703325   -0.495496   -0.411819
     18          6           0       -1.501559    0.218996    1.987266
     19          1           0       -2.142725    0.804637    2.654011
     20          1           0       -1.087956   -0.609432    2.561973
     21          1           0       -0.673292    0.848774    1.663482
     22          6           0       -0.903946   -2.400873    0.526206
     23          1           0       -1.780591   -2.984144    0.822902
     24          1           0       -0.287410   -3.011389   -0.141459
     25          1           0       -0.299859   -2.162184    1.399921
     26          6           0       -2.072895   -1.552921   -1.534843
     27          1           0       -1.427232   -2.217248   -2.116020
     28          1           0       -3.000938   -2.087588   -1.306255
     29          1           0       -2.294455   -0.687435   -2.165353
 ---------------------------------------------------------------------
 Rotational constants (GHZ):           0.6294140           0.3107979           0.2957390
   427 basis functions,  1056 primitive gaussians,   461 cartesian basis functions
    77 alpha electrons       72 beta electrons
       nuclear repulsion energy      1639.1140236131 Hartrees.
 NAtoms=   29 NActive=   29 NUniq=   29 SFac= 1.00D+00 NAtFMM=   60 NAOKFM=F Big=F
 Nuclear repulsion after empirical dispersion term =     1639.0774684741 Hartrees.
 Initial guess from the checkpoint file:  "checkpoint.chk"
 B after Tr=     0.000000    0.000000    0.000000
         Rot=    1.000000    0.000000    0.000000    0.000000 Ang=   0.00 deg.
 Initial guess <Sx>= 0.0000 <Sy>= 0.0000 <Sz>= 2.5000 <S**2>= 8.7627 S= 2.5021
 SCF Done:  E(UPBE1PBE) =  -3033.14609038     A.U. after    1 cycles
            NFock=  1  Conv=0.45D-08     -V/T= 2.0021
 <Sx>= 0.0000 <Sy>= 0.0000 <Sz>= 2.5000 <S**2>= 8.7627 S= 2.5021
 <L.S>= 0.000000000000E+00
 Annihilation of the first spin contaminant:
 S**2 before annihilation     8.7627,   after     8.7501
 1\1\GINC-HOLY7C18605\SP\UPBE1PBE\Jul-CC-pVDZ\C8H16Cl3Fe1O1(6)\EKWAN\11
 -Feb-2020\0\\#t pop=none jul-cc-pvdz guess=read upbe1pbe empiricaldisp
 ersion=gd3bj\\theory_abbreviation pbe0_d3bj\\0,6\O,0,-0.260875,-0.3610
 35,-0.600757\C,0,-1.307658,-1.143009,-0.266998\C,0,-2.326533,-0.30088,
 0.80198\C,0,-2.949154,0.702365,-0.013511\C,0,-4.305997,0.507021,-0.577
 416\Fe,0,1.479558,0.125312,-0.102904\Cl,0,2.775935,-0.403033,-1.791199
 \C,0,-2.172093,1.870254,-0.418465\Cl,0,2.069649,-0.887129,1.76986\Cl,0
 ,1.308014,2.318986,0.237033\H,0,-3.054347,-1.05452,1.113728\H,0,-2.692
 227,2.545283,-1.099033\H,0,-1.740365,2.416234,0.427511\H,0,-1.261076,1
 .436599,-0.896384\H,0,-4.969753,1.229389,-0.074724\H,0,-4.338109,0.762
 993,-1.64304\H,0,-4.703325,-0.495496,-0.411819\C,0,-1.501559,0.218996,
 1.987266\H,0,-2.142725,0.804637,2.654011\H,0,-1.087956,-0.609432,2.561
 973\H,0,-0.673292,0.848774,1.663482\C,0,-0.903946,-2.400873,0.526206\H
 ,0,-1.780591,-2.984144,0.822902\H,0,-0.28741,-3.011389,-0.141459\H,0,-
 0.299859,-2.162184,1.399921\C,0,-2.072895,-1.552921,-1.534843\H,0,-1.4
 27232,-2.217248,-2.11602\H,0,-3.000938,-2.087588,-1.306255\H,0,-2.2944
 55,-0.687435,-2.165353\\Version=ES64L-G16RevA.03\HF=-3033.1460904\S2=8
 .762664\S2-1=0.\S2A=8.75005\RMSD=4.548e-09\PG=C01 [X(C8H16Cl3Fe1O1)]\\
 @


 FROM AN ANONYMOUS WRITER, ON PERSPECTIVE:

 MAN, DESPITE HIS ARTISTIC PRETENSIONS, HIS SOPHISTICATION AND MANY 
 ACCOMPLISHMENTS, OWES THE FACT OF HIS EXISTENCE TO A SIX-INCH LAYER OF 
 TOPSOIL AND THE FACT THAT IT RAINS.
 Job cpu time:       0 days  0 hours  5 minutes  8.1 seconds.
 Elapsed time:       0 days  0 hours  1 minutes 56.5 seconds.
 File lengths (MBytes):  RWF=    170 Int=      0 D2E=      0 Chk=     13 Scr=      1
 Normal termination of Gaussian 16 at Tue Feb 11 14:48:47 2020.
 Initial command:
 /n/sw/g16_nehalem/g16/l1.exe "/scratch/Gau-5801.inp" -scrdir="/scratch/"
 Entering Link 1 = /n/sw/g16_nehalem/g16/l1.exe PID=     11569.
  
 Copyright (c) 1988,1990,1992,1993,1995,1998,2003,2009,2016,
            Gaussian, Inc.  All Rights Reserved.
  
 This is part of the Gaussian(R) 16 program.  It is based on
 the Gaussian(R) 09 system (copyright 2009, Gaussian, Inc.),
 the Gaussian(R) 03 system (copyright 2003, Gaussian, Inc.),
 the Gaussian(R) 98 system (copyright 1998, Gaussian, Inc.),
 the Gaussian(R) 94 system (copyright 1995, Gaussian, Inc.),
 the Gaussian 92(TM) system (copyright 1992, Gaussian, Inc.),
 the Gaussian 90(TM) system (copyright 1990, Gaussian, Inc.),
 the Gaussian 88(TM) system (copyright 1988, Gaussian, Inc.),
 the Gaussian 86(TM) system (copyright 1986, Carnegie Mellon
 University), and the Gaussian 82(TM) system (copyright 1983,
 Carnegie Mellon University). Gaussian is a federally registered
 trademark of Gaussian, Inc.
  
 This software contains proprietary and confidential information,
 including trade secrets, belonging to Gaussian, Inc.
  
 This software is provided under written license and may be
 used, copied, transmitted, or stored only in accord with that
 written license.
  
 The following legend is applicable only to US Government
 contracts under FAR:
  
                    RESTRICTED RIGHTS LEGEND
  
 Use, reproduction and disclosure by the US Government is
 subject to restrictions as set forth in subparagraphs (a)
 and (c) of the Commercial Computer Software - Restricted
 Rights clause in FAR 52.227-19.
  
 Gaussian, Inc.
 340 Quinnipiac St., Bldg. 40, Wallingford CT 06492
  
  
 ---------------------------------------------------------------
 Warning -- This program may not be used in any manner that
 competes with the business of Gaussian, Inc. or will provide
 assistance to any competitor of Gaussian, Inc.  The licensee
 of this program is prohibited from giving any competitor of
 Gaussian, Inc. access to this program.  By using this program,
 the user acknowledges that Gaussian, Inc. is engaged in the
 business of creating and licensing software in the field of
 computational chemistry and represents and warrants to the
 licensee that it is not a competitor of Gaussian, Inc. and that
 it will not use this program in any manner prohibited above.
 ---------------------------------------------------------------
  

 Cite this work as:
 Gaussian 16, Revision A.03,
 M. J. Frisch, G. W. Trucks, H. B. Schlegel, G. E. Scuseria, 
 M. A. Robb, J. R. Cheeseman, G. Scalmani, V. Barone, 
 G. A. Petersson, H. Nakatsuji, X. Li, M. Caricato, A. V. Marenich, 
 J. Bloino, B. G. Janesko, R. Gomperts, B. Mennucci, H. P. Hratchian, 
 J. V. Ortiz, A. F. Izmaylov, J. L. Sonnenberg, D. Williams-Young, 
 F. Ding, F. Lipparini, F. Egidi, J. Goings, B. Peng, A. Petrone, 
 T. Henderson, D. Ranasinghe, V. G. Zakrzewski, J. Gao, N. Rega, 
 G. Zheng, W. Liang, M. Hada, M. Ehara, K. Toyota, R. Fukuda, 
 J. Hasegawa, M. Ishida, T. Nakajima, Y. Honda, O. Kitao, H. Nakai, 
 T. Vreven, K. Throssell, J. A. Montgomery, Jr., J. E. Peralta, 
 F. Ogliaro, M. J. Bearpark, J. J. Heyd, E. N. Brothers, K. N. Kudin, 
 V. N. Staroverov, T. A. Keith, R. Kobayashi, J. Normand, 
 K. Raghavachari, A. P. Rendell, J. C. Burant, S. S. Iyengar, 
 J. Tomasi, M. Cossi, J. M. Millam, M. Klene, C. Adamo, R. Cammi, 
 J. W. Ochterski, R. L. Martin, K. Morokuma, O. Farkas, 
 J. B. Foresman, and D. J. Fox, Gaussian, Inc., Wallingford CT, 2016.
 
 ******************************************
 Gaussian 16:  ES64L-G16RevA.03 25-Dec-2016
                11-Feb-2020 
 ******************************************
 %chk=checkpoint.chk
 %mem=3GB
 %nprocshared=4
 Will use up to    4 processors via shared memory.
 -----------------------------------------
 #t pop=none jul-cc-pvdz guess=read ub3lyp
 -----------------------------------------
 -------------------------
 theory_abbreviation b3lyp
 -------------------------
 Symbolic Z-matrix:
 Charge =  0 Multiplicity = 6
 O                    -0.26088  -0.36104  -0.60076 
 C                    -1.30766  -1.14301  -0.267 
 C                    -2.32653  -0.30088   0.80198 
 C                    -2.94915   0.70237  -0.01351 
 C                    -4.306     0.50702  -0.57742 
 Fe                    1.47956   0.12531  -0.1029 
 Cl                    2.77594  -0.40303  -1.7912 
 C                    -2.17209   1.87025  -0.41847 
 Cl                    2.06965  -0.88713   1.76986 
 Cl                    1.30801   2.31899   0.23703 
 H                    -3.05435  -1.05452   1.11373 
 H                    -2.69223   2.54528  -1.09903 
 H                    -1.74037   2.41623   0.42751 
 H                    -1.26108   1.4366   -0.89638 
 H                    -4.96975   1.22939  -0.07472 
 H                    -4.33811   0.76299  -1.64304 
 H                    -4.70333  -0.4955   -0.41182 
 C                    -1.50156   0.219     1.98727 
 H                    -2.14272   0.80464   2.65401 
 H                    -1.08796  -0.60943   2.56197 
 H                    -0.67329   0.84877   1.66348 
 C                    -0.90395  -2.40087   0.52621 
 H                    -1.78059  -2.98414   0.8229 
 H                    -0.28741  -3.01139  -0.14146 
 H                    -0.29986  -2.16218   1.39992 
 C                    -2.07289  -1.55292  -1.53484 
 H                    -1.42723  -2.21725  -2.11602 
 H                    -3.00094  -2.08759  -1.30626 
 H                    -2.29446  -0.68744  -2.16535 
 
                    Distance matrix (angstroms):
                    1          2          3          4          5
     1  O    0.000000
     2  C    1.348567   0.000000
     3  C    2.497645   1.700000   0.000000
     4  C    2.950004   2.482775   1.434985   0.000000
     5  C    4.137279   3.436422   2.544350   1.482286   0.000000
     6  Fe   1.874433   3.066617   3.935325   4.467043   5.817518
     7  Cl   3.262075   4.421141   5.724526   6.095796   7.242598
     8  C    2.943575   3.138462   2.495428   1.460060   2.537167
     9  Cl   3.365701   3.952274   4.539482   5.558353   6.935576
    10  Cl   3.216491   4.368203   4.515838   4.560670   5.955138
    11  H    3.350204   2.228263   1.093103   2.090067   2.620116
    12  H    3.821837   4.026514   3.442125   2.154232   2.651575
    13  H    3.310506   3.652094   2.804733   2.143133   3.352229
    14  H    2.078289   2.655687   2.653012   2.041610   3.199594
    15  H    4.997969   4.367629   3.177569   2.089096   1.102310
    16  H    4.355873   3.835358   3.340118   2.142017   1.096407
    17  H    4.448499   3.459884   2.675878   2.161165   1.091023
    18  C    2.928070   2.640902   1.534847   2.516403   3.811224
    19  H    3.936199   3.608733   2.164711   2.788631   3.900057
    20  H    3.278510   2.887222   2.174133   3.437730   4.632280
    21  H    2.600097   2.845413   2.190227   2.830775   4.281935
    22  C    2.417545   1.540902   2.551426   3.755563   4.609531
    23  H    3.349185   2.191193   2.738320   3.956700   4.530651
    24  H    2.689988   2.132489   3.520647   4.570910   5.358947
    25  H    2.692280   2.198407   2.815918   4.149963   5.204196
    26  C    2.361467   1.536570   2.663209   2.858076   3.185400
    27  H    2.664946   2.141768   3.604987   3.906524   4.251615
    28  H    3.314613   2.199882   2.844609   3.075338   2.994392
    29  H    2.586493   2.187480   2.992577   2.643974   2.827467
                    6          7          8          9         10
     6  Fe   0.000000
     7  Cl   2.193190   0.000000
     8  C    4.059428   5.615622   0.000000
     9  Cl   2.209183   3.662558   5.512196   0.000000
    10  Cl   2.226475   3.698365   3.569619   3.634394   0.000000
    11  H    4.840299   6.546390   3.417644   5.168546   5.583845
    12  H    4.924665   6.250796   1.090585   6.533564   4.223531
    13  H    3.987175   5.767834   1.095518   5.218267   3.055872
    14  H    3.140089   4.525748   1.116430   4.858220   2.943376
    15  H    6.543194   8.099801   2.890634   7.578609   6.379245
    16  H    6.051769   7.210492   2.723460   7.445143   6.150975
    17  H    6.221646   7.605956   3.464672   7.126449   6.669221
    18  C    3.642066   5.741139   2.993962   3.744904   3.920073
    19  H    4.602499   6.738811   3.252155   4.624704   4.476900
    20  H    3.772737   5.824291   4.025817   3.267266   4.440906
    21  H    2.877200   5.039743   2.761219   3.247830   2.849887
    22  C    3.529657   4.785735   4.554462   3.560950   5.220484
    23  H    4.599392   5.852998   5.025878   4.485371   6.164893
    24  H    3.600355   4.348476   5.240153   3.704234   5.576875
    25  H    3.264574   4.768476   4.803368   2.716098   4.900862
    26  C    4.181727   4.989901   3.601981   5.340881   5.437072
    27  H    4.241421   4.589499   4.488227   5.394206   5.796193
    28  H    5.140022   6.036983   4.140008   6.050987   6.353479
    29  H    4.376920   5.092124   3.099736   5.879726   5.271414
                   11         12         13         14         15
    11  H    0.000000
    12  H    4.240993   0.000000
    13  H    3.774066   1.803616   0.000000
    14  H    3.669066   1.821659   1.715255   0.000000
    15  H    3.208962   2.822749   3.477037   3.804254   0.000000
    16  H    3.542763   2.486248   3.710615   3.237186   1.753886
    17  H    2.314936   3.709867   4.238134   3.977043   1.777595
    18  C    2.189991   4.044075   2.705128   3.139399   4.159455
    19  H    2.580696   4.173385   2.777848   3.712410   3.952024
    20  H    2.482380   5.092041   3.759817   4.021995   5.040018
    21  H    3.097447   3.819127   2.263449   2.691457   4.650355
    22  C    2.604241   5.504890   4.890180   4.108223   5.483676
    23  H    2.330340   5.924481   5.414982   4.771667   5.360070
    24  H    3.613969   6.129983   5.647468   4.615467   6.317673
    25  H    2.982621   5.841955   4.897198   4.375865   5.956950
    26  C    2.868202   4.167587   4.440225   3.162896   4.273755
    27  H    3.798778   5.031518   5.294975   3.855609   5.347490
    28  H    2.631805   4.647767   4.987926   3.951583   4.049103
    29  H    3.385936   3.427204   4.082000   2.681357   3.898995
                   16         17         18         19         20
    16  H    0.000000
    17  H    1.798077   0.000000
    18  C    4.639081   4.064162   0.000000
    19  H    4.825567   4.200754   1.094814   0.000000
    20  H    5.489005   4.682661   1.089793   1.766522   0.000000
    21  H    4.936733   4.728118   1.089717   1.772662   1.762270
    22  C    5.148704   4.352658   3.058685   4.041958   2.717990
    23  H    5.163604   4.032404   3.419606   4.223620   3.023800
    24  H    5.736625   5.089511   4.054752   5.081230   3.703892
    25  H    5.841552   5.044875   2.731131   3.710920   2.093442
    26  C    3.241351   3.049343   3.983888   4.807229   4.317890
    27  H    4.192702   4.074496   4.772606   5.691829   4.958205
    28  H    3.166585   2.496576   4.291357   4.978474   4.561538
    29  H    2.559897   2.985695   4.323719   5.047333   4.879481
                   21         22         23         24         25
    21  H    0.000000
    22  C    3.450624   0.000000
    23  H    4.077247   1.093956   0.000000
    24  H    4.278735   1.094816   1.777730   0.000000
    25  H    3.045453   1.088702   1.789172   1.759874   0.000000
    26  C    4.237489   2.516622   2.773590   2.693809   3.482484
    27  H    4.924790   2.699797   3.057819   2.414279   3.692674
    28  H    4.781160   2.802398   2.612732   3.094090   3.824236
    29  H    4.432616   3.480499   3.803761   3.677654   4.343326
                   26         27         28         29
    26  C    0.000000
    27  H    1.093608   0.000000
    28  H    1.095164   1.774565   0.000000
    29  H    1.093480   1.759215   1.788182   0.000000
 Framework group  C1[X(C8H16Cl3FeO)]
 Deg. of freedom    81
                         Standard orientation:                         
 ---------------------------------------------------------------------
 Center     Atomic      Atomic             Coordinates (Angstroms)
 Number     Number       Type             X           Y           Z
 ---------------------------------------------------------------------
      1          8           0       -0.260875   -0.361035   -0.600757
      2          6           0       -1.307658   -1.143009   -0.266998
      3          6           0       -2.326533   -0.300880    0.801980
      4          6           0       -2.949154    0.702365   -0.013511
      5          6           0       -4.305997    0.507021   -0.577416
      6         26           0        1.479558    0.125312   -0.102904
      7         17           0        2.775935   -0.403033   -1.791199
      8          6           0       -2.172093    1.870254   -0.418465
      9         17           0        2.069649   -0.887129    1.769860
     10         17           0        1.308014    2.318986    0.237033
     11          1           0       -3.054347   -1.054520    1.113728
     12          1           0       -2.692227    2.545283   -1.099033
     13          1           0       -1.740365    2.416234    0.427511
     14          1           0       -1.261076    1.436599   -0.896384
     15          1           0       -4.969753    1.229389   -0.074724
     16          1           0       -4.338109    0.762993   -1.643040
     17          1           0       -4.703325   -0.495496   -0.411819
     18          6           0       -1.501559    0.218996    1.987266
     19          1           0       -2.142725    0.804637    2.654011
     20          1           0       -1.087956   -0.609432    2.561973
     21          1           0       -0.673292    0.848774    1.663482
     22          6           0       -0.903946   -2.400873    0.526206
     23          1           0       -1.780591   -2.984144    0.822902
     24          1           0       -0.287410   -3.011389   -0.141459
     25          1           0       -0.299859   -2.162184    1.399921
     26          6           0       -2.072895   -1.552921   -1.534843
     27          1           0       -1.427232   -2.217248   -2.116020
     28          1           0       -3.000938   -2.087588   -1.306255
     29          1           0       -2.294455   -0.687435   -2.165353
 ---------------------------------------------------------------------
 Rotational constants (GHZ):           0.6294140           0.3107979           0.2957390
   427 basis functions,  1056 primitive gaussians,   461 cartesian basis functions
    77 alpha electrons       72 beta electrons
       nuclear repulsion energy      1639.1140236131 Hartrees.
 NAtoms=   29 NActive=   29 NUniq=   29 SFac= 1.00D+00 NAtFMM=   60 NAOKFM=F Big=F
 Initial guess from the checkpoint file:  "checkpoint.chk"
 B after Tr=     0.000000    0.000000    0.000000
         Rot=    1.000000    0.000000    0.000000    0.000000 Ang=   0.00 deg.
 Initial guess <Sx>= 0.0000 <Sy>= 0.0000 <Sz>= 2.5000 <S**2>= 8.7627 S= 2.5021
 SCF Done:  E(UB3LYP) =  -3034.32129131     A.U. after   15 cycles
            NFock= 15  Conv=0.75D-08     -V/T= 2.0024
 <Sx>= 0.0000 <Sy>= 0.0000 <Sz>= 2.5000 <S**2>= 8.7621 S= 2.5020
 <L.S>= 0.000000000000E+00
 Annihilation of the first spin contaminant:
 S**2 before annihilation     8.7621,   after     8.7500
 1\1\GINC-HOLY7C18605\SP\UB3LYP\Jul-CC-pVDZ\C8H16Cl3Fe1O1(6)\EKWAN\11-F
 eb-2020\0\\#t pop=none jul-cc-pvdz guess=read ub3lyp\\theory_abbreviat
 ion b3lyp\\0,6\O,0,-0.260875,-0.361035,-0.600757\C,0,-1.307658,-1.1430
 09,-0.266998\C,0,-2.326533,-0.30088,0.80198\C,0,-2.949154,0.702365,-0.
 013511\C,0,-4.305997,0.507021,-0.577416\Fe,0,1.479558,0.125312,-0.1029
 04\Cl,0,2.775935,-0.403033,-1.791199\C,0,-2.172093,1.870254,-0.418465\
 Cl,0,2.069649,-0.887129,1.76986\Cl,0,1.308014,2.318986,0.237033\H,0,-3
 .054347,-1.05452,1.113728\H,0,-2.692227,2.545283,-1.099033\H,0,-1.7403
 65,2.416234,0.427511\H,0,-1.261076,1.436599,-0.896384\H,0,-4.969753,1.
 229389,-0.074724\H,0,-4.338109,0.762993,-1.64304\H,0,-4.703325,-0.4954
 96,-0.411819\C,0,-1.501559,0.218996,1.987266\H,0,-2.142725,0.804637,2.
 654011\H,0,-1.087956,-0.609432,2.561973\H,0,-0.673292,0.848774,1.66348
 2\C,0,-0.903946,-2.400873,0.526206\H,0,-1.780591,-2.984144,0.822902\H,
 0,-0.28741,-3.011389,-0.141459\H,0,-0.299859,-2.162184,1.399921\C,0,-2
 .072895,-1.552921,-1.534843\H,0,-1.427232,-2.217248,-2.11602\H,0,-3.00
 0938,-2.087588,-1.306255\H,0,-2.294455,-0.687435,-2.165353\\Version=ES
 64L-G16RevA.03\HF=-3034.3212913\S2=8.762105\S2-1=0.\S2A=8.750046\RMSD=
 7.491e-09\PG=C01 [X(C8H16Cl3Fe1O1)]\\@


 HICKORY, DICKORY, DOCK
 TWO MICE RAN UP THE CLOCK
 THE CLOCK STRUCK ONE...
 THE OTHER ESCAPED WITH MINOR INJURIES.
 Job cpu time:       0 days  1 hours  0 minutes 33.0 seconds.
 Elapsed time:       0 days  0 hours 16 minutes 35.0 seconds.
 File lengths (MBytes):  RWF=    174 Int=      0 D2E=      0 Chk=     13 Scr=      1
 Normal termination of Gaussian 16 at Tue Feb 11 15:05:22 2020.
 Initial command:
 /n/sw/g16_nehalem/g16/l1.exe "/scratch/Gau-5801.inp" -scrdir="/scratch/"
 Entering Link 1 = /n/sw/g16_nehalem/g16/l1.exe PID=     14589.
  
 Copyright (c) 1988,1990,1992,1993,1995,1998,2003,2009,2016,
            Gaussian, Inc.  All Rights Reserved.
  
 This is part of the Gaussian(R) 16 program.  It is based on
 the Gaussian(R) 09 system (copyright 2009, Gaussian, Inc.),
 the Gaussian(R) 03 system (copyright 2003, Gaussian, Inc.),
 the Gaussian(R) 98 system (copyright 1998, Gaussian, Inc.),
 the Gaussian(R) 94 system (copyright 1995, Gaussian, Inc.),
 the Gaussian 92(TM) system (copyright 1992, Gaussian, Inc.),
 the Gaussian 90(TM) system (copyright 1990, Gaussian, Inc.),
 the Gaussian 88(TM) system (copyright 1988, Gaussian, Inc.),
 the Gaussian 86(TM) system (copyright 1986, Carnegie Mellon
 University), and the Gaussian 82(TM) system (copyright 1983,
 Carnegie Mellon University). Gaussian is a federally registered
 trademark of Gaussian, Inc.
  
 This software contains proprietary and confidential information,
 including trade secrets, belonging to Gaussian, Inc.
  
 This software is provided under written license and may be
 used, copied, transmitted, or stored only in accord with that
 written license.
  
 The following legend is applicable only to US Government
 contracts under FAR:
  
                    RESTRICTED RIGHTS LEGEND
  
 Use, reproduction and disclosure by the US Government is
 subject to restrictions as set forth in subparagraphs (a)
 and (c) of the Commercial Computer Software - Restricted
 Rights clause in FAR 52.227-19.
  
 Gaussian, Inc.
 340 Quinnipiac St., Bldg. 40, Wallingford CT 06492
  
  
 ---------------------------------------------------------------
 Warning -- This program may not be used in any manner that
 competes with the business of Gaussian, Inc. or will provide
 assistance to any competitor of Gaussian, Inc.  The licensee
 of this program is prohibited from giving any competitor of
 Gaussian, Inc. access to this program.  By using this program,
 the user acknowledges that Gaussian, Inc. is engaged in the
 business of creating and licensing software in the field of
 computational chemistry and represents and warrants to the
 licensee that it is not a competitor of Gaussian, Inc. and that
 it will not use this program in any manner prohibited above.
 ---------------------------------------------------------------
  

 Cite this work as:
 Gaussian 16, Revision A.03,
 M. J. Frisch, G. W. Trucks, H. B. Schlegel, G. E. Scuseria, 
 M. A. Robb, J. R. Cheeseman, G. Scalmani, V. Barone, 
 G. A. Petersson, H. Nakatsuji, X. Li, M. Caricato, A. V. Marenich, 
 J. Bloino, B. G. Janesko, R. Gomperts, B. Mennucci, H. P. Hratchian, 
 J. V. Ortiz, A. F. Izmaylov, J. L. Sonnenberg, D. Williams-Young, 
 F. Ding, F. Lipparini, F. Egidi, J. Goings, B. Peng, A. Petrone, 
 T. Henderson, D. Ranasinghe, V. G. Zakrzewski, J. Gao, N. Rega, 
 G. Zheng, W. Liang, M. Hada, M. Ehara, K. Toyota, R. Fukuda, 
 J. Hasegawa, M. Ishida, T. Nakajima, Y. Honda, O. Kitao, H. Nakai, 
 T. Vreven, K. Throssell, J. A. Montgomery, Jr., J. E. Peralta, 
 F. Ogliaro, M. J. Bearpark, J. J. Heyd, E. N. Brothers, K. N. Kudin, 
 V. N. Staroverov, T. A. Keith, R. Kobayashi, J. Normand, 
 K. Raghavachari, A. P. Rendell, J. C. Burant, S. S. Iyengar, 
 J. Tomasi, M. Cossi, J. M. Millam, M. Klene, C. Adamo, R. Cammi, 
 J. W. Ochterski, R. L. Martin, K. Morokuma, O. Farkas, 
 J. B. Foresman, and D. J. Fox, Gaussian, Inc., Wallingford CT, 2016.
 
 ******************************************
 Gaussian 16:  ES64L-G16RevA.03 25-Dec-2016
                11-Feb-2020 
 ******************************************
 %chk=checkpoint.chk
 %mem=3GB
 %nprocshared=4
 Will use up to    4 processors via shared memory.
 -------------------------------------------------------------------
 #t pop=none jul-cc-pvdz guess=read ub3lyp empiricaldispersion=gd3bj
 -------------------------------------------------------------------
 ------------------------------
 theory_abbreviation b3lyp_d3bj
 ------------------------------
 Symbolic Z-matrix:
 Charge =  0 Multiplicity = 6
 O                    -0.26088  -0.36104  -0.60076 
 C                    -1.30766  -1.14301  -0.267 
 C                    -2.32653  -0.30088   0.80198 
 C                    -2.94915   0.70237  -0.01351 
 C                    -4.306     0.50702  -0.57742 
 Fe                    1.47956   0.12531  -0.1029 
 Cl                    2.77594  -0.40303  -1.7912 
 C                    -2.17209   1.87025  -0.41847 
 Cl                    2.06965  -0.88713   1.76986 
 Cl                    1.30801   2.31899   0.23703 
 H                    -3.05435  -1.05452   1.11373 
 H                    -2.69223   2.54528  -1.09903 
 H                    -1.74037   2.41623   0.42751 
 H                    -1.26108   1.4366   -0.89638 
 H                    -4.96975   1.22939  -0.07472 
 H                    -4.33811   0.76299  -1.64304 
 H                    -4.70333  -0.4955   -0.41182 
 C                    -1.50156   0.219     1.98727 
 H                    -2.14272   0.80464   2.65401 
 H                    -1.08796  -0.60943   2.56197 
 H                    -0.67329   0.84877   1.66348 
 C                    -0.90395  -2.40087   0.52621 
 H                    -1.78059  -2.98414   0.8229 
 H                    -0.28741  -3.01139  -0.14146 
 H                    -0.29986  -2.16218   1.39992 
 C                    -2.07289  -1.55292  -1.53484 
 H                    -1.42723  -2.21725  -2.11602 
 H                    -3.00094  -2.08759  -1.30626 
 H                    -2.29446  -0.68744  -2.16535 
 
                    Distance matrix (angstroms):
                    1          2          3          4          5
     1  O    0.000000
     2  C    1.348567   0.000000
     3  C    2.497645   1.700000   0.000000
     4  C    2.950004   2.482775   1.434985   0.000000
     5  C    4.137279   3.436422   2.544350   1.482286   0.000000
     6  Fe   1.874433   3.066617   3.935325   4.467043   5.817518
     7  Cl   3.262075   4.421141   5.724526   6.095796   7.242598
     8  C    2.943575   3.138462   2.495428   1.460060   2.537167
     9  Cl   3.365701   3.952274   4.539482   5.558353   6.935576
    10  Cl   3.216491   4.368203   4.515838   4.560670   5.955138
    11  H    3.350204   2.228263   1.093103   2.090067   2.620116
    12  H    3.821837   4.026514   3.442125   2.154232   2.651575
    13  H    3.310506   3.652094   2.804733   2.143133   3.352229
    14  H    2.078289   2.655687   2.653012   2.041610   3.199594
    15  H    4.997969   4.367629   3.177569   2.089096   1.102310
    16  H    4.355873   3.835358   3.340118   2.142017   1.096407
    17  H    4.448499   3.459884   2.675878   2.161165   1.091023
    18  C    2.928070   2.640902   1.534847   2.516403   3.811224
    19  H    3.936199   3.608733   2.164711   2.788631   3.900057
    20  H    3.278510   2.887222   2.174133   3.437730   4.632280
    21  H    2.600097   2.845413   2.190227   2.830775   4.281935
    22  C    2.417545   1.540902   2.551426   3.755563   4.609531
    23  H    3.349185   2.191193   2.738320   3.956700   4.530651
    24  H    2.689988   2.132489   3.520647   4.570910   5.358947
    25  H    2.692280   2.198407   2.815918   4.149963   5.204196
    26  C    2.361467   1.536570   2.663209   2.858076   3.185400
    27  H    2.664946   2.141768   3.604987   3.906524   4.251615
    28  H    3.314613   2.199882   2.844609   3.075338   2.994392
    29  H    2.586493   2.187480   2.992577   2.643974   2.827467
                    6          7          8          9         10
     6  Fe   0.000000
     7  Cl   2.193190   0.000000
     8  C    4.059428   5.615622   0.000000
     9  Cl   2.209183   3.662558   5.512196   0.000000
    10  Cl   2.226475   3.698365   3.569619   3.634394   0.000000
    11  H    4.840299   6.546390   3.417644   5.168546   5.583845
    12  H    4.924665   6.250796   1.090585   6.533564   4.223531
    13  H    3.987175   5.767834   1.095518   5.218267   3.055872
    14  H    3.140089   4.525748   1.116430   4.858220   2.943376
    15  H    6.543194   8.099801   2.890634   7.578609   6.379245
    16  H    6.051769   7.210492   2.723460   7.445143   6.150975
    17  H    6.221646   7.605956   3.464672   7.126449   6.669221
    18  C    3.642066   5.741139   2.993962   3.744904   3.920073
    19  H    4.602499   6.738811   3.252155   4.624704   4.476900
    20  H    3.772737   5.824291   4.025817   3.267266   4.440906
    21  H    2.877200   5.039743   2.761219   3.247830   2.849887
    22  C    3.529657   4.785735   4.554462   3.560950   5.220484
    23  H    4.599392   5.852998   5.025878   4.485371   6.164893
    24  H    3.600355   4.348476   5.240153   3.704234   5.576875
    25  H    3.264574   4.768476   4.803368   2.716098   4.900862
    26  C    4.181727   4.989901   3.601981   5.340881   5.437072
    27  H    4.241421   4.589499   4.488227   5.394206   5.796193
    28  H    5.140022   6.036983   4.140008   6.050987   6.353479
    29  H    4.376920   5.092124   3.099736   5.879726   5.271414
                   11         12         13         14         15
    11  H    0.000000
    12  H    4.240993   0.000000
    13  H    3.774066   1.803616   0.000000
    14  H    3.669066   1.821659   1.715255   0.000000
    15  H    3.208962   2.822749   3.477037   3.804254   0.000000
    16  H    3.542763   2.486248   3.710615   3.237186   1.753886
    17  H    2.314936   3.709867   4.238134   3.977043   1.777595
    18  C    2.189991   4.044075   2.705128   3.139399   4.159455
    19  H    2.580696   4.173385   2.777848   3.712410   3.952024
    20  H    2.482380   5.092041   3.759817   4.021995   5.040018
    21  H    3.097447   3.819127   2.263449   2.691457   4.650355
    22  C    2.604241   5.504890   4.890180   4.108223   5.483676
    23  H    2.330340   5.924481   5.414982   4.771667   5.360070
    24  H    3.613969   6.129983   5.647468   4.615467   6.317673
    25  H    2.982621   5.841955   4.897198   4.375865   5.956950
    26  C    2.868202   4.167587   4.440225   3.162896   4.273755
    27  H    3.798778   5.031518   5.294975   3.855609   5.347490
    28  H    2.631805   4.647767   4.987926   3.951583   4.049103
    29  H    3.385936   3.427204   4.082000   2.681357   3.898995
                   16         17         18         19         20
    16  H    0.000000
    17  H    1.798077   0.000000
    18  C    4.639081   4.064162   0.000000
    19  H    4.825567   4.200754   1.094814   0.000000
    20  H    5.489005   4.682661   1.089793   1.766522   0.000000
    21  H    4.936733   4.728118   1.089717   1.772662   1.762270
    22  C    5.148704   4.352658   3.058685   4.041958   2.717990
    23  H    5.163604   4.032404   3.419606   4.223620   3.023800
    24  H    5.736625   5.089511   4.054752   5.081230   3.703892
    25  H    5.841552   5.044875   2.731131   3.710920   2.093442
    26  C    3.241351   3.049343   3.983888   4.807229   4.317890
    27  H    4.192702   4.074496   4.772606   5.691829   4.958205
    28  H    3.166585   2.496576   4.291357   4.978474   4.561538
    29  H    2.559897   2.985695   4.323719   5.047333   4.879481
                   21         22         23         24         25
    21  H    0.000000
    22  C    3.450624   0.000000
    23  H    4.077247   1.093956   0.000000
    24  H    4.278735   1.094816   1.777730   0.000000
    25  H    3.045453   1.088702   1.789172   1.759874   0.000000
    26  C    4.237489   2.516622   2.773590   2.693809   3.482484
    27  H    4.924790   2.699797   3.057819   2.414279   3.692674
    28  H    4.781160   2.802398   2.612732   3.094090   3.824236
    29  H    4.432616   3.480499   3.803761   3.677654   4.343326
                   26         27         28         29
    26  C    0.000000
    27  H    1.093608   0.000000
    28  H    1.095164   1.774565   0.000000
    29  H    1.093480   1.759215   1.788182   0.000000
 Framework group  C1[X(C8H16Cl3FeO)]
 Deg. of freedom    81
                         Standard orientation:                         
 ---------------------------------------------------------------------
 Center     Atomic      Atomic             Coordinates (Angstroms)
 Number     Number       Type             X           Y           Z
 ---------------------------------------------------------------------
      1          8           0       -0.260875   -0.361035   -0.600757
      2          6           0       -1.307658   -1.143009   -0.266998
      3          6           0       -2.326533   -0.300880    0.801980
      4          6           0       -2.949154    0.702365   -0.013511
      5          6           0       -4.305997    0.507021   -0.577416
      6         26           0        1.479558    0.125312   -0.102904
      7         17           0        2.775935   -0.403033   -1.791199
      8          6           0       -2.172093    1.870254   -0.418465
      9         17           0        2.069649   -0.887129    1.769860
     10         17           0        1.308014    2.318986    0.237033
     11          1           0       -3.054347   -1.054520    1.113728
     12          1           0       -2.692227    2.545283   -1.099033
     13          1           0       -1.740365    2.416234    0.427511
     14          1           0       -1.261076    1.436599   -0.896384
     15          1           0       -4.969753    1.229389   -0.074724
     16          1           0       -4.338109    0.762993   -1.643040
     17          1           0       -4.703325   -0.495496   -0.411819
     18          6           0       -1.501559    0.218996    1.987266
     19          1           0       -2.142725    0.804637    2.654011
     20          1           0       -1.087956   -0.609432    2.561973
     21          1           0       -0.673292    0.848774    1.663482
     22          6           0       -0.903946   -2.400873    0.526206
     23          1           0       -1.780591   -2.984144    0.822902
     24          1           0       -0.287410   -3.011389   -0.141459
     25          1           0       -0.299859   -2.162184    1.399921
     26          6           0       -2.072895   -1.552921   -1.534843
     27          1           0       -1.427232   -2.217248   -2.116020
     28          1           0       -3.000938   -2.087588   -1.306255
     29          1           0       -2.294455   -0.687435   -2.165353
 ---------------------------------------------------------------------
 Rotational constants (GHZ):           0.6294140           0.3107979           0.2957390
   427 basis functions,  1056 primitive gaussians,   461 cartesian basis functions
    77 alpha electrons       72 beta electrons
       nuclear repulsion energy      1639.1140236131 Hartrees.
 NAtoms=   29 NActive=   29 NUniq=   29 SFac= 1.00D+00 NAtFMM=   60 NAOKFM=F Big=F
 Nuclear repulsion after empirical dispersion term =     1639.0456629806 Hartrees.
 Initial guess from the checkpoint file:  "checkpoint.chk"
 B after Tr=     0.000000    0.000000    0.000000
         Rot=    1.000000    0.000000    0.000000    0.000000 Ang=   0.00 deg.
 Initial guess <Sx>= 0.0000 <Sy>= 0.0000 <Sz>= 2.5000 <S**2>= 8.7621 S= 2.5020
 SCF Done:  E(UB3LYP) =  -3034.38965194     A.U. after    1 cycles
            NFock=  1  Conv=0.20D-08     -V/T= 2.0024
 <Sx>= 0.0000 <Sy>= 0.0000 <Sz>= 2.5000 <S**2>= 8.7621 S= 2.5020
 <L.S>= 0.000000000000E+00
 Annihilation of the first spin contaminant:
 S**2 before annihilation     8.7621,   after     8.7500
 1\1\GINC-HOLY7C18605\SP\UB3LYP\Jul-CC-pVDZ\C8H16Cl3Fe1O1(6)\EKWAN\11-F
 eb-2020\0\\#t pop=none jul-cc-pvdz guess=read ub3lyp empiricaldispersi
 on=gd3bj\\theory_abbreviation b3lyp_d3bj\\0,6\O,0,-0.260875,-0.361035,
 -0.600757\C,0,-1.307658,-1.143009,-0.266998\C,0,-2.326533,-0.30088,0.8
 0198\C,0,-2.949154,0.702365,-0.013511\C,0,-4.305997,0.507021,-0.577416
 \Fe,0,1.479558,0.125312,-0.102904\Cl,0,2.775935,-0.403033,-1.791199\C,
 0,-2.172093,1.870254,-0.418465\Cl,0,2.069649,-0.887129,1.76986\Cl,0,1.
 308014,2.318986,0.237033\H,0,-3.054347,-1.05452,1.113728\H,0,-2.692227
 ,2.545283,-1.099033\H,0,-1.740365,2.416234,0.427511\H,0,-1.261076,1.43
 6599,-0.896384\H,0,-4.969753,1.229389,-0.074724\H,0,-4.338109,0.762993
 ,-1.64304\H,0,-4.703325,-0.495496,-0.411819\C,0,-1.501559,0.218996,1.9
 87266\H,0,-2.142725,0.804637,2.654011\H,0,-1.087956,-0.609432,2.561973
 \H,0,-0.673292,0.848774,1.663482\C,0,-0.903946,-2.400873,0.526206\H,0,
 -1.780591,-2.984144,0.822902\H,0,-0.28741,-3.011389,-0.141459\H,0,-0.2
 99859,-2.162184,1.399921\C,0,-2.072895,-1.552921,-1.534843\H,0,-1.4272
 32,-2.217248,-2.11602\H,0,-3.000938,-2.087588,-1.306255\H,0,-2.294455,
 -0.687435,-2.165353\\Version=ES64L-G16RevA.03\HF=-3034.3896519\S2=8.76
 2105\S2-1=0.\S2A=8.750046\RMSD=1.981e-09\PG=C01 [X(C8H16Cl3Fe1O1)]\\@


 GROWING OLD ISN'T SO BAD -- WHEN YOU CONSIDER THE ALTERNATIVE.

                     -- MAURICE CHEVALIER
 Job cpu time:       0 days  0 hours  4 minutes 56.7 seconds.
 Elapsed time:       0 days  0 hours  2 minutes 28.3 seconds.
 File lengths (MBytes):  RWF=    170 Int=      0 D2E=      0 Chk=     13 Scr=      1
 Normal termination of Gaussian 16 at Tue Feb 11 15:07:51 2020.
 Initial command:
 /n/sw/g16_nehalem/g16/l1.exe "/scratch/Gau-5801.inp" -scrdir="/scratch/"
 Entering Link 1 = /n/sw/g16_nehalem/g16/l1.exe PID=     15058.
  
 Copyright (c) 1988,1990,1992,1993,1995,1998,2003,2009,2016,
            Gaussian, Inc.  All Rights Reserved.
  
 This is part of the Gaussian(R) 16 program.  It is based on
 the Gaussian(R) 09 system (copyright 2009, Gaussian, Inc.),
 the Gaussian(R) 03 system (copyright 2003, Gaussian, Inc.),
 the Gaussian(R) 98 system (copyright 1998, Gaussian, Inc.),
 the Gaussian(R) 94 system (copyright 1995, Gaussian, Inc.),
 the Gaussian 92(TM) system (copyright 1992, Gaussian, Inc.),
 the Gaussian 90(TM) system (copyright 1990, Gaussian, Inc.),
 the Gaussian 88(TM) system (copyright 1988, Gaussian, Inc.),
 the Gaussian 86(TM) system (copyright 1986, Carnegie Mellon
 University), and the Gaussian 82(TM) system (copyright 1983,
 Carnegie Mellon University). Gaussian is a federally registered
 trademark of Gaussian, Inc.
  
 This software contains proprietary and confidential information,
 including trade secrets, belonging to Gaussian, Inc.
  
 This software is provided under written license and may be
 used, copied, transmitted, or stored only in accord with that
 written license.
  
 The following legend is applicable only to US Government
 contracts under FAR:
  
                    RESTRICTED RIGHTS LEGEND
  
 Use, reproduction and disclosure by the US Government is
 subject to restrictions as set forth in subparagraphs (a)
 and (c) of the Commercial Computer Software - Restricted
 Rights clause in FAR 52.227-19.
  
 Gaussian, Inc.
 340 Quinnipiac St., Bldg. 40, Wallingford CT 06492
  
  
 ---------------------------------------------------------------
 Warning -- This program may not be used in any manner that
 competes with the business of Gaussian, Inc. or will provide
 assistance to any competitor of Gaussian, Inc.  The licensee
 of this program is prohibited from giving any competitor of
 Gaussian, Inc. access to this program.  By using this program,
 the user acknowledges that Gaussian, Inc. is engaged in the
 business of creating and licensing software in the field of
 computational chemistry and represents and warrants to the
 licensee that it is not a competitor of Gaussian, Inc. and that
 it will not use this program in any manner prohibited above.
 ---------------------------------------------------------------
  

 Cite this work as:
 Gaussian 16, Revision A.03,
 M. J. Frisch, G. W. Trucks, H. B. Schlegel, G. E. Scuseria, 
 M. A. Robb, J. R. Cheeseman, G. Scalmani, V. Barone, 
 G. A. Petersson, H. Nakatsuji, X. Li, M. Caricato, A. V. Marenich, 
 J. Bloino, B. G. Janesko, R. Gomperts, B. Mennucci, H. P. Hratchian, 
 J. V. Ortiz, A. F. Izmaylov, J. L. Sonnenberg, D. Williams-Young, 
 F. Ding, F. Lipparini, F. Egidi, J. Goings, B. Peng, A. Petrone, 
 T. Henderson, D. Ranasinghe, V. G. Zakrzewski, J. Gao, N. Rega, 
 G. Zheng, W. Liang, M. Hada, M. Ehara, K. Toyota, R. Fukuda, 
 J. Hasegawa, M. Ishida, T. Nakajima, Y. Honda, O. Kitao, H. Nakai, 
 T. Vreven, K. Throssell, J. A. Montgomery, Jr., J. E. Peralta, 
 F. Ogliaro, M. J. Bearpark, J. J. Heyd, E. N. Brothers, K. N. Kudin, 
 V. N. Staroverov, T. A. Keith, R. Kobayashi, J. Normand, 
 K. Raghavachari, A. P. Rendell, J. C. Burant, S. S. Iyengar, 
 J. Tomasi, M. Cossi, J. M. Millam, M. Klene, C. Adamo, R. Cammi, 
 J. W. Ochterski, R. L. Martin, K. Morokuma, O. Farkas, 
 J. B. Foresman, and D. J. Fox, Gaussian, Inc., Wallingford CT, 2016.
 
 ******************************************
 Gaussian 16:  ES64L-G16RevA.03 25-Dec-2016
                11-Feb-2020 
 ******************************************
 %chk=checkpoint.chk
 %mem=3GB
 %nprocshared=4
 Will use up to    4 processors via shared memory.
 ----------------------------------------
 #t pop=none jul-cc-pvdz guess=read ub97d
 ----------------------------------------
 ------------------------
 theory_abbreviation b97d
 ------------------------
 Symbolic Z-matrix:
 Charge =  0 Multiplicity = 6
 O                    -0.26088  -0.36104  -0.60076 
 C                    -1.30766  -1.14301  -0.267 
 C                    -2.32653  -0.30088   0.80198 
 C                    -2.94915   0.70237  -0.01351 
 C                    -4.306     0.50702  -0.57742 
 Fe                    1.47956   0.12531  -0.1029 
 Cl                    2.77594  -0.40303  -1.7912 
 C                    -2.17209   1.87025  -0.41847 
 Cl                    2.06965  -0.88713   1.76986 
 Cl                    1.30801   2.31899   0.23703 
 H                    -3.05435  -1.05452   1.11373 
 H                    -2.69223   2.54528  -1.09903 
 H                    -1.74037   2.41623   0.42751 
 H                    -1.26108   1.4366   -0.89638 
 H                    -4.96975   1.22939  -0.07472 
 H                    -4.33811   0.76299  -1.64304 
 H                    -4.70333  -0.4955   -0.41182 
 C                    -1.50156   0.219     1.98727 
 H                    -2.14272   0.80464   2.65401 
 H                    -1.08796  -0.60943   2.56197 
 H                    -0.67329   0.84877   1.66348 
 C                    -0.90395  -2.40087   0.52621 
 H                    -1.78059  -2.98414   0.8229 
 H                    -0.28741  -3.01139  -0.14146 
 H                    -0.29986  -2.16218   1.39992 
 C                    -2.07289  -1.55292  -1.53484 
 H                    -1.42723  -2.21725  -2.11602 
 H                    -3.00094  -2.08759  -1.30626 
 H                    -2.29446  -0.68744  -2.16535 
 
                    Distance matrix (angstroms):
                    1          2          3          4          5
     1  O    0.000000
     2  C    1.348567   0.000000
     3  C    2.497645   1.700000   0.000000
     4  C    2.950004   2.482775   1.434985   0.000000
     5  C    4.137279   3.436422   2.544350   1.482286   0.000000
     6  Fe   1.874433   3.066617   3.935325   4.467043   5.817518
     7  Cl   3.262075   4.421141   5.724526   6.095796   7.242598
     8  C    2.943575   3.138462   2.495428   1.460060   2.537167
     9  Cl   3.365701   3.952274   4.539482   5.558353   6.935576
    10  Cl   3.216491   4.368203   4.515838   4.560670   5.955138
    11  H    3.350204   2.228263   1.093103   2.090067   2.620116
    12  H    3.821837   4.026514   3.442125   2.154232   2.651575
    13  H    3.310506   3.652094   2.804733   2.143133   3.352229
    14  H    2.078289   2.655687   2.653012   2.041610   3.199594
    15  H    4.997969   4.367629   3.177569   2.089096   1.102310
    16  H    4.355873   3.835358   3.340118   2.142017   1.096407
    17  H    4.448499   3.459884   2.675878   2.161165   1.091023
    18  C    2.928070   2.640902   1.534847   2.516403   3.811224
    19  H    3.936199   3.608733   2.164711   2.788631   3.900057
    20  H    3.278510   2.887222   2.174133   3.437730   4.632280
    21  H    2.600097   2.845413   2.190227   2.830775   4.281935
    22  C    2.417545   1.540902   2.551426   3.755563   4.609531
    23  H    3.349185   2.191193   2.738320   3.956700   4.530651
    24  H    2.689988   2.132489   3.520647   4.570910   5.358947
    25  H    2.692280   2.198407   2.815918   4.149963   5.204196
    26  C    2.361467   1.536570   2.663209   2.858076   3.185400
    27  H    2.664946   2.141768   3.604987   3.906524   4.251615
    28  H    3.314613   2.199882   2.844609   3.075338   2.994392
    29  H    2.586493   2.187480   2.992577   2.643974   2.827467
                    6          7          8          9         10
     6  Fe   0.000000
     7  Cl   2.193190   0.000000
     8  C    4.059428   5.615622   0.000000
     9  Cl   2.209183   3.662558   5.512196   0.000000
    10  Cl   2.226475   3.698365   3.569619   3.634394   0.000000
    11  H    4.840299   6.546390   3.417644   5.168546   5.583845
    12  H    4.924665   6.250796   1.090585   6.533564   4.223531
    13  H    3.987175   5.767834   1.095518   5.218267   3.055872
    14  H    3.140089   4.525748   1.116430   4.858220   2.943376
    15  H    6.543194   8.099801   2.890634   7.578609   6.379245
    16  H    6.051769   7.210492   2.723460   7.445143   6.150975
    17  H    6.221646   7.605956   3.464672   7.126449   6.669221
    18  C    3.642066   5.741139   2.993962   3.744904   3.920073
    19  H    4.602499   6.738811   3.252155   4.624704   4.476900
    20  H    3.772737   5.824291   4.025817   3.267266   4.440906
    21  H    2.877200   5.039743   2.761219   3.247830   2.849887
    22  C    3.529657   4.785735   4.554462   3.560950   5.220484
    23  H    4.599392   5.852998   5.025878   4.485371   6.164893
    24  H    3.600355   4.348476   5.240153   3.704234   5.576875
    25  H    3.264574   4.768476   4.803368   2.716098   4.900862
    26  C    4.181727   4.989901   3.601981   5.340881   5.437072
    27  H    4.241421   4.589499   4.488227   5.394206   5.796193
    28  H    5.140022   6.036983   4.140008   6.050987   6.353479
    29  H    4.376920   5.092124   3.099736   5.879726   5.271414
                   11         12         13         14         15
    11  H    0.000000
    12  H    4.240993   0.000000
    13  H    3.774066   1.803616   0.000000
    14  H    3.669066   1.821659   1.715255   0.000000
    15  H    3.208962   2.822749   3.477037   3.804254   0.000000
    16  H    3.542763   2.486248   3.710615   3.237186   1.753886
    17  H    2.314936   3.709867   4.238134   3.977043   1.777595
    18  C    2.189991   4.044075   2.705128   3.139399   4.159455
    19  H    2.580696   4.173385   2.777848   3.712410   3.952024
    20  H    2.482380   5.092041   3.759817   4.021995   5.040018
    21  H    3.097447   3.819127   2.263449   2.691457   4.650355
    22  C    2.604241   5.504890   4.890180   4.108223   5.483676
    23  H    2.330340   5.924481   5.414982   4.771667   5.360070
    24  H    3.613969   6.129983   5.647468   4.615467   6.317673
    25  H    2.982621   5.841955   4.897198   4.375865   5.956950
    26  C    2.868202   4.167587   4.440225   3.162896   4.273755
    27  H    3.798778   5.031518   5.294975   3.855609   5.347490
    28  H    2.631805   4.647767   4.987926   3.951583   4.049103
    29  H    3.385936   3.427204   4.082000   2.681357   3.898995
                   16         17         18         19         20
    16  H    0.000000
    17  H    1.798077   0.000000
    18  C    4.639081   4.064162   0.000000
    19  H    4.825567   4.200754   1.094814   0.000000
    20  H    5.489005   4.682661   1.089793   1.766522   0.000000
[...]
 Rotational constants (GHZ):           0.6294140           0.3107979           0.2957390
   427 basis functions,  1056 primitive gaussians,   461 cartesian basis functions
    77 alpha electrons       72 beta electrons
       nuclear repulsion energy      1639.1140236131 Hartrees.
 NAtoms=   29 NActive=   29 NUniq=   29 SFac= 1.00D+00 NAtFMM=   60 NAOKFM=F Big=F
 Nuclear repulsion after empirical dispersion term =     1639.1116484330 Hartrees.
 Initial guess from the checkpoint file:  "checkpoint.chk"
 B after Tr=     0.000000    0.000000    0.000000
         Rot=    1.000000    0.000000    0.000000    0.000000 Ang=   0.00 deg.
 Initial guess <Sx>= 0.0000 <Sy>= 0.0000 <Sz>= 2.5000 <S**2>= 8.7618 S= 2.5020
 SCF Done:  E(UM06L) =  -3034.18932109     A.U. after   17 cycles
            NFock= 17  Conv=0.95D-08     -V/T= 2.0020
 <Sx>= 0.0000 <Sy>= 0.0000 <Sz>= 2.5000 <S**2>= 8.7624 S= 2.5021
 <L.S>= 0.000000000000E+00
 Annihilation of the first spin contaminant:
 S**2 before annihilation     8.7624,   after     8.7500
 1\1\GINC-HOLY7C18605\SP\UM06L\Jul-CC-pVDZ\C8H16Cl3Fe1O1(6)\EKWAN\12-Fe
 b-2020\0\\#t pop=none jul-cc-pvdz guess=read um06l empiricaldispersion
 =gd3\\theory_abbreviation m06l_d3\\0,6\O,0,-0.260875,-0.361035,-0.6007
 57\C,0,-1.307658,-1.143009,-0.266998\C,0,-2.326533,-0.30088,0.80198\C,
 0,-2.949154,0.702365,-0.013511\C,0,-4.305997,0.507021,-0.577416\Fe,0,1
 .479558,0.125312,-0.102904\Cl,0,2.775935,-0.403033,-1.791199\C,0,-2.17
 2093,1.870254,-0.418465\Cl,0,2.069649,-0.887129,1.76986\Cl,0,1.308014,
 2.318986,0.237033\H,0,-3.054347,-1.05452,1.113728\H,0,-2.692227,2.5452
 83,-1.099033\H,0,-1.740365,2.416234,0.427511\H,0,-1.261076,1.436599,-0
 .896384\H,0,-4.969753,1.229389,-0.074724\H,0,-4.338109,0.762993,-1.643
 04\H,0,-4.703325,-0.495496,-0.411819\C,0,-1.501559,0.218996,1.987266\H
 ,0,-2.142725,0.804637,2.654011\H,0,-1.087956,-0.609432,2.561973\H,0,-0
 .673292,0.848774,1.663482\C,0,-0.903946,-2.400873,0.526206\H,0,-1.7805
 91,-2.984144,0.822902\H,0,-0.28741,-3.011389,-0.141459\H,0,-0.299859,-
 2.162184,1.399921\C,0,-2.072895,-1.552921,-1.534843\H,0,-1.427232,-2.2
 17248,-2.11602\H,0,-3.000938,-2.087588,-1.306255\H,0,-2.294455,-0.6874
 35,-2.165353\\Version=ES64L-G16RevA.03\HF=-3034.1893211\S2=8.762391\S2
 -1=0.\S2A=8.750049\RMSD=9.472e-09\PG=C01 [X(C8H16Cl3Fe1O1)]\\@


 I WISH TO HAVE NO CONNECTION WITH ANY SHIP THAT DOES NOT SAIL FAST,
 FOR I INTEND TO GO IN HARM'S WAY.
     -- JOHN PAUL JONES, USN 1747-1792
 Job cpu time:       0 days  1 hours 12 minutes 48.4 seconds.
 Elapsed time:       0 days  0 hours 18 minutes 25.6 seconds.
 File lengths (MBytes):  RWF=    174 Int=      0 D2E=      0 Chk=     13 Scr=      1
 Normal termination of Gaussian 16 at Wed Feb 12 01:59:23 2020.
 Initial command:
 /n/sw/g16_nehalem/g16/l1.exe "/scratch/Gau-5801.inp" -scrdir="/scratch/"
 Entering Link 1 = /n/sw/g16_nehalem/g16/l1.exe PID=    105012.
  
 Copyright (c) 1988,1990,1992,1993,1995,1998,2003,2009,2016,
            Gaussian, Inc.  All Rights Reserved.
  
 This is part of the Gaussian(R) 16 program.  It is based on
 the Gaussian(R) 09 system (copyright 2009, Gaussian, Inc.),
 the Gaussian(R) 03 system (copyright 2003, Gaussian, Inc.),
 the Gaussian(R) 98 system (copyright 1998, Gaussian, Inc.),
 the Gaussian(R) 94 system (copyright 1995, Gaussian, Inc.),
 the Gaussian 92(TM) system (copyright 1992, Gaussian, Inc.),
 the Gaussian 90(TM) system (copyright 1990, Gaussian, Inc.),
 the Gaussian 88(TM) system (copyright 1988, Gaussian, Inc.),
 the Gaussian 86(TM) system (copyright 1986, Carnegie Mellon
 University), and the Gaussian 82(TM) system (copyright 1983,
 Carnegie Mellon University). Gaussian is a federally registered
 trademark of Gaussian, Inc.
  
 This software contains proprietary and confidential information,
 including trade secrets, belonging to Gaussian, Inc.
  
 This software is provided under written license and may be
 used, copied, transmitted, or stored only in accord with that
 written license.
  
 The following legend is applicable only to US Government
 contracts under FAR:
  
                    RESTRICTED RIGHTS LEGEND
  
 Use, reproduction and disclosure by the US Government is
 subject to restrictions as set forth in subparagraphs (a)
 and (c) of the Commercial Computer Software - Restricted
 Rights clause in FAR 52.227-19.
  
 Gaussian, Inc.
 340 Quinnipiac St., Bldg. 40, Wallingford CT 06492
  
  
 ---------------------------------------------------------------
 Warning -- This program may not be used in any manner that
 competes with the business of Gaussian, Inc. or will provide
 assistance to any competitor of Gaussian, Inc.  The licensee
 of this program is prohibited from giving any competitor of
 Gaussian, Inc. access to this program.  By using this program,
 the user acknowledges that Gaussian, Inc. is engaged in the
 business of creating and licensing software in the field of
 computational chemistry and represents and warrants to the
 licensee that it is not a competitor of Gaussian, Inc. and that
 it will not use this program in any manner prohibited above.
 ---------------------------------------------------------------
  

 Cite this work as:
 Gaussian 16, Revision A.03,
 M. J. Frisch, G. W. Trucks, H. B. Schlegel, G. E. Scuseria, 
 M. A. Robb, J. R. Cheeseman, G. Scalmani, V. Barone, 
 G. A. Petersson, H. Nakatsuji, X. Li, M. Caricato, A. V. Marenich, 
 J. Bloino, B. G. Janesko, R. Gomperts, B. Mennucci, H. P. Hratchian, 
 J. V. Ortiz, A. F. Izmaylov, J. L. Sonnenberg, D. Williams-Young, 
 F. Ding, F. Lipparini, F. Egidi, J. Goings, B. Peng, A. Petrone, 
 T. Henderson, D. Ranasinghe, V. G. Zakrzewski, J. Gao, N. Rega, 
 G. Zheng, W. Liang, M. Hada, M. Ehara, K. Toyota, R. Fukuda, 
 J. Hasegawa, M. Ishida, T. Nakajima, Y. Honda, O. Kitao, H. Nakai, 
 T. Vreven, K. Throssell, J. A. Montgomery, Jr., J. E. Peralta, 
 F. Ogliaro, M. J. Bearpark, J. J. Heyd, E. N. Brothers, K. N. Kudin, 
 V. N. Staroverov, T. A. Keith, R. Kobayashi, J. Normand, 
 K. Raghavachari, A. P. Rendell, J. C. Burant, S. S. Iyengar, 
 J. Tomasi, M. Cossi, J. M. Millam, M. Klene, C. Adamo, R. Cammi, 
 J. W. Ochterski, R. L. Martin, K. Morokuma, O. Farkas, 
 J. B. Foresman, and D. J. Fox, Gaussian, Inc., Wallingford CT, 2016.
 
 ******************************************
 Gaussian 16:  ES64L-G16RevA.03 25-Dec-2016
                12-Feb-2020 
 ******************************************
 %chk=checkpoint.chk
 %mem=3GB
 %nprocshared=4
 Will use up to    4 processors via shared memory.
 -------------------------------------------------------------------
 #t pop=none jul-cc-pvdz guess=read ub97d3 empiricaldispersion=gd3bj
 -------------------------------------------------------------------
 ------------------------------
 theory_abbreviation b97d3_d3bj
 ------------------------------
 Symbolic Z-matrix:
 Charge =  0 Multiplicity = 6
 O                    -0.26088  -0.36104  -0.60076 
 C                    -1.30766  -1.14301  -0.267 
 C                    -2.32653  -0.30088   0.80198 
 C                    -2.94915   0.70237  -0.01351 
 C                    -4.306     0.50702  -0.57742 
 Fe                    1.47956   0.12531  -0.1029 
 Cl                    2.77594  -0.40303  -1.7912 
 C                    -2.17209   1.87025  -0.41847 
 Cl                    2.06965  -0.88713   1.76986 
 Cl                    1.30801   2.31899   0.23703 
 H                    -3.05435  -1.05452   1.11373 
 H                    -2.69223   2.54528  -1.09903 
 H                    -1.74037   2.41623   0.42751 
 H                    -1.26108   1.4366   -0.89638 
 H                    -4.96975   1.22939  -0.07472 
 H                    -4.33811   0.76299  -1.64304 
 H                    -4.70333  -0.4955   -0.41182 
 C                    -1.50156   0.219     1.98727 
 H                    -2.14272   0.80464   2.65401 
 H                    -1.08796  -0.60943   2.56197 
 H                    -0.67329   0.84877   1.66348 
 C                    -0.90395  -2.40087   0.52621 
 H                    -1.78059  -2.98414   0.8229 
 H                    -0.28741  -3.01139  -0.14146 
 H                    -0.29986  -2.16218   1.39992 
 C                    -2.07289  -1.55292  -1.53484 
 H                    -1.42723  -2.21725  -2.11602 
 H                    -3.00094  -2.08759  -1.30626 
 H                    -2.29446  -0.68744  -2.16535 
 
                    Distance matrix (angstroms):
                    1          2          3          4          5
     1  O    0.000000
     2  C    1.348567   0.000000
     3  C    2.497645   1.700000   0.000000
     4  C    2.950004   2.482775   1.434985   0.000000
     5  C    4.137279   3.436422   2.544350   1.482286   0.000000
     6  Fe   1.874433   3.066617   3.935325   4.467043   5.817518
     7  Cl   3.262075   4.421141   5.724526   6.095796   7.242598
     8  C    2.943575   3.138462   2.495428   1.460060   2.537167
     9  Cl   3.365701   3.952274   4.539482   5.558353   6.935576
    10  Cl   3.216491   4.368203   4.515838   4.560670   5.955138
    11  H    3.350204   2.228263   1.093103   2.090067   2.620116
    12  H    3.821837   4.026514   3.442125   2.154232   2.651575
    13  H    3.310506   3.652094   2.804733   2.143133   3.352229
    14  H    2.078289   2.655687   2.653012   2.041610   3.199594
    15  H    4.997969   4.367629   3.177569   2.089096   1.102310
    16  H    4.355873   3.835358   3.340118   2.142017   1.096407
    17  H    4.448499   3.459884   2.675878   2.161165   1.091023
    18  C    2.928070   2.640902   1.534847   2.516403   3.811224
    19  H    3.936199   3.608733   2.164711   2.788631   3.900057
    20  H    3.278510   2.887222   2.174133   3.437730   4.632280
    21  H    2.600097   2.845413   2.190227   2.830775   4.281935
    22  C    2.417545   1.540902   2.551426   3.755563   4.609531
    23  H    3.349185   2.191193   2.738320   3.956700   4.530651
    24  H    2.689988   2.132489   3.520647   4.570910   5.358947
    25  H    2.692280   2.198407   2.815918   4.149963   5.204196
    26  C    2.361467   1.536570   2.663209   2.858076   3.185400
    27  H    2.664946   2.141768   3.604987   3.906524   4.251615
    28  H    3.314613   2.199882   2.844609   3.075338   2.994392
    29  H    2.586493   2.187480   2.992577   2.643974   2.827467
                    6          7          8          9         10
     6  Fe   0.000000
     7  Cl   2.193190   0.000000
     8  C    4.059428   5.615622   0.000000
     9  Cl   2.209183   3.662558   5.512196   0.000000
    10  Cl   2.226475   3.698365   3.569619   3.634394   0.000000
    11  H    4.840299   6.546390   3.417644   5.168546   5.583845
    12  H    4.924665   6.250796   1.090585   6.533564   4.223531
    13  H    3.987175   5.767834   1.095518   5.218267   3.055872
    14  H    3.140089   4.525748   1.116430   4.858220   2.943376
    15  H    6.543194   8.099801   2.890634   7.578609   6.379245
    16  H    6.051769   7.210492   2.723460   7.445143   6.150975
    17  H    6.221646   7.605956   3.464672   7.126449   6.669221
    18  C    3.642066   5.741139   2.993962   3.744904   3.920073
    19  H    4.602499   6.738811   3.252155   4.624704   4.476900
    20  H    3.772737   5.824291   4.025817   3.267266   4.440906
    21  H    2.877200   5.039743   2.761219   3.247830   2.849887
    22  C    3.529657   4.785735   4.554462   3.560950   5.220484
    23  H    4.599392   5.852998   5.025878   4.485371   6.164893
    24  H    3.600355   4.348476   5.240153   3.704234   5.576875
    25  H    3.264574   4.768476   4.803368   2.716098   4.900862
    26  C    4.181727   4.989901   3.601981   5.340881   5.437072
    27  H    4.241421   4.589499   4.488227   5.394206   5.796193
    28  H    5.140022   6.036983   4.140008   6.050987   6.353479
    29  H    4.376920   5.092124   3.099736   5.879726   5.271414
                   11         12         13         14         15
    11  H    0.000000
    12  H    4.240993   0.000000
    13  H    3.774066   1.803616   0.000000
    14  H    3.669066   1.821659   1.715255   0.000000
    15  H    3.208962   2.822749   3.477037   3.804254   0.000000
    16  H    3.542763   2.486248   3.710615   3.237186   1.753886
    17  H    2.314936   3.709867   4.238134   3.977043   1.777595
    18  C    2.189991   4.044075   2.705128   3.139399   4.159455
    19  H    2.580696   4.173385   2.777848   3.712410   3.952024
    20  H    2.482380   5.092041   3.759817   4.021995   5.040018
    21  H    3.097447   3.819127   2.263449   2.691457   4.650355
    22  C    2.604241   5.504890   4.890180   4.108223   5.483676
    23  H    2.330340   5.924481   5.414982   4.771667   5.360070
    24  H    3.613969   6.129983   5.647468   4.615467   6.317673
    25  H    2.982621   5.841955   4.897198   4.375865   5.956950
    26  C    2.868202   4.167587   4.440225   3.162896   4.273755
    27  H    3.798778   5.031518   5.294975   3.855609   5.347490
    28  H    2.631805   4.647767   4.987926   3.951583   4.049103
    29  H    3.385936   3.427204   4.082000   2.681357   3.898995
                   16         17         18         19         20
    16  H    0.000000
    17  H    1.798077   0.000000
    18  C    4.639081   4.064162   0.000000
    19  H    4.825567   4.200754   1.094814   0.000000
    20  H    5.489005   4.682661   1.089793   1.766522   0.000000
    21  H    4.936733   4.728118   1.089717   1.772662   1.762270
    22  C    5.148704   4.352658   3.058685   4.041958   2.717990
    23  H    5.163604   4.032404   3.419606   4.223620   3.023800
    24  H    5.736625   5.089511   4.054752   5.081230   3.703892
    25  H    5.841552   5.044875   2.731131   3.710920   2.093442
    26  C    3.241351   3.049343   3.983888   4.807229   4.317890
    27  H    4.192702   4.074496   4.772606   5.691829   4.958205
    28  H    3.166585   2.496576   4.291357   4.978474   4.561538
    29  H    2.559897   2.985695   4.323719   5.047333   4.879481
                   21         22         23         24         25
    21  H    0.000000
    22  C    3.450624   0.000000
    23  H    4.077247   1.093956   0.000000
    24  H    4.278735   1.094816   1.777730   0.000000
    25  H    3.045453   1.088702   1.789172   1.759874   0.000000
    26  C    4.237489   2.516622   2.773590   2.693809   3.482484
    27  H    4.924790   2.699797   3.057819   2.414279   3.692674
    28  H    4.781160   2.802398   2.612732   3.094090   3.824236
    29  H    4.432616   3.480499   3.803761   3.677654   4.343326
                   26         27         28         29
    26  C    0.000000
    27  H    1.093608   0.000000
    28  H    1.095164   1.774565   0.000000
    29  H    1.093480   1.759215   1.788182   0.000000
 Framework group  C1[X(C8H16Cl3FeO)]
 Deg. of freedom    81
                         Standard orientation:                         
 ---------------------------------------------------------------------
 Center     Atomic      Atomic             Coordinates (Angstroms)
 Number     Number       Type             X           Y           Z
 ---------------------------------------------------------------------
      1          8           0       -0.260875   -0.361035   -0.600757
      2          6           0       -1.307658   -1.143009   -0.266998
      3          6           0       -2.326533   -0.300880    0.801980
      4          6           0       -2.949154    0.702365   -0.013511
      5          6           0       -4.305997    0.507021   -0.577416
      6         26           0        1.479558    0.125312   -0.102904
      7         17           0        2.775935   -0.403033   -1.791199
      8          6           0       -2.172093    1.870254   -0.418465
      9         17           0        2.069649   -0.887129    1.769860
     10         17           0        1.308014    2.318986    0.237033
     11          1           0       -3.054347   -1.054520    1.113728
     12          1           0       -2.692227    2.545283   -1.099033
     13          1           0       -1.740365    2.416234    0.427511
     14          1           0       -1.261076    1.436599   -0.896384
     15          1           0       -4.969753    1.229389   -0.074724
     16          1           0       -4.338109    0.762993   -1.643040
     17          1           0       -4.703325   -0.495496   -0.411819
     18          6           0       -1.501559    0.218996    1.987266
     19          1           0       -2.142725    0.804637    2.654011
     20          1           0       -1.087956   -0.609432    2.561973
     21          1           0       -0.673292    0.848774    1.663482
     22          6           0       -0.903946   -2.400873    0.526206
     23          1           0       -1.780591   -2.984144    0.822902
     24          1           0       -0.287410   -3.011389   -0.141459
     25          1           0       -0.299859   -2.162184    1.399921
     26          6           0       -2.072895   -1.552921   -1.534843
     27          1           0       -1.427232   -2.217248   -2.116020
     28          1           0       -3.000938   -2.087588   -1.306255
     29          1           0       -2.294455   -0.687435   -2.165353
 ---------------------------------------------------------------------
 Rotational constants (GHZ):           0.6294140           0.3107979           0.2957390
   427 basis functions,  1056 primitive gaussians,   461 cartesian basis functions
    77 alpha electrons       72 beta electrons
       nuclear repulsion energy      1639.1140236131 Hartrees.
 NAtoms=   29 NActive=   29 NUniq=   29 SFac= 1.00D+00 NAtFMM=   60 NAOKFM=F Big=F
 Nuclear repulsion after empirical dispersion term =     1639.0129659290 Hartrees.
 Initial guess from the checkpoint file:  "checkpoint.chk"
 B after Tr=     0.000000    0.000000    0.000000
         Rot=    1.000000    0.000000    0.000000    0.000000 Ang=   0.00 deg.
 Initial guess <Sx>= 0.0000 <Sy>= 0.0000 <Sz>= 2.5000 <S**2>= 8.7624 S= 2.5021
 EnCoef did     4 forward-backward iterations
 EnCoef did     4 forward-backward iterations
 SCF Done:  E(UB97D3) =  -3034.60926660     A.U. after   16 cycles
            NFock= 16  Conv=0.71D-08     -V/T= 2.0020
 <Sx>= 0.0000 <Sy>= 0.0000 <Sz>= 2.5000 <S**2>= 8.7613 S= 2.5019
 <L.S>= 0.000000000000E+00
 Annihilation of the first spin contaminant:
 S**2 before annihilation     8.7613,   after     8.7500
 1\1\GINC-HOLY7C18605\SP\UB97D3\Jul-CC-pVDZ\C8H16Cl3Fe1O1(6)\EKWAN\12-F
 eb-2020\0\\#t pop=none jul-cc-pvdz guess=read ub97d3 empiricaldispersi
 on=gd3bj\\theory_abbreviation b97d3_d3bj\\0,6\O,0,-0.260875,-0.361035,
 -0.600757\C,0,-1.307658,-1.143009,-0.266998\C,0,-2.326533,-0.30088,0.8
 0198\C,0,-2.949154,0.702365,-0.013511\C,0,-4.305997,0.507021,-0.577416
 \Fe,0,1.479558,0.125312,-0.102904\Cl,0,2.775935,-0.403033,-1.791199\C,
 0,-2.172093,1.870254,-0.418465\Cl,0,2.069649,-0.887129,1.76986\Cl,0,1.
 308014,2.318986,0.237033\H,0,-3.054347,-1.05452,1.113728\H,0,-2.692227
 ,2.545283,-1.099033\H,0,-1.740365,2.416234,0.427511\H,0,-1.261076,1.43
 6599,-0.896384\H,0,-4.969753,1.229389,-0.074724\H,0,-4.338109,0.762993
 ,-1.64304\H,0,-4.703325,-0.495496,-0.411819\C,0,-1.501559,0.218996,1.9
 87266\H,0,-2.142725,0.804637,2.654011\H,0,-1.087956,-0.609432,2.561973
 \H,0,-0.673292,0.848774,1.663482\C,0,-0.903946,-2.400873,0.526206\H,0,
 -1.780591,-2.984144,0.822902\H,0,-0.28741,-3.011389,-0.141459\H,0,-0.2
 99859,-2.162184,1.399921\C,0,-2.072895,-1.552921,-1.534843\H,0,-1.4272
 32,-2.217248,-2.11602\H,0,-3.000938,-2.087588,-1.306255\H,0,-2.294455,
 -0.687435,-2.165353\\Version=ES64L-G16RevA.03\HF=-3034.6092666\S2=8.76
 1302\S2-1=0.\S2A=8.750039\RMSD=7.066e-09\PG=C01 [X(C8H16Cl3Fe1O1)]\\@


 If your ship doesn't come in, swim out to it!
                          -- Jonathan Winters
 Job cpu time:       0 days  0 hours 50 minutes  2.3 seconds.
 Elapsed time:       0 days  0 hours 12 minutes 36.7 seconds.
 File lengths (MBytes):  RWF=    174 Int=      0 D2E=      0 Chk=     13 Scr=      1
 Normal termination of Gaussian 16 at Wed Feb 12 02:12:00 2020.
