 Entering Gaussian System, Link 0=g16
 Input=simple-grid-215-240-b3lyp_d3bj-631gd-gas-singlepoint-DFT-juldz2-gas.gjf
 Output=simple-grid-215-240-b3lyp_d3bj-631gd-gas-singlepoint-DFT-juldz2-gas.out
 Initial command:
 /n/sw/g16_nehalem/g16/l1.exe "/scratch/Gau-359432.inp" -scrdir="/scratch/"
 Entering Link 1 = /n/sw/g16_nehalem/g16/l1.exe PID=    359442.
  
 Copyright (c) 1988,1990,1992,1993,1995,1998,2003,2009,2016,
            Gaussian, Inc.  All Rights Reserved.
  
 This is part of the Gaussian(R) 16 program.  It is based on
 the Gaussian(R) 09 system (copyright 2009, Gaussian, Inc.),
 the Gaussian(R) 03 system (copyright 2003, Gaussian, Inc.),
 the Gaussian(R) 98 system (copyright 1998, Gaussian, Inc.),
 the Gaussian(R) 94 system (copyright 1995, Gaussian, Inc.),
 the Gaussian 92(TM) system (copyright 1992, Gaussian, Inc.),
 the Gaussian 90(TM) system (copyright 1990, Gaussian, Inc.),
 the Gaussian 88(TM) system (copyright 1988, Gaussian, Inc.),
 the Gaussian 86(TM) system (copyright 1986, Carnegie Mellon
 University), and the Gaussian 82(TM) system (copyright 1983,
 Carnegie Mellon University). Gaussian is a federally registered
 trademark of Gaussian, Inc.
  
 This software contains proprietary and confidential information,
 including trade secrets, belonging to Gaussian, Inc.
  
 This software is provided under written license and may be
 used, copied, transmitted, or stored only in accord with that
 written license.
  
 The following legend is applicable only to US Government
 contracts under FAR:
  
                    RESTRICTED RIGHTS LEGEND
  
 Use, reproduction and disclosure by the US Government is
 subject to restrictions as set forth in subparagraphs (a)
 and (c) of the Commercial Computer Software - Restricted
 Rights clause in FAR 52.227-19.
  
 Gaussian, Inc.
 340 Quinnipiac St., Bldg. 40, Wallingford CT 06492
  
  
 ---------------------------------------------------------------
 Warning -- This program may not be used in any manner that
 competes with the business of Gaussian, Inc. or will provide
 assistance to any competitor of Gaussian, Inc.  The licensee
 of this program is prohibited from giving any competitor of
 Gaussian, Inc. access to this program.  By using this program,
 the user acknowledges that Gaussian, Inc. is engaged in the
 business of creating and licensing software in the field of
 computational chemistry and represents and warrants to the
 licensee that it is not a competitor of Gaussian, Inc. and that
 it will not use this program in any manner prohibited above.
 ---------------------------------------------------------------
  

 Cite this work as:
 Gaussian 16, Revision A.03,
 M. J. Frisch, G. W. Trucks, H. B. Schlegel, G. E. Scuseria, 
 M. A. Robb, J. R. Cheeseman, G. Scalmani, V. Barone, 
 G. A. Petersson, H. Nakatsuji, X. Li, M. Caricato, A. V. Marenich, 
 J. Bloino, B. G. Janesko, R. Gomperts, B. Mennucci, H. P. Hratchian, 
 J. V. Ortiz, A. F. Izmaylov, J. L. Sonnenberg, D. Williams-Young, 
 F. Ding, F. Lipparini, F. Egidi, J. Goings, B. Peng, A. Petrone, 
 T. Henderson, D. Ranasinghe, V. G. Zakrzewski, J. Gao, N. Rega, 
 G. Zheng, W. Liang, M. Hada, M. Ehara, K. Toyota, R. Fukuda, 
 J. Hasegawa, M. Ishida, T. Nakajima, Y. Honda, O. Kitao, H. Nakai, 
 T. Vreven, K. Throssell, J. A. Montgomery, Jr., J. E. Peralta, 
 F. Ogliaro, M. J. Bearpark, J. J. Heyd, E. N. Brothers, K. N. Kudin, 
 V. N. Staroverov, T. A. Keith, R. Kobayashi, J. Normand, 
 K. Raghavachari, A. P. Rendell, J. C. Burant, S. S. Iyengar, 
 J. Tomasi, M. Cossi, J. M. Millam, M. Klene, C. Adamo, R. Cammi, 
 J. W. Ochterski, R. L. Martin, K. Morokuma, O. Farkas, 
 J. B. Foresman, and D. J. Fox, Gaussian, Inc., Wallingford CT, 2016.
 
 ******************************************
 Gaussian 16:  ES64L-G16RevA.03 25-Dec-2016
                11-Feb-2020 
 ******************************************
 %chk=checkpoint.chk
 %mem=3GB
 %nprocshared=4
 Will use up to    4 processors via shared memory.
 --------------------------------
 #t pop=none jul-cc-pvdz upbe1pbe
 --------------------------------
 ------------------------
 theory_abbreviation pbe0
 ------------------------
 Symbolic Z-matrix:
 Charge =  0 Multiplicity = 6
 O                    -0.32045  -0.12975  -0.66208 
 C                    -1.22997  -1.04766  -0.5771 
 C                    -3.01875  -0.10655   0.15574 
 C                    -2.35465   1.04613  -0.1728 
 C                    -2.42694   1.64133  -1.54069 
 Fe                    1.43711   0.07801   0.03785 
 Cl                    2.04626   2.03668  -0.73842 
 C                    -1.56134   1.83329   0.81697 
 Cl                    2.5157   -1.66892  -0.7452 
 Cl                    1.29022   0.03143   2.244 
 H                    -3.69386  -0.50872  -0.59626 
 H                    -2.2253    2.60359   1.2373 
 H                    -1.17875   1.23784   1.6457 
 H                    -0.72594   2.34878   0.33558 
 H                    -2.74461   2.68805  -1.45072 
 H                    -1.42619   1.65512  -1.98855 
 H                    -3.12741   1.12429  -2.19962 
 C                    -3.3232   -0.52962   1.57275 
 H                    -4.21059   0.01036   1.92779 
 H                    -3.55224  -1.59646   1.6336 
 H                    -2.50996  -0.31521   2.26932 
 C                    -1.06411  -2.09509   0.49472 
 H                    -1.92517  -2.75978   0.57286 
 H                    -0.19507  -2.69078   0.1794 
 H                    -0.82028  -1.65918   1.4634 
 C                    -1.75698  -1.54939  -1.90311 
 H                    -0.93971  -2.14289  -2.335 
 H                    -2.63232  -2.1925   -1.7924 
 H                    -1.96538  -0.73382  -2.59511 
 
                    Distance matrix (angstroms):
                    1          2          3          4          5
     1  O    0.000000
     2  C    1.294988   0.000000
     3  C    2.819608   2.150000   0.000000
     4  C    2.400011   2.410875   1.370265   0.000000
     5  C    2.888943   3.097084   2.506629   1.493525   0.000000
     6  Fe   1.903181   2.959494   4.461240   3.919064   4.457202
     7  Cl   3.209451   4.502536   5.572005   4.546326   4.561735
     8  C    2.753350   3.217625   2.514804   1.492852   2.518862
     9  Cl   3.227956   3.800559   5.820898   5.605303   6.001690
    10  Cl   3.326492   3.933745   4.790306   4.489495   5.543728
    11  H    3.395269   2.522222   1.087672   2.095321   2.668289
    12  H    3.835009   4.196949   3.023932   2.104947   2.946833
    13  H    2.816537   3.188574   2.722674   2.174036   3.445848
    14  H    2.702379   3.552857   3.364209   2.146629   2.629496
    15  H    3.799808   4.124671   3.235066   2.116854   1.097558
    16  H    2.483529   3.055435   3.199640   2.128347   1.096487
    17  H    3.437391   3.309111   2.659788   2.170544   1.091869
    18  C    3.764418   3.044968   1.509826   2.543223   3.899969
    19  H    4.675497   4.034602   2.138765   2.988282   4.227511
    20  H    4.226801   3.252895   2.165298   3.417685   4.671797
    21  H    3.663535   3.205776   2.183946   2.800232   4.283819
    22  C    2.398707   1.507788   2.808884   3.460974   4.467782
    23  H    3.319229   2.176486   2.899925   3.901976   4.908022
    24  H    2.698645   2.084021   3.827791   4.330393   5.167897
    25  H    2.665833   2.169205   2.992312   3.514279   4.743346
    26  C    2.370472   1.512543   2.812961   3.176147   3.280382
    27  H    2.689772   2.091409   3.830522   4.104511   4.142842
    28  H    3.298070   2.180413   2.880238   3.631652   3.847568
    29  H    2.609078   2.170644   3.011688   3.031066   2.639359
                    6          7          8          9         10
     6  Fe   0.000000
     7  Cl   2.193181   0.000000
     8  C    3.560720   3.933870   0.000000
     9  Cl   2.197334   3.735224   5.597148   0.000000
    10  Cl   2.211530   3.672534   3.662579   3.650794   0.000000
    11  H    5.203195   6.280784   3.468415   6.318776   5.761932
    12  H    4.607660   4.740368   1.100407   6.682946   4.470834
    13  H    3.282248   4.089360   1.089830   5.273960   2.812331
    14  H    3.150208   2.989308   1.093318   5.274295   3.616224
    15  H    5.149269   4.887133   2.696882   6.866721   6.081815
    16  H    3.846038   3.710291   2.814418   5.304110   5.284855
    17  H    5.189972   5.452924   3.472039   6.462357   6.360464
    18  C    5.038421   6.384233   3.042808   6.384642   4.695630
    19  H    5.955923   7.096677   3.402288   7.430199   5.509926
    20  H    5.499447   7.083034   4.048922   6.517965   5.145092
    21  H    4.551208   5.944495   2.761386   6.014747   3.816037
    22  C    3.344735   5.316637   3.972818   3.812363   3.622834
    23  H    4.432187   6.363789   4.613924   4.759060   4.574086
    24  H    3.217188   5.311770   4.768691   3.040955   3.725465
    25  H    3.185257   5.169572   3.628281   4.000846   2.814547
    26  C    4.076516   5.355467   4.345072   4.428415   5.383579
    27  H    4.026429   5.379029   5.111885   3.833018   5.537824
    28  H    5.006525   6.394209   4.915564   5.279481   6.051830
    29  H    4.378184   5.216917   4.289011   4.937273   5.882304
                   11         12         13         14         15
    11  H    0.000000
    12  H    3.899371   0.000000
    13  H    3.795084   1.768426   0.000000
    14  H    4.223997   1.768084   1.776409   0.000000
    15  H    3.442461   2.739028   3.760700   2.716801   0.000000
    16  H    3.429726   3.456054   3.666488   2.524496   1.759111
    17  H    2.357613   3.848964   4.312382   3.700491   1.775595
    18  C    2.200548   3.336896   2.779908   4.069576   4.453031
    19  H    2.628173   3.338113   3.283038   4.488442   4.553405
    20  H    2.485055   4.422470   3.696873   5.023713   5.340630
    21  H    3.106545   3.108933   2.138453   3.744179   4.786787
    22  C    3.259201   4.896676   3.527942   4.459558   5.430222
    23  H    3.092311   5.412702   4.205847   5.252792   5.869010
    24  H    4.195778   5.768136   4.307178   5.069848   6.171654
    25  H    3.717964   4.494049   2.924809   4.164687   5.576167
    26  C    2.557806   5.227694   4.549408   4.611992   4.374471
    27  H    3.644045   6.078091   5.228051   5.229988   5.232366
    28  H    2.322222   5.687459   5.069580   5.365232   4.893782
    29  H    2.652119   5.088544   4.742442   4.430300   3.691351
                   16         17         18         19         20
    16  H    0.000000
    17  H    1.794574   0.000000
    18  C    4.588522   4.123643   0.000000
    19  H    5.078965   4.410173   1.097767   0.000000
    20  H    5.311573   4.719796   1.092850   1.761203   0.000000
    21  H    4.815206   4.735481   1.092037   1.764870   1.769774
    22  C    4.512405   4.677721   2.952343   4.048079   2.781448
    23  H    5.128464   4.921181   2.815652   3.838313   2.264030
    24  H    5.010236   5.367782   4.049349   5.145621   3.818744
    25  H    4.823657   5.146676   2.748181   3.807525   2.737978
    26  C    3.222666   3.019032   3.946464   4.809248   3.966549
    27  H    3.844679   3.934314   4.853261   5.788482   4.782641
    28  H    4.036997   3.378165   3.816633   4.602535   3.597078
    29  H    2.523029   2.226953   4.388212   5.104062   4.598288
                   21         22         23         24         25
    21  H    0.000000
    22  C    2.899602   0.000000
    23  H    3.032477   1.090569   0.000000
    24  H    3.920441   1.099774   1.775617   0.000000
    25  H    2.304522   1.089869   1.795876   1.761742   0.000000
    26  C    4.415814   2.554890   2.761122   2.842390   3.496124
    27  H    5.196720   2.832856   3.131667   2.678968   3.830938
    28  H    4.476245   2.774830   2.533049   3.174342   3.764061
    29  H    4.912690   3.494624   3.760610   3.829043   4.317299
                   26         27         28         29
    26  C    0.000000
    27  H    1.098497   0.000000
    28  H    1.091818   1.778143   0.000000
    29  H    1.089697   1.762137   1.793567   0.000000
 Framework group  C1[X(C8H16Cl3FeO)]
 Deg. of freedom    81
                         Standard orientation:                         
 ---------------------------------------------------------------------
 Center     Atomic      Atomic             Coordinates (Angstroms)
 Number     Number       Type             X           Y           Z
 ---------------------------------------------------------------------
      1          8           0       -0.320450   -0.129753   -0.662083
      2          6           0       -1.229965   -1.047660   -0.577100
      3          6           0       -3.018748   -0.106546    0.155743
      4          6           0       -2.354647    1.046128   -0.172798
      5          6           0       -2.426941    1.641332   -1.540688
      6         26           0        1.437113    0.078013    0.037847
      7         17           0        2.046256    2.036685   -0.738422
      8          6           0       -1.561336    1.833291    0.816969
      9         17           0        2.515704   -1.668915   -0.745199
     10         17           0        1.290216    0.031426    2.244001
     11          1           0       -3.693861   -0.508722   -0.596259
     12          1           0       -2.225304    2.603591    1.237301
     13          1           0       -1.178751    1.237844    1.645703
     14          1           0       -0.725942    2.348775    0.335579
     15          1           0       -2.744613    2.688052   -1.450720
     16          1           0       -1.426185    1.655115   -1.988550
     17          1           0       -3.127411    1.124288   -2.199615
     18          6           0       -3.323198   -0.529615    1.572746
     19          1           0       -4.210589    0.010357    1.927794
     20          1           0       -3.552239   -1.596460    1.633599
     21          1           0       -2.509961   -0.315205    2.269322
     22          6           0       -1.064112   -2.095094    0.494721
     23          1           0       -1.925171   -2.759783    0.572863
     24          1           0       -0.195073   -2.690783    0.179399
     25          1           0       -0.820276   -1.659184    1.463401
     26          6           0       -1.756978   -1.549390   -1.903113
     27          1           0       -0.939713   -2.142894   -2.334999
     28          1           0       -2.632320   -2.192496   -1.792399
     29          1           0       -1.965378   -0.733824   -2.595111
 ---------------------------------------------------------------------
 Rotational constants (GHZ):           0.5827821           0.3389895           0.3179448
   427 basis functions,  1056 primitive gaussians,   461 cartesian basis functions
    77 alpha electrons       72 beta electrons
       nuclear repulsion energy      1649.4254871981 Hartrees.
 NAtoms=   29 NActive=   29 NUniq=   29 SFac= 1.00D+00 NAtFMM=   60 NAOKFM=F Big=F
 ExpMin= 1.40D-02 ExpMax= 4.32D+06 ExpMxC= 4.91D+03 IAcc=3 IRadAn=         5 AccDes= 0.00D+00
 Harris functional with IExCor= 1009 and IRadAn=       5 diagonalized for initial guess.
 HarFok:  IExCor= 1009 AccDes= 0.00D+00 IRadAn=         5 IDoV= 1 UseB2=F ITyADJ=14
 ICtDFT=  3500011 ScaDFX=  1.000000  1.000000  1.000000  1.000000
 FoFCou: FMM=F IPFlag=           0 FMFlag=      100000 FMFlg1=           0
         NFxFlg=           0 DoJE=T BraDBF=F KetDBF=T FulRan=T
         wScrn=  0.000000 ICntrl=       500 IOpCl=  0 I1Cent=   200000004 NGrid=           0
         NMat0=    1 NMatS0=      1 NMatT0=    0 NMatD0=    1 NMtDS0=    0 NMtDT0=    0
 Petite list used in FoFCou.
 Initial guess <Sx>= 0.0000 <Sy>= 0.0000 <Sz>= 2.5000 <S**2>= 8.7500 S= 2.5000
 EnCoef did   100 forward-backward iterations
 SCF Done:  E(UPBE1PBE) =  -3033.11017140     A.U. after   20 cycles
            NFock= 20  Conv=0.58D-08     -V/T= 2.0021
 <Sx>= 0.0000 <Sy>= 0.0000 <Sz>= 2.5000 <S**2>= 8.7624 S= 2.5021
 <L.S>= 0.000000000000E+00
 Annihilation of the first spin contaminant:
 S**2 before annihilation     8.7624,   after     8.7500
 1\1\GINC-HOLY7C04212\SP\UPBE1PBE\Jul-CC-pVDZ\C8H16Cl3Fe1O1(6)\EKWAN\11
 -Feb-2020\0\\#t pop=none jul-cc-pvdz upbe1pbe\\theory_abbreviation pbe
 0\\0,6\O,0,-0.32045,-0.129753,-0.662083\C,0,-1.229965,-1.04766,-0.5771
 \C,0,-3.018748,-0.106546,0.155743\C,0,-2.354647,1.046128,-0.172798\C,0
 ,-2.426941,1.641332,-1.540688\Fe,0,1.437113,0.078013,0.037847\Cl,0,2.0
 46256,2.036685,-0.738422\C,0,-1.561336,1.833291,0.816969\Cl,0,2.515704
 ,-1.668915,-0.745199\Cl,0,1.290216,0.031426,2.244001\H,0,-3.693861,-0.
 508722,-0.596259\H,0,-2.225304,2.603591,1.237301\H,0,-1.178751,1.23784
 4,1.645703\H,0,-0.725942,2.348775,0.335579\H,0,-2.744613,2.688052,-1.4
 5072\H,0,-1.426185,1.655115,-1.98855\H,0,-3.127411,1.124288,-2.199615\
 C,0,-3.323198,-0.529615,1.572746\H,0,-4.210589,0.010357,1.927794\H,0,-
 3.552239,-1.59646,1.633599\H,0,-2.509961,-0.315205,2.269322\C,0,-1.064
 112,-2.095094,0.494721\H,0,-1.925171,-2.759783,0.572863\H,0,-0.195073,
 -2.690783,0.179399\H,0,-0.820276,-1.659184,1.463401\C,0,-1.756978,-1.5
 4939,-1.903113\H,0,-0.939713,-2.142894,-2.334999\H,0,-2.63232,-2.19249
 6,-1.792399\H,0,-1.965378,-0.733824,-2.595111\\Version=ES64L-G16RevA.0
 3\HF=-3033.1101714\S2=8.762408\S2-1=0.\S2A=8.750048\RMSD=5.759e-09\PG=
 C01 [X(C8H16Cl3Fe1O1)]\\@


 I (ERNEST RUTHERFORD) CAME INTO THE ROOM, WHICH WAS HALF DARK, AND PRESENTLY
 SPOTTED LORD KELVIN IN THE AUDIENCE AND REALIZED I WAS IN TROUBLE AT
 THE LAST PART OF MY SPEECH DEALING THE AGE OF THE EARTH, WHERE MY VIEWS
 CONFLICTED WITH HIS.  TO MY RELIEF KELVIN FELL FAST ASLEEP, BUT AS I CAME
 TO THE IMPORTANT POINT, I SAW THE OLD BIRD SIT UP AND COCK A BALEFUL GLANCE
 AT ME! THEN A SUDDEN INSPIRATION CAME AND I SAID LORD KELVIN HAD LIMITED
 THE AGE OF THE EARTH PROVIDED NO NEW SOURCE WAS DISCOVERED. THAT
 PROPHETIC UTTERANCE REFERS TO WHAT WE ARE NOW CONSIDERING TONIGHT, RADIUM!
 BEHOLD!  THE OLD BOY BEAMED UPON ME.
 Job cpu time:       0 days  1 hours 24 minutes 24.3 seconds.
 Elapsed time:       0 days  0 hours 21 minutes 10.4 seconds.
 File lengths (MBytes):  RWF=    173 Int=      0 D2E=      0 Chk=     13 Scr=      1
 Normal termination of Gaussian 16 at Tue Feb 11 13:57:46 2020.
 Initial command:
 /n/sw/g16_nehalem/g16/l1.exe "/scratch/Gau-359432.inp" -scrdir="/scratch/"
 Entering Link 1 = /n/sw/g16_nehalem/g16/l1.exe PID=    360929.
  
 Copyright (c) 1988,1990,1992,1993,1995,1998,2003,2009,2016,
            Gaussian, Inc.  All Rights Reserved.
  
 This is part of the Gaussian(R) 16 program.  It is based on
 the Gaussian(R) 09 system (copyright 2009, Gaussian, Inc.),
 the Gaussian(R) 03 system (copyright 2003, Gaussian, Inc.),
 the Gaussian(R) 98 system (copyright 1998, Gaussian, Inc.),
 the Gaussian(R) 94 system (copyright 1995, Gaussian, Inc.),
 the Gaussian 92(TM) system (copyright 1992, Gaussian, Inc.),
 the Gaussian 90(TM) system (copyright 1990, Gaussian, Inc.),
 the Gaussian 88(TM) system (copyright 1988, Gaussian, Inc.),
 the Gaussian 86(TM) system (copyright 1986, Carnegie Mellon
 University), and the Gaussian 82(TM) system (copyright 1983,
 Carnegie Mellon University). Gaussian is a federally registered
 trademark of Gaussian, Inc.
  
 This software contains proprietary and confidential information,
 including trade secrets, belonging to Gaussian, Inc.
  
 This software is provided under written license and may be
 used, copied, transmitted, or stored only in accord with that
 written license.
  
 The following legend is applicable only to US Government
 contracts under FAR:
  
                    RESTRICTED RIGHTS LEGEND
  
 Use, reproduction and disclosure by the US Government is
 subject to restrictions as set forth in subparagraphs (a)
 and (c) of the Commercial Computer Software - Restricted
 Rights clause in FAR 52.227-19.
  
 Gaussian, Inc.
 340 Quinnipiac St., Bldg. 40, Wallingford CT 06492
  
  
 ---------------------------------------------------------------
 Warning -- This program may not be used in any manner that
 competes with the business of Gaussian, Inc. or will provide
 assistance to any competitor of Gaussian, Inc.  The licensee
 of this program is prohibited from giving any competitor of
 Gaussian, Inc. access to this program.  By using this program,
 the user acknowledges that Gaussian, Inc. is engaged in the
 business of creating and licensing software in the field of
 computational chemistry and represents and warrants to the
 licensee that it is not a competitor of Gaussian, Inc. and that
 it will not use this program in any manner prohibited above.
 ---------------------------------------------------------------
  

 Cite this work as:
 Gaussian 16, Revision A.03,
 M. J. Frisch, G. W. Trucks, H. B. Schlegel, G. E. Scuseria, 
 M. A. Robb, J. R. Cheeseman, G. Scalmani, V. Barone, 
 G. A. Petersson, H. Nakatsuji, X. Li, M. Caricato, A. V. Marenich, 
 J. Bloino, B. G. Janesko, R. Gomperts, B. Mennucci, H. P. Hratchian, 
 J. V. Ortiz, A. F. Izmaylov, J. L. Sonnenberg, D. Williams-Young, 
 F. Ding, F. Lipparini, F. Egidi, J. Goings, B. Peng, A. Petrone, 
 T. Henderson, D. Ranasinghe, V. G. Zakrzewski, J. Gao, N. Rega, 
 G. Zheng, W. Liang, M. Hada, M. Ehara, K. Toyota, R. Fukuda, 
 J. Hasegawa, M. Ishida, T. Nakajima, Y. Honda, O. Kitao, H. Nakai, 
 T. Vreven, K. Throssell, J. A. Montgomery, Jr., J. E. Peralta, 
 F. Ogliaro, M. J. Bearpark, J. J. Heyd, E. N. Brothers, K. N. Kudin, 
 V. N. Staroverov, T. A. Keith, R. Kobayashi, J. Normand, 
 K. Raghavachari, A. P. Rendell, J. C. Burant, S. S. Iyengar, 
 J. Tomasi, M. Cossi, J. M. Millam, M. Klene, C. Adamo, R. Cammi, 
 J. W. Ochterski, R. L. Martin, K. Morokuma, O. Farkas, 
 J. B. Foresman, and D. J. Fox, Gaussian, Inc., Wallingford CT, 2016.
 
 ******************************************
 Gaussian 16:  ES64L-G16RevA.03 25-Dec-2016
                11-Feb-2020 
 ******************************************
 %chk=checkpoint.chk
 %mem=3GB
 %nprocshared=4
 Will use up to    4 processors via shared memory.
 ---------------------------------------------------------------------
 #t pop=none jul-cc-pvdz guess=read upbe1pbe empiricaldispersion=gd3bj
 ---------------------------------------------------------------------
 -----------------------------
 theory_abbreviation pbe0_d3bj
 -----------------------------
 Symbolic Z-matrix:
 Charge =  0 Multiplicity = 6
 O                    -0.32045  -0.12975  -0.66208 
 C                    -1.22997  -1.04766  -0.5771 
 C                    -3.01875  -0.10655   0.15574 
 C                    -2.35465   1.04613  -0.1728 
 C                    -2.42694   1.64133  -1.54069 
 Fe                    1.43711   0.07801   0.03785 
 Cl                    2.04626   2.03668  -0.73842 
 C                    -1.56134   1.83329   0.81697 
 Cl                    2.5157   -1.66892  -0.7452 
 Cl                    1.29022   0.03143   2.244 
 H                    -3.69386  -0.50872  -0.59626 
 H                    -2.2253    2.60359   1.2373 
 H                    -1.17875   1.23784   1.6457 
 H                    -0.72594   2.34878   0.33558 
 H                    -2.74461   2.68805  -1.45072 
 H                    -1.42619   1.65512  -1.98855 
 H                    -3.12741   1.12429  -2.19962 
 C                    -3.3232   -0.52962   1.57275 
 H                    -4.21059   0.01036   1.92779 
 H                    -3.55224  -1.59646   1.6336 
 H                    -2.50996  -0.31521   2.26932 
 C                    -1.06411  -2.09509   0.49472 
 H                    -1.92517  -2.75978   0.57286 
 H                    -0.19507  -2.69078   0.1794 
 H                    -0.82028  -1.65918   1.4634 
 C                    -1.75698  -1.54939  -1.90311 
 H                    -0.93971  -2.14289  -2.335 
 H                    -2.63232  -2.1925   -1.7924 
 H                    -1.96538  -0.73382  -2.59511 
 
                    Distance matrix (angstroms):
                    1          2          3          4          5
     1  O    0.000000
     2  C    1.294988   0.000000
     3  C    2.819608   2.150000   0.000000
     4  C    2.400011   2.410875   1.370265   0.000000
     5  C    2.888943   3.097084   2.506629   1.493525   0.000000
     6  Fe   1.903181   2.959494   4.461240   3.919064   4.457202
     7  Cl   3.209451   4.502536   5.572005   4.546326   4.561735
     8  C    2.753350   3.217625   2.514804   1.492852   2.518862
     9  Cl   3.227956   3.800559   5.820898   5.605303   6.001690
    10  Cl   3.326492   3.933745   4.790306   4.489495   5.543728
    11  H    3.395269   2.522222   1.087672   2.095321   2.668289
    12  H    3.835009   4.196949   3.023932   2.104947   2.946833
    13  H    2.816537   3.188574   2.722674   2.174036   3.445848
    14  H    2.702379   3.552857   3.364209   2.146629   2.629496
    15  H    3.799808   4.124671   3.235066   2.116854   1.097558
    16  H    2.483529   3.055435   3.199640   2.128347   1.096487
    17  H    3.437391   3.309111   2.659788   2.170544   1.091869
    18  C    3.764418   3.044968   1.509826   2.543223   3.899969
    19  H    4.675497   4.034602   2.138765   2.988282   4.227511
    20  H    4.226801   3.252895   2.165298   3.417685   4.671797
    21  H    3.663535   3.205776   2.183946   2.800232   4.283819
    22  C    2.398707   1.507788   2.808884   3.460974   4.467782
    23  H    3.319229   2.176486   2.899925   3.901976   4.908022
    24  H    2.698645   2.084021   3.827791   4.330393   5.167897
    25  H    2.665833   2.169205   2.992312   3.514279   4.743346
    26  C    2.370472   1.512543   2.812961   3.176147   3.280382
    27  H    2.689772   2.091409   3.830522   4.104511   4.142842
    28  H    3.298070   2.180413   2.880238   3.631652   3.847568
    29  H    2.609078   2.170644   3.011688   3.031066   2.639359
                    6          7          8          9         10
     6  Fe   0.000000
     7  Cl   2.193181   0.000000
     8  C    3.560720   3.933870   0.000000
     9  Cl   2.197334   3.735224   5.597148   0.000000
    10  Cl   2.211530   3.672534   3.662579   3.650794   0.000000
    11  H    5.203195   6.280784   3.468415   6.318776   5.761932
    12  H    4.607660   4.740368   1.100407   6.682946   4.470834
    13  H    3.282248   4.089360   1.089830   5.273960   2.812331
    14  H    3.150208   2.989308   1.093318   5.274295   3.616224
    15  H    5.149269   4.887133   2.696882   6.866721   6.081815
    16  H    3.846038   3.710291   2.814418   5.304110   5.284855
    17  H    5.189972   5.452924   3.472039   6.462357   6.360464
    18  C    5.038421   6.384233   3.042808   6.384642   4.695630
    19  H    5.955923   7.096677   3.402288   7.430199   5.509926
    20  H    5.499447   7.083034   4.048922   6.517965   5.145092
    21  H    4.551208   5.944495   2.761386   6.014747   3.816037
    22  C    3.344735   5.316637   3.972818   3.812363   3.622834
    23  H    4.432187   6.363789   4.613924   4.759060   4.574086
    24  H    3.217188   5.311770   4.768691   3.040955   3.725465
    25  H    3.185257   5.169572   3.628281   4.000846   2.814547
    26  C    4.076516   5.355467   4.345072   4.428415   5.383579
    27  H    4.026429   5.379029   5.111885   3.833018   5.537824
    28  H    5.006525   6.394209   4.915564   5.279481   6.051830
    29  H    4.378184   5.216917   4.289011   4.937273   5.882304
                   11         12         13         14         15
    11  H    0.000000
    12  H    3.899371   0.000000
    13  H    3.795084   1.768426   0.000000
    14  H    4.223997   1.768084   1.776409   0.000000
    15  H    3.442461   2.739028   3.760700   2.716801   0.000000
    16  H    3.429726   3.456054   3.666488   2.524496   1.759111
    17  H    2.357613   3.848964   4.312382   3.700491   1.775595
    18  C    2.200548   3.336896   2.779908   4.069576   4.453031
    19  H    2.628173   3.338113   3.283038   4.488442   4.553405
    20  H    2.485055   4.422470   3.696873   5.023713   5.340630
    21  H    3.106545   3.108933   2.138453   3.744179   4.786787
    22  C    3.259201   4.896676   3.527942   4.459558   5.430222
    23  H    3.092311   5.412702   4.205847   5.252792   5.869010
    24  H    4.195778   5.768136   4.307178   5.069848   6.171654
    25  H    3.717964   4.494049   2.924809   4.164687   5.576167
    26  C    2.557806   5.227694   4.549408   4.611992   4.374471
    27  H    3.644045   6.078091   5.228051   5.229988   5.232366
    28  H    2.322222   5.687459   5.069580   5.365232   4.893782
    29  H    2.652119   5.088544   4.742442   4.430300   3.691351
                   16         17         18         19         20
    16  H    0.000000
    17  H    1.794574   0.000000
    18  C    4.588522   4.123643   0.000000
    19  H    5.078965   4.410173   1.097767   0.000000
    20  H    5.311573   4.719796   1.092850   1.761203   0.000000
    21  H    4.815206   4.735481   1.092037   1.764870   1.769774
    22  C    4.512405   4.677721   2.952343   4.048079   2.781448
    23  H    5.128464   4.921181   2.815652   3.838313   2.264030
    24  H    5.010236   5.367782   4.049349   5.145621   3.818744
    25  H    4.823657   5.146676   2.748181   3.807525   2.737978
    26  C    3.222666   3.019032   3.946464   4.809248   3.966549
    27  H    3.844679   3.934314   4.853261   5.788482   4.782641
    28  H    4.036997   3.378165   3.816633   4.602535   3.597078
    29  H    2.523029   2.226953   4.388212   5.104062   4.598288
                   21         22         23         24         25
    21  H    0.000000
    22  C    2.899602   0.000000
    23  H    3.032477   1.090569   0.000000
    24  H    3.920441   1.099774   1.775617   0.000000
    25  H    2.304522   1.089869   1.795876   1.761742   0.000000
    26  C    4.415814   2.554890   2.761122   2.842390   3.496124
    27  H    5.196720   2.832856   3.131667   2.678968   3.830938
    28  H    4.476245   2.774830   2.533049   3.174342   3.764061
    29  H    4.912690   3.494624   3.760610   3.829043   4.317299
                   26         27         28         29
    26  C    0.000000
    27  H    1.098497   0.000000
    28  H    1.091818   1.778143   0.000000
    29  H    1.089697   1.762137   1.793567   0.000000
 Framework group  C1[X(C8H16Cl3FeO)]
 Deg. of freedom    81
                         Standard orientation:                         
 ---------------------------------------------------------------------
 Center     Atomic      Atomic             Coordinates (Angstroms)
 Number     Number       Type             X           Y           Z
 ---------------------------------------------------------------------
      1          8           0       -0.320450   -0.129753   -0.662083
      2          6           0       -1.229965   -1.047660   -0.577100
      3          6           0       -3.018748   -0.106546    0.155743
      4          6           0       -2.354647    1.046128   -0.172798
      5          6           0       -2.426941    1.641332   -1.540688
      6         26           0        1.437113    0.078013    0.037847
      7         17           0        2.046256    2.036685   -0.738422
      8          6           0       -1.561336    1.833291    0.816969
      9         17           0        2.515704   -1.668915   -0.745199
     10         17           0        1.290216    0.031426    2.244001
     11          1           0       -3.693861   -0.508722   -0.596259
     12          1           0       -2.225304    2.603591    1.237301
     13          1           0       -1.178751    1.237844    1.645703
     14          1           0       -0.725942    2.348775    0.335579
     15          1           0       -2.744613    2.688052   -1.450720
     16          1           0       -1.426185    1.655115   -1.988550
     17          1           0       -3.127411    1.124288   -2.199615
     18          6           0       -3.323198   -0.529615    1.572746
     19          1           0       -4.210589    0.010357    1.927794
     20          1           0       -3.552239   -1.596460    1.633599
     21          1           0       -2.509961   -0.315205    2.269322
     22          6           0       -1.064112   -2.095094    0.494721
     23          1           0       -1.925171   -2.759783    0.572863
     24          1           0       -0.195073   -2.690783    0.179399
     25          1           0       -0.820276   -1.659184    1.463401
     26          6           0       -1.756978   -1.549390   -1.903113
     27          1           0       -0.939713   -2.142894   -2.334999
     28          1           0       -2.632320   -2.192496   -1.792399
     29          1           0       -1.965378   -0.733824   -2.595111
 ---------------------------------------------------------------------
 Rotational constants (GHZ):           0.5827821           0.3389895           0.3179448
   427 basis functions,  1056 primitive gaussians,   461 cartesian basis functions
    77 alpha electrons       72 beta electrons
       nuclear repulsion energy      1649.4254871981 Hartrees.
 NAtoms=   29 NActive=   29 NUniq=   29 SFac= 1.00D+00 NAtFMM=   60 NAOKFM=F Big=F
 Nuclear repulsion after empirical dispersion term =     1649.3876950909 Hartrees.
 Initial guess from the checkpoint file:  "checkpoint.chk"
 B after Tr=     0.000000    0.000000    0.000000
         Rot=    1.000000    0.000000    0.000000    0.000000 Ang=   0.00 deg.
 Initial guess <Sx>= 0.0000 <Sy>= 0.0000 <Sz>= 2.5000 <S**2>= 8.7624 S= 2.5021
 SCF Done:  E(UPBE1PBE) =  -3033.14796351     A.U. after    1 cycles
            NFock=  1  Conv=0.25D-08     -V/T= 2.0021
 <Sx>= 0.0000 <Sy>= 0.0000 <Sz>= 2.5000 <S**2>= 8.7624 S= 2.5021
 <L.S>= 0.000000000000E+00
 Annihilation of the first spin contaminant:
 S**2 before annihilation     8.7624,   after     8.7500
 1\1\GINC-HOLY7C04212\SP\UPBE1PBE\Jul-CC-pVDZ\C8H16Cl3Fe1O1(6)\EKWAN\11
 -Feb-2020\0\\#t pop=none jul-cc-pvdz guess=read upbe1pbe empiricaldisp
 ersion=gd3bj\\theory_abbreviation pbe0_d3bj\\0,6\O,0,-0.32045,-0.12975
 3,-0.662083\C,0,-1.229965,-1.04766,-0.5771\C,0,-3.018748,-0.106546,0.1
 55743\C,0,-2.354647,1.046128,-0.172798\C,0,-2.426941,1.641332,-1.54068
 8\Fe,0,1.437113,0.078013,0.037847\Cl,0,2.046256,2.036685,-0.738422\C,0
 ,-1.561336,1.833291,0.816969\Cl,0,2.515704,-1.668915,-0.745199\Cl,0,1.
 290216,0.031426,2.244001\H,0,-3.693861,-0.508722,-0.596259\H,0,-2.2253
 04,2.603591,1.237301\H,0,-1.178751,1.237844,1.645703\H,0,-0.725942,2.3
 48775,0.335579\H,0,-2.744613,2.688052,-1.45072\H,0,-1.426185,1.655115,
 -1.98855\H,0,-3.127411,1.124288,-2.199615\C,0,-3.323198,-0.529615,1.57
 2746\H,0,-4.210589,0.010357,1.927794\H,0,-3.552239,-1.59646,1.633599\H
 ,0,-2.509961,-0.315205,2.269322\C,0,-1.064112,-2.095094,0.494721\H,0,-
 1.925171,-2.759783,0.572863\H,0,-0.195073,-2.690783,0.179399\H,0,-0.82
 0276,-1.659184,1.463401\C,0,-1.756978,-1.54939,-1.903113\H,0,-0.939713
 ,-2.142894,-2.334999\H,0,-2.63232,-2.192496,-1.792399\H,0,-1.965378,-0
 .733824,-2.595111\\Version=ES64L-G16RevA.03\HF=-3033.1479635\S2=8.7624
 08\S2-1=0.\S2A=8.750048\RMSD=2.502e-09\PG=C01 [X(C8H16Cl3Fe1O1)]\\@


            THE IRISH PIG
 'TWAS AN EVENING IN NOVEMBER,
 AS I VERY WELL REMEMBER
 I WAS STROLLING DOWN THE STREET IN DRUNKEN PRIDE,
 BUT MY KNEES WERE ALL A'FLUTTER
 SO I LANDED IN THE GUTTER,
 AND A PIG CAME UP AND LAY DOWN BY MY SIDE.

 YES, I LAY THERE IN THE GUTTER
 THINKING THOUGHTS I COULD NOT UTTER
 WHEN A COLLEEN PASSING BY DID SOFTLY SAY,
 'YE CAN TELL A MAN THAT BOOZES
 BY THE COMPANY THAT HE CHOOSES.' -
 AT THAT, THE PIG GOT UP AND WALKED AWAY!
     -- THE ECONOMIST, AUGUST 23, 1986
 Job cpu time:       0 days  0 hours  4 minutes 45.8 seconds.
 Elapsed time:       0 days  0 hours  1 minutes 14.9 seconds.
 File lengths (MBytes):  RWF=    170 Int=      0 D2E=      0 Chk=     13 Scr=      1
 Normal termination of Gaussian 16 at Tue Feb 11 13:59:02 2020.
 Initial command:
 /n/sw/g16_nehalem/g16/l1.exe "/scratch/Gau-359432.inp" -scrdir="/scratch/"
 Entering Link 1 = /n/sw/g16_nehalem/g16/l1.exe PID=    361278.
  
 Copyright (c) 1988,1990,1992,1993,1995,1998,2003,2009,2016,
            Gaussian, Inc.  All Rights Reserved.
  
 This is part of the Gaussian(R) 16 program.  It is based on
 the Gaussian(R) 09 system (copyright 2009, Gaussian, Inc.),
 the Gaussian(R) 03 system (copyright 2003, Gaussian, Inc.),
 the Gaussian(R) 98 system (copyright 1998, Gaussian, Inc.),
 the Gaussian(R) 94 system (copyright 1995, Gaussian, Inc.),
 the Gaussian 92(TM) system (copyright 1992, Gaussian, Inc.),
 the Gaussian 90(TM) system (copyright 1990, Gaussian, Inc.),
 the Gaussian 88(TM) system (copyright 1988, Gaussian, Inc.),
 the Gaussian 86(TM) system (copyright 1986, Carnegie Mellon
 University), and the Gaussian 82(TM) system (copyright 1983,
 Carnegie Mellon University). Gaussian is a federally registered
 trademark of Gaussian, Inc.
  
 This software contains proprietary and confidential information,
 including trade secrets, belonging to Gaussian, Inc.
  
 This software is provided under written license and may be
 used, copied, transmitted, or stored only in accord with that
 written license.
  
 The following legend is applicable only to US Government
 contracts under FAR:
  
                    RESTRICTED RIGHTS LEGEND
  
 Use, reproduction and disclosure by the US Government is
 subject to restrictions as set forth in subparagraphs (a)
 and (c) of the Commercial Computer Software - Restricted
 Rights clause in FAR 52.227-19.
  
 Gaussian, Inc.
 340 Quinnipiac St., Bldg. 40, Wallingford CT 06492
  
  
 ---------------------------------------------------------------
 Warning -- This program may not be used in any manner that
 competes with the business of Gaussian, Inc. or will provide
 assistance to any competitor of Gaussian, Inc.  The licensee
 of this program is prohibited from giving any competitor of
 Gaussian, Inc. access to this program.  By using this program,
 the user acknowledges that Gaussian, Inc. is engaged in the
 business of creating and licensing software in the field of
 computational chemistry and represents and warrants to the
 licensee that it is not a competitor of Gaussian, Inc. and that
 it will not use this program in any manner prohibited above.
 ---------------------------------------------------------------
  

 Cite this work as:
 Gaussian 16, Revision A.03,
 M. J. Frisch, G. W. Trucks, H. B. Schlegel, G. E. Scuseria, 
 M. A. Robb, J. R. Cheeseman, G. Scalmani, V. Barone, 
 G. A. Petersson, H. Nakatsuji, X. Li, M. Caricato, A. V. Marenich, 
 J. Bloino, B. G. Janesko, R. Gomperts, B. Mennucci, H. P. Hratchian, 
 J. V. Ortiz, A. F. Izmaylov, J. L. Sonnenberg, D. Williams-Young, 
 F. Ding, F. Lipparini, F. Egidi, J. Goings, B. Peng, A. Petrone, 
 T. Henderson, D. Ranasinghe, V. G. Zakrzewski, J. Gao, N. Rega, 
 G. Zheng, W. Liang, M. Hada, M. Ehara, K. Toyota, R. Fukuda, 
 J. Hasegawa, M. Ishida, T. Nakajima, Y. Honda, O. Kitao, H. Nakai, 
 T. Vreven, K. Throssell, J. A. Montgomery, Jr., J. E. Peralta, 
 F. Ogliaro, M. J. Bearpark, J. J. Heyd, E. N. Brothers, K. N. Kudin, 
 V. N. Staroverov, T. A. Keith, R. Kobayashi, J. Normand, 
 K. Raghavachari, A. P. Rendell, J. C. Burant, S. S. Iyengar, 
 J. Tomasi, M. Cossi, J. M. Millam, M. Klene, C. Adamo, R. Cammi, 
 J. W. Ochterski, R. L. Martin, K. Morokuma, O. Farkas, 
 J. B. Foresman, and D. J. Fox, Gaussian, Inc., Wallingford CT, 2016.
 
 ******************************************
 Gaussian 16:  ES64L-G16RevA.03 25-Dec-2016
                11-Feb-2020 
 ******************************************
 %chk=checkpoint.chk
 %mem=3GB
 %nprocshared=4
 Will use up to    4 processors via shared memory.
 -----------------------------------------
 #t pop=none jul-cc-pvdz guess=read ub3lyp
 -----------------------------------------
 -------------------------
 theory_abbreviation b3lyp
 -------------------------
 Symbolic Z-matrix:
 Charge =  0 Multiplicity = 6
 O                    -0.32045  -0.12975  -0.66208 
 C                    -1.22997  -1.04766  -0.5771 
 C                    -3.01875  -0.10655   0.15574 
 C                    -2.35465   1.04613  -0.1728 
 C                    -2.42694   1.64133  -1.54069 
 Fe                    1.43711   0.07801   0.03785 
 Cl                    2.04626   2.03668  -0.73842 
 C                    -1.56134   1.83329   0.81697 
 Cl                    2.5157   -1.66892  -0.7452 
 Cl                    1.29022   0.03143   2.244 
 H                    -3.69386  -0.50872  -0.59626 
 H                    -2.2253    2.60359   1.2373 
 H                    -1.17875   1.23784   1.6457 
 H                    -0.72594   2.34878   0.33558 
 H                    -2.74461   2.68805  -1.45072 
 H                    -1.42619   1.65512  -1.98855 
 H                    -3.12741   1.12429  -2.19962 
 C                    -3.3232   -0.52962   1.57275 
 H                    -4.21059   0.01036   1.92779 
 H                    -3.55224  -1.59646   1.6336 
 H                    -2.50996  -0.31521   2.26932 
 C                    -1.06411  -2.09509   0.49472 
 H                    -1.92517  -2.75978   0.57286 
 H                    -0.19507  -2.69078   0.1794 
 H                    -0.82028  -1.65918   1.4634 
 C                    -1.75698  -1.54939  -1.90311 
 H                    -0.93971  -2.14289  -2.335 
 H                    -2.63232  -2.1925   -1.7924 
 H                    -1.96538  -0.73382  -2.59511 
 
                    Distance matrix (angstroms):
                    1          2          3          4          5
     1  O    0.000000
     2  C    1.294988   0.000000
     3  C    2.819608   2.150000   0.000000
     4  C    2.400011   2.410875   1.370265   0.000000
     5  C    2.888943   3.097084   2.506629   1.493525   0.000000
     6  Fe   1.903181   2.959494   4.461240   3.919064   4.457202
     7  Cl   3.209451   4.502536   5.572005   4.546326   4.561735
     8  C    2.753350   3.217625   2.514804   1.492852   2.518862
     9  Cl   3.227956   3.800559   5.820898   5.605303   6.001690
    10  Cl   3.326492   3.933745   4.790306   4.489495   5.543728
    11  H    3.395269   2.522222   1.087672   2.095321   2.668289
    12  H    3.835009   4.196949   3.023932   2.104947   2.946833
    13  H    2.816537   3.188574   2.722674   2.174036   3.445848
    14  H    2.702379   3.552857   3.364209   2.146629   2.629496
    15  H    3.799808   4.124671   3.235066   2.116854   1.097558
    16  H    2.483529   3.055435   3.199640   2.128347   1.096487
    17  H    3.437391   3.309111   2.659788   2.170544   1.091869
    18  C    3.764418   3.044968   1.509826   2.543223   3.899969
    19  H    4.675497   4.034602   2.138765   2.988282   4.227511
    20  H    4.226801   3.252895   2.165298   3.417685   4.671797
    21  H    3.663535   3.205776   2.183946   2.800232   4.283819
    22  C    2.398707   1.507788   2.808884   3.460974   4.467782
    23  H    3.319229   2.176486   2.899925   3.901976   4.908022
    24  H    2.698645   2.084021   3.827791   4.330393   5.167897
    25  H    2.665833   2.169205   2.992312   3.514279   4.743346
    26  C    2.370472   1.512543   2.812961   3.176147   3.280382
    27  H    2.689772   2.091409   3.830522   4.104511   4.142842
    28  H    3.298070   2.180413   2.880238   3.631652   3.847568
    29  H    2.609078   2.170644   3.011688   3.031066   2.639359
                    6          7          8          9         10
     6  Fe   0.000000
     7  Cl   2.193181   0.000000
     8  C    3.560720   3.933870   0.000000
     9  Cl   2.197334   3.735224   5.597148   0.000000
    10  Cl   2.211530   3.672534   3.662579   3.650794   0.000000
    11  H    5.203195   6.280784   3.468415   6.318776   5.761932
    12  H    4.607660   4.740368   1.100407   6.682946   4.470834
    13  H    3.282248   4.089360   1.089830   5.273960   2.812331
    14  H    3.150208   2.989308   1.093318   5.274295   3.616224
    15  H    5.149269   4.887133   2.696882   6.866721   6.081815
    16  H    3.846038   3.710291   2.814418   5.304110   5.284855
    17  H    5.189972   5.452924   3.472039   6.462357   6.360464
    18  C    5.038421   6.384233   3.042808   6.384642   4.695630
    19  H    5.955923   7.096677   3.402288   7.430199   5.509926
    20  H    5.499447   7.083034   4.048922   6.517965   5.145092
    21  H    4.551208   5.944495   2.761386   6.014747   3.816037
    22  C    3.344735   5.316637   3.972818   3.812363   3.622834
    23  H    4.432187   6.363789   4.613924   4.759060   4.574086
    24  H    3.217188   5.311770   4.768691   3.040955   3.725465
    25  H    3.185257   5.169572   3.628281   4.000846   2.814547
    26  C    4.076516   5.355467   4.345072   4.428415   5.383579
    27  H    4.026429   5.379029   5.111885   3.833018   5.537824
    28  H    5.006525   6.394209   4.915564   5.279481   6.051830
    29  H    4.378184   5.216917   4.289011   4.937273   5.882304
                   11         12         13         14         15
    11  H    0.000000
    12  H    3.899371   0.000000
    13  H    3.795084   1.768426   0.000000
    14  H    4.223997   1.768084   1.776409   0.000000
    15  H    3.442461   2.739028   3.760700   2.716801   0.000000
    16  H    3.429726   3.456054   3.666488   2.524496   1.759111
    17  H    2.357613   3.848964   4.312382   3.700491   1.775595
    18  C    2.200548   3.336896   2.779908   4.069576   4.453031
    19  H    2.628173   3.338113   3.283038   4.488442   4.553405
    20  H    2.485055   4.422470   3.696873   5.023713   5.340630
    21  H    3.106545   3.108933   2.138453   3.744179   4.786787
    22  C    3.259201   4.896676   3.527942   4.459558   5.430222
    23  H    3.092311   5.412702   4.205847   5.252792   5.869010
    24  H    4.195778   5.768136   4.307178   5.069848   6.171654
    25  H    3.717964   4.494049   2.924809   4.164687   5.576167
    26  C    2.557806   5.227694   4.549408   4.611992   4.374471
    27  H    3.644045   6.078091   5.228051   5.229988   5.232366
    28  H    2.322222   5.687459   5.069580   5.365232   4.893782
    29  H    2.652119   5.088544   4.742442   4.430300   3.691351
                   16         17         18         19         20
    16  H    0.000000
    17  H    1.794574   0.000000
    18  C    4.588522   4.123643   0.000000
    19  H    5.078965   4.410173   1.097767   0.000000
    20  H    5.311573   4.719796   1.092850   1.761203   0.000000
    21  H    4.815206   4.735481   1.092037   1.764870   1.769774
    22  C    4.512405   4.677721   2.952343   4.048079   2.781448
    23  H    5.128464   4.921181   2.815652   3.838313   2.264030
    24  H    5.010236   5.367782   4.049349   5.145621   3.818744
    25  H    4.823657   5.146676   2.748181   3.807525   2.737978
    26  C    3.222666   3.019032   3.946464   4.809248   3.966549
    27  H    3.844679   3.934314   4.853261   5.788482   4.782641
    28  H    4.036997   3.378165   3.816633   4.602535   3.597078
    29  H    2.523029   2.226953   4.388212   5.104062   4.598288
                   21         22         23         24         25
    21  H    0.000000
    22  C    2.899602   0.000000
    23  H    3.032477   1.090569   0.000000
    24  H    3.920441   1.099774   1.775617   0.000000
    25  H    2.304522   1.089869   1.795876   1.761742   0.000000
    26  C    4.415814   2.554890   2.761122   2.842390   3.496124
    27  H    5.196720   2.832856   3.131667   2.678968   3.830938
    28  H    4.476245   2.774830   2.533049   3.174342   3.764061
    29  H    4.912690   3.494624   3.760610   3.829043   4.317299
                   26         27         28         29
    26  C    0.000000
    27  H    1.098497   0.000000
    28  H    1.091818   1.778143   0.000000
    29  H    1.089697   1.762137   1.793567   0.000000
 Framework group  C1[X(C8H16Cl3FeO)]
 Deg. of freedom    81
                         Standard orientation:                         
 ---------------------------------------------------------------------
 Center     Atomic      Atomic             Coordinates (Angstroms)
 Number     Number       Type             X           Y           Z
 ---------------------------------------------------------------------
      1          8           0       -0.320450   -0.129753   -0.662083
      2          6           0       -1.229965   -1.047660   -0.577100
      3          6           0       -3.018748   -0.106546    0.155743
      4          6           0       -2.354647    1.046128   -0.172798
      5          6           0       -2.426941    1.641332   -1.540688
      6         26           0        1.437113    0.078013    0.037847
      7         17           0        2.046256    2.036685   -0.738422
      8          6           0       -1.561336    1.833291    0.816969
      9         17           0        2.515704   -1.668915   -0.745199
     10         17           0        1.290216    0.031426    2.244001
     11          1           0       -3.693861   -0.508722   -0.596259
     12          1           0       -2.225304    2.603591    1.237301
     13          1           0       -1.178751    1.237844    1.645703
     14          1           0       -0.725942    2.348775    0.335579
     15          1           0       -2.744613    2.688052   -1.450720
     16          1           0       -1.426185    1.655115   -1.988550
     17          1           0       -3.127411    1.124288   -2.199615
     18          6           0       -3.323198   -0.529615    1.572746
     19          1           0       -4.210589    0.010357    1.927794
     20          1           0       -3.552239   -1.596460    1.633599
     21          1           0       -2.509961   -0.315205    2.269322
     22          6           0       -1.064112   -2.095094    0.494721
     23          1           0       -1.925171   -2.759783    0.572863
     24          1           0       -0.195073   -2.690783    0.179399
     25          1           0       -0.820276   -1.659184    1.463401
     26          6           0       -1.756978   -1.549390   -1.903113
     27          1           0       -0.939713   -2.142894   -2.334999
     28          1           0       -2.632320   -2.192496   -1.792399
     29          1           0       -1.965378   -0.733824   -2.595111
 ---------------------------------------------------------------------
 Rotational constants (GHZ):           0.5827821           0.3389895           0.3179448
   427 basis functions,  1056 primitive gaussians,   461 cartesian basis functions
    77 alpha electrons       72 beta electrons
       nuclear repulsion energy      1649.4254871981 Hartrees.
 NAtoms=   29 NActive=   29 NUniq=   29 SFac= 1.00D+00 NAtFMM=   60 NAOKFM=F Big=F
 Initial guess from the checkpoint file:  "checkpoint.chk"
 B after Tr=     0.000000    0.000000    0.000000
         Rot=    1.000000    0.000000    0.000000    0.000000 Ang=   0.00 deg.
 Initial guess <Sx>= 0.0000 <Sy>= 0.0000 <Sz>= 2.5000 <S**2>= 8.7624 S= 2.5021
 SCF Done:  E(UB3LYP) =  -3034.32429411     A.U. after   13 cycles
            NFock= 13  Conv=0.73D-08     -V/T= 2.0024
 <Sx>= 0.0000 <Sy>= 0.0000 <Sz>= 2.5000 <S**2>= 8.7617 S= 2.5019
 <L.S>= 0.000000000000E+00
 Annihilation of the first spin contaminant:
 S**2 before annihilation     8.7617,   after     8.7500
 1\1\GINC-HOLY7C04212\SP\UB3LYP\Jul-CC-pVDZ\C8H16Cl3Fe1O1(6)\EKWAN\11-F
 eb-2020\0\\#t pop=none jul-cc-pvdz guess=read ub3lyp\\theory_abbreviat
 ion b3lyp\\0,6\O,0,-0.32045,-0.129753,-0.662083\C,0,-1.229965,-1.04766
 ,-0.5771\C,0,-3.018748,-0.106546,0.155743\C,0,-2.354647,1.046128,-0.17
 2798\C,0,-2.426941,1.641332,-1.540688\Fe,0,1.437113,0.078013,0.037847\
 Cl,0,2.046256,2.036685,-0.738422\C,0,-1.561336,1.833291,0.816969\Cl,0,
 2.515704,-1.668915,-0.745199\Cl,0,1.290216,0.031426,2.244001\H,0,-3.69
 3861,-0.508722,-0.596259\H,0,-2.225304,2.603591,1.237301\H,0,-1.178751
 ,1.237844,1.645703\H,0,-0.725942,2.348775,0.335579\H,0,-2.744613,2.688
 052,-1.45072\H,0,-1.426185,1.655115,-1.98855\H,0,-3.127411,1.124288,-2
 .199615\C,0,-3.323198,-0.529615,1.572746\H,0,-4.210589,0.010357,1.9277
 94\H,0,-3.552239,-1.59646,1.633599\H,0,-2.509961,-0.315205,2.269322\C,
 0,-1.064112,-2.095094,0.494721\H,0,-1.925171,-2.759783,0.572863\H,0,-0
 .195073,-2.690783,0.179399\H,0,-0.820276,-1.659184,1.463401\C,0,-1.756
 978,-1.54939,-1.903113\H,0,-0.939713,-2.142894,-2.334999\H,0,-2.63232,
 -2.192496,-1.792399\H,0,-1.965378,-0.733824,-2.595111\\Version=ES64L-G
 16RevA.03\HF=-3034.3242941\S2=8.76166\S2-1=0.\S2A=8.750042\RMSD=7.290e
 -09\PG=C01 [X(C8H16Cl3Fe1O1)]\\@


 BOOKS ARE LIGHTHOUSES ERECTED IN THE GREAT SEA OF TIME.
     -- E.P.WHIPPLE
 Job cpu time:       0 days  0 hours 54 minutes 11.8 seconds.
 Elapsed time:       0 days  0 hours 13 minutes 39.8 seconds.
 File lengths (MBytes):  RWF=    174 Int=      0 D2E=      0 Chk=     13 Scr=      1
 Normal termination of Gaussian 16 at Tue Feb 11 14:12:42 2020.
 Initial command:
 /n/sw/g16_nehalem/g16/l1.exe "/scratch/Gau-359432.inp" -scrdir="/scratch/"
 Entering Link 1 = /n/sw/g16_nehalem/g16/l1.exe PID=    362411.
  
 Copyright (c) 1988,1990,1992,1993,1995,1998,2003,2009,2016,
            Gaussian, Inc.  All Rights Reserved.
  
 This is part of the Gaussian(R) 16 program.  It is based on
 the Gaussian(R) 09 system (copyright 2009, Gaussian, Inc.),
 the Gaussian(R) 03 system (copyright 2003, Gaussian, Inc.),
 the Gaussian(R) 98 system (copyright 1998, Gaussian, Inc.),
 the Gaussian(R) 94 system (copyright 1995, Gaussian, Inc.),
 the Gaussian 92(TM) system (copyright 1992, Gaussian, Inc.),
 the Gaussian 90(TM) system (copyright 1990, Gaussian, Inc.),
 the Gaussian 88(TM) system (copyright 1988, Gaussian, Inc.),
 the Gaussian 86(TM) system (copyright 1986, Carnegie Mellon
 University), and the Gaussian 82(TM) system (copyright 1983,
 Carnegie Mellon University). Gaussian is a federally registered
 trademark of Gaussian, Inc.
  
 This software contains proprietary and confidential information,
 including trade secrets, belonging to Gaussian, Inc.
  
 This software is provided under written license and may be
 used, copied, transmitted, or stored only in accord with that
 written license.
  
 The following legend is applicable only to US Government
 contracts under FAR:
  
                    RESTRICTED RIGHTS LEGEND
  
 Use, reproduction and disclosure by the US Government is
 subject to restrictions as set forth in subparagraphs (a)
 and (c) of the Commercial Computer Software - Restricted
 Rights clause in FAR 52.227-19.
  
 Gaussian, Inc.
 340 Quinnipiac St., Bldg. 40, Wallingford CT 06492
  
  
 ---------------------------------------------------------------
 Warning -- This program may not be used in any manner that
 competes with the business of Gaussian, Inc. or will provide
 assistance to any competitor of Gaussian, Inc.  The licensee
 of this program is prohibited from giving any competitor of
 Gaussian, Inc. access to this program.  By using this program,
 the user acknowledges that Gaussian, Inc. is engaged in the
 business of creating and licensing software in the field of
 computational chemistry and represents and warrants to the
 licensee that it is not a competitor of Gaussian, Inc. and that
 it will not use this program in any manner prohibited above.
 ---------------------------------------------------------------
  

 Cite this work as:
 Gaussian 16, Revision A.03,
 M. J. Frisch, G. W. Trucks, H. B. Schlegel, G. E. Scuseria, 
 M. A. Robb, J. R. Cheeseman, G. Scalmani, V. Barone, 
 G. A. Petersson, H. Nakatsuji, X. Li, M. Caricato, A. V. Marenich, 
 J. Bloino, B. G. Janesko, R. Gomperts, B. Mennucci, H. P. Hratchian, 
 J. V. Ortiz, A. F. Izmaylov, J. L. Sonnenberg, D. Williams-Young, 
 F. Ding, F. Lipparini, F. Egidi, J. Goings, B. Peng, A. Petrone, 
 T. Henderson, D. Ranasinghe, V. G. Zakrzewski, J. Gao, N. Rega, 
 G. Zheng, W. Liang, M. Hada, M. Ehara, K. Toyota, R. Fukuda, 
 J. Hasegawa, M. Ishida, T. Nakajima, Y. Honda, O. Kitao, H. Nakai, 
 T. Vreven, K. Throssell, J. A. Montgomery, Jr., J. E. Peralta, 
 F. Ogliaro, M. J. Bearpark, J. J. Heyd, E. N. Brothers, K. N. Kudin, 
 V. N. Staroverov, T. A. Keith, R. Kobayashi, J. Normand, 
 K. Raghavachari, A. P. Rendell, J. C. Burant, S. S. Iyengar, 
 J. Tomasi, M. Cossi, J. M. Millam, M. Klene, C. Adamo, R. Cammi, 
 J. W. Ochterski, R. L. Martin, K. Morokuma, O. Farkas, 
 J. B. Foresman, and D. J. Fox, Gaussian, Inc., Wallingford CT, 2016.
 
 ******************************************
 Gaussian 16:  ES64L-G16RevA.03 25-Dec-2016
                11-Feb-2020 
 ******************************************
 %chk=checkpoint.chk
 %mem=3GB
 %nprocshared=4
 Will use up to    4 processors via shared memory.
 -------------------------------------------------------------------
 #t pop=none jul-cc-pvdz guess=read ub3lyp empiricaldispersion=gd3bj
 -------------------------------------------------------------------
 ------------------------------
 theory_abbreviation b3lyp_d3bj
 ------------------------------
 Symbolic Z-matrix:
 Charge =  0 Multiplicity = 6
 O                    -0.32045  -0.12975  -0.66208 
 C                    -1.22997  -1.04766  -0.5771 
 C                    -3.01875  -0.10655   0.15574 
 C                    -2.35465   1.04613  -0.1728 
 C                    -2.42694   1.64133  -1.54069 
 Fe                    1.43711   0.07801   0.03785 
 Cl                    2.04626   2.03668  -0.73842 
 C                    -1.56134   1.83329   0.81697 
 Cl                    2.5157   -1.66892  -0.7452 
 Cl                    1.29022   0.03143   2.244 
 H                    -3.69386  -0.50872  -0.59626 
 H                    -2.2253    2.60359   1.2373 
 H                    -1.17875   1.23784   1.6457 
 H                    -0.72594   2.34878   0.33558 
 H                    -2.74461   2.68805  -1.45072 
 H                    -1.42619   1.65512  -1.98855 
 H                    -3.12741   1.12429  -2.19962 
 C                    -3.3232   -0.52962   1.57275 
 H                    -4.21059   0.01036   1.92779 
 H                    -3.55224  -1.59646   1.6336 
 H                    -2.50996  -0.31521   2.26932 
 C                    -1.06411  -2.09509   0.49472 
 H                    -1.92517  -2.75978   0.57286 
 H                    -0.19507  -2.69078   0.1794 
 H                    -0.82028  -1.65918   1.4634 
 C                    -1.75698  -1.54939  -1.90311 
 H                    -0.93971  -2.14289  -2.335 
 H                    -2.63232  -2.1925   -1.7924 
 H                    -1.96538  -0.73382  -2.59511 
 
                    Distance matrix (angstroms):
                    1          2          3          4          5
     1  O    0.000000
     2  C    1.294988   0.000000
     3  C    2.819608   2.150000   0.000000
     4  C    2.400011   2.410875   1.370265   0.000000
     5  C    2.888943   3.097084   2.506629   1.493525   0.000000
     6  Fe   1.903181   2.959494   4.461240   3.919064   4.457202
     7  Cl   3.209451   4.502536   5.572005   4.546326   4.561735
     8  C    2.753350   3.217625   2.514804   1.492852   2.518862
     9  Cl   3.227956   3.800559   5.820898   5.605303   6.001690
    10  Cl   3.326492   3.933745   4.790306   4.489495   5.543728
    11  H    3.395269   2.522222   1.087672   2.095321   2.668289
    12  H    3.835009   4.196949   3.023932   2.104947   2.946833
    13  H    2.816537   3.188574   2.722674   2.174036   3.445848
    14  H    2.702379   3.552857   3.364209   2.146629   2.629496
    15  H    3.799808   4.124671   3.235066   2.116854   1.097558
    16  H    2.483529   3.055435   3.199640   2.128347   1.096487
    17  H    3.437391   3.309111   2.659788   2.170544   1.091869
    18  C    3.764418   3.044968   1.509826   2.543223   3.899969
    19  H    4.675497   4.034602   2.138765   2.988282   4.227511
    20  H    4.226801   3.252895   2.165298   3.417685   4.671797
    21  H    3.663535   3.205776   2.183946   2.800232   4.283819
    22  C    2.398707   1.507788   2.808884   3.460974   4.467782
    23  H    3.319229   2.176486   2.899925   3.901976   4.908022
    24  H    2.698645   2.084021   3.827791   4.330393   5.167897
    25  H    2.665833   2.169205   2.992312   3.514279   4.743346
    26  C    2.370472   1.512543   2.812961   3.176147   3.280382
    27  H    2.689772   2.091409   3.830522   4.104511   4.142842
    28  H    3.298070   2.180413   2.880238   3.631652   3.847568
    29  H    2.609078   2.170644   3.011688   3.031066   2.639359
                    6          7          8          9         10
     6  Fe   0.000000
     7  Cl   2.193181   0.000000
     8  C    3.560720   3.933870   0.000000
     9  Cl   2.197334   3.735224   5.597148   0.000000
    10  Cl   2.211530   3.672534   3.662579   3.650794   0.000000
    11  H    5.203195   6.280784   3.468415   6.318776   5.761932
    12  H    4.607660   4.740368   1.100407   6.682946   4.470834
    13  H    3.282248   4.089360   1.089830   5.273960   2.812331
    14  H    3.150208   2.989308   1.093318   5.274295   3.616224
    15  H    5.149269   4.887133   2.696882   6.866721   6.081815
    16  H    3.846038   3.710291   2.814418   5.304110   5.284855
    17  H    5.189972   5.452924   3.472039   6.462357   6.360464
    18  C    5.038421   6.384233   3.042808   6.384642   4.695630
    19  H    5.955923   7.096677   3.402288   7.430199   5.509926
    20  H    5.499447   7.083034   4.048922   6.517965   5.145092
    21  H    4.551208   5.944495   2.761386   6.014747   3.816037
    22  C    3.344735   5.316637   3.972818   3.812363   3.622834
    23  H    4.432187   6.363789   4.613924   4.759060   4.574086
    24  H    3.217188   5.311770   4.768691   3.040955   3.725465
    25  H    3.185257   5.169572   3.628281   4.000846   2.814547
    26  C    4.076516   5.355467   4.345072   4.428415   5.383579
    27  H    4.026429   5.379029   5.111885   3.833018   5.537824
    28  H    5.006525   6.394209   4.915564   5.279481   6.051830
    29  H    4.378184   5.216917   4.289011   4.937273   5.882304
                   11         12         13         14         15
    11  H    0.000000
    12  H    3.899371   0.000000
    13  H    3.795084   1.768426   0.000000
    14  H    4.223997   1.768084   1.776409   0.000000
    15  H    3.442461   2.739028   3.760700   2.716801   0.000000
    16  H    3.429726   3.456054   3.666488   2.524496   1.759111
    17  H    2.357613   3.848964   4.312382   3.700491   1.775595
    18  C    2.200548   3.336896   2.779908   4.069576   4.453031
    19  H    2.628173   3.338113   3.283038   4.488442   4.553405
    20  H    2.485055   4.422470   3.696873   5.023713   5.340630
    21  H    3.106545   3.108933   2.138453   3.744179   4.786787
    22  C    3.259201   4.896676   3.527942   4.459558   5.430222
    23  H    3.092311   5.412702   4.205847   5.252792   5.869010
    24  H    4.195778   5.768136   4.307178   5.069848   6.171654
    25  H    3.717964   4.494049   2.924809   4.164687   5.576167
    26  C    2.557806   5.227694   4.549408   4.611992   4.374471
    27  H    3.644045   6.078091   5.228051   5.229988   5.232366
    28  H    2.322222   5.687459   5.069580   5.365232   4.893782
    29  H    2.652119   5.088544   4.742442   4.430300   3.691351
                   16         17         18         19         20
    16  H    0.000000
    17  H    1.794574   0.000000
    18  C    4.588522   4.123643   0.000000
    19  H    5.078965   4.410173   1.097767   0.000000
    20  H    5.311573   4.719796   1.092850   1.761203   0.000000
    21  H    4.815206   4.735481   1.092037   1.764870   1.769774
    22  C    4.512405   4.677721   2.952343   4.048079   2.781448
    23  H    5.128464   4.921181   2.815652   3.838313   2.264030
    24  H    5.010236   5.367782   4.049349   5.145621   3.818744
    25  H    4.823657   5.146676   2.748181   3.807525   2.737978
    26  C    3.222666   3.019032   3.946464   4.809248   3.966549
    27  H    3.844679   3.934314   4.853261   5.788482   4.782641
    28  H    4.036997   3.378165   3.816633   4.602535   3.597078
    29  H    2.523029   2.226953   4.388212   5.104062   4.598288
                   21         22         23         24         25
    21  H    0.000000
    22  C    2.899602   0.000000
    23  H    3.032477   1.090569   0.000000
    24  H    3.920441   1.099774   1.775617   0.000000
    25  H    2.304522   1.089869   1.795876   1.761742   0.000000
    26  C    4.415814   2.554890   2.761122   2.842390   3.496124
    27  H    5.196720   2.832856   3.131667   2.678968   3.830938
    28  H    4.476245   2.774830   2.533049   3.174342   3.764061
    29  H    4.912690   3.494624   3.760610   3.829043   4.317299
                   26         27         28         29
    26  C    0.000000
    27  H    1.098497   0.000000
    28  H    1.091818   1.778143   0.000000
    29  H    1.089697   1.762137   1.793567   0.000000
 Framework group  C1[X(C8H16Cl3FeO)]
 Deg. of freedom    81
                         Standard orientation:                         
 ---------------------------------------------------------------------
 Center     Atomic      Atomic             Coordinates (Angstroms)
 Number     Number       Type             X           Y           Z
 ---------------------------------------------------------------------
      1          8           0       -0.320450   -0.129753   -0.662083
      2          6           0       -1.229965   -1.047660   -0.577100
      3          6           0       -3.018748   -0.106546    0.155743
      4          6           0       -2.354647    1.046128   -0.172798
      5          6           0       -2.426941    1.641332   -1.540688
      6         26           0        1.437113    0.078013    0.037847
      7         17           0        2.046256    2.036685   -0.738422
      8          6           0       -1.561336    1.833291    0.816969
      9         17           0        2.515704   -1.668915   -0.745199
     10         17           0        1.290216    0.031426    2.244001
     11          1           0       -3.693861   -0.508722   -0.596259
     12          1           0       -2.225304    2.603591    1.237301
     13          1           0       -1.178751    1.237844    1.645703
     14          1           0       -0.725942    2.348775    0.335579
     15          1           0       -2.744613    2.688052   -1.450720
     16          1           0       -1.426185    1.655115   -1.988550
     17          1           0       -3.127411    1.124288   -2.199615
     18          6           0       -3.323198   -0.529615    1.572746
     19          1           0       -4.210589    0.010357    1.927794
     20          1           0       -3.552239   -1.596460    1.633599
     21          1           0       -2.509961   -0.315205    2.269322
     22          6           0       -1.064112   -2.095094    0.494721
     23          1           0       -1.925171   -2.759783    0.572863
     24          1           0       -0.195073   -2.690783    0.179399
     25          1           0       -0.820276   -1.659184    1.463401
     26          6           0       -1.756978   -1.549390   -1.903113
     27          1           0       -0.939713   -2.142894   -2.334999
     28          1           0       -2.632320   -2.192496   -1.792399
     29          1           0       -1.965378   -0.733824   -2.595111
 ---------------------------------------------------------------------
 Rotational constants (GHZ):           0.5827821           0.3389895           0.3179448
   427 basis functions,  1056 primitive gaussians,   461 cartesian basis functions
    77 alpha electrons       72 beta electrons
       nuclear repulsion energy      1649.4254871981 Hartrees.
 NAtoms=   29 NActive=   29 NUniq=   29 SFac= 1.00D+00 NAtFMM=   60 NAOKFM=F Big=F
 Nuclear repulsion after empirical dispersion term =     1649.3550515902 Hartrees.
 Initial guess from the checkpoint file:  "checkpoint.chk"
 B after Tr=     0.000000    0.000000    0.000000
         Rot=    1.000000    0.000000    0.000000    0.000000 Ang=   0.00 deg.
 Initial guess <Sx>= 0.0000 <Sy>= 0.0000 <Sz>= 2.5000 <S**2>= 8.7617 S= 2.5019
 SCF Done:  E(UB3LYP) =  -3034.39472972     A.U. after    1 cycles
            NFock=  1  Conv=0.46D-08     -V/T= 2.0024
 <Sx>= 0.0000 <Sy>= 0.0000 <Sz>= 2.5000 <S**2>= 8.7617 S= 2.5019
 <L.S>= 0.000000000000E+00
 Annihilation of the first spin contaminant:
 S**2 before annihilation     8.7617,   after     8.7500
 1\1\GINC-HOLY7C04212\SP\UB3LYP\Jul-CC-pVDZ\C8H16Cl3Fe1O1(6)\EKWAN\11-F
 eb-2020\0\\#t pop=none jul-cc-pvdz guess=read ub3lyp empiricaldispersi
 on=gd3bj\\theory_abbreviation b3lyp_d3bj\\0,6\O,0,-0.32045,-0.129753,-
 0.662083\C,0,-1.229965,-1.04766,-0.5771\C,0,-3.018748,-0.106546,0.1557
 43\C,0,-2.354647,1.046128,-0.172798\C,0,-2.426941,1.641332,-1.540688\F
 e,0,1.437113,0.078013,0.037847\Cl,0,2.046256,2.036685,-0.738422\C,0,-1
 .561336,1.833291,0.816969\Cl,0,2.515704,-1.668915,-0.745199\Cl,0,1.290
 216,0.031426,2.244001\H,0,-3.693861,-0.508722,-0.596259\H,0,-2.225304,
 2.603591,1.237301\H,0,-1.178751,1.237844,1.645703\H,0,-0.725942,2.3487
 75,0.335579\H,0,-2.744613,2.688052,-1.45072\H,0,-1.426185,1.655115,-1.
 98855\H,0,-3.127411,1.124288,-2.199615\C,0,-3.323198,-0.529615,1.57274
 6\H,0,-4.210589,0.010357,1.927794\H,0,-3.552239,-1.59646,1.633599\H,0,
 -2.509961,-0.315205,2.269322\C,0,-1.064112,-2.095094,0.494721\H,0,-1.9
 25171,-2.759783,0.572863\H,0,-0.195073,-2.690783,0.179399\H,0,-0.82027
 6,-1.659184,1.463401\C,0,-1.756978,-1.54939,-1.903113\H,0,-0.939713,-2
 .142894,-2.334999\H,0,-2.63232,-2.192496,-1.792399\H,0,-1.965378,-0.73
 3824,-2.595111\\Version=ES64L-G16RevA.03\HF=-3034.3947297\S2=8.76166\S
 2-1=0.\S2A=8.750042\RMSD=4.612e-09\PG=C01 [X(C8H16Cl3Fe1O1)]\\@


 Everywhere is walking distance if you have the time.
                                    -- Steven Wright
 Job cpu time:       0 days  0 hours  4 minutes 53.3 seconds.
 Elapsed time:       0 days  0 hours  1 minutes 16.2 seconds.
 File lengths (MBytes):  RWF=    170 Int=      0 D2E=      0 Chk=     13 Scr=      1
 Normal termination of Gaussian 16 at Tue Feb 11 14:13:59 2020.
 Initial command:
 /n/sw/g16_nehalem/g16/l1.exe "/scratch/Gau-359432.inp" -scrdir="/scratch/"
 Entering Link 1 = /n/sw/g16_nehalem/g16/l1.exe PID=    362706.
  
 Copyright (c) 1988,1990,1992,1993,1995,1998,2003,2009,2016,
            Gaussian, Inc.  All Rights Reserved.
  
 This is part of the Gaussian(R) 16 program.  It is based on
 the Gaussian(R) 09 system (copyright 2009, Gaussian, Inc.),
 the Gaussian(R) 03 system (copyright 2003, Gaussian, Inc.),
 the Gaussian(R) 98 system (copyright 1998, Gaussian, Inc.),
 the Gaussian(R) 94 system (copyright 1995, Gaussian, Inc.),
 the Gaussian 92(TM) system (copyright 1992, Gaussian, Inc.),
 the Gaussian 90(TM) system (copyright 1990, Gaussian, Inc.),
 the Gaussian 88(TM) system (copyright 1988, Gaussian, Inc.),
 the Gaussian 86(TM) system (copyright 1986, Carnegie Mellon
 University), and the Gaussian 82(TM) system (copyright 1983,
 Carnegie Mellon University). Gaussian is a federally registered
 trademark of Gaussian, Inc.
  
 This software contains proprietary and confidential information,
 including trade secrets, belonging to Gaussian, Inc.
  
 This software is provided under written license and may be
 used, copied, transmitted, or stored only in accord with that
 written license.
  
 The following legend is applicable only to US Government
 contracts under FAR:
  
                    RESTRICTED RIGHTS LEGEND
  
 Use, reproduction and disclosure by the US Government is
 subject to restrictions as set forth in subparagraphs (a)
 and (c) of the Commercial Computer Software - Restricted
 Rights clause in FAR 52.227-19.
  
 Gaussian, Inc.
 340 Quinnipiac St., Bldg. 40, Wallingford CT 06492
  
  
 ---------------------------------------------------------------
 Warning -- This program may not be used in any manner that
 competes with the business of Gaussian, Inc. or will provide
 assistance to any competitor of Gaussian, Inc.  The licensee
 of this program is prohibited from giving any competitor of
 Gaussian, Inc. access to this program.  By using this program,
 the user acknowledges that Gaussian, Inc. is engaged in the
 business of creating and licensing software in the field of
 computational chemistry and represents and warrants to the
 licensee that it is not a competitor of Gaussian, Inc. and that
 it will not use this program in any manner prohibited above.
 ---------------------------------------------------------------
  

 Cite this work as:
 Gaussian 16, Revision A.03,
 M. J. Frisch, G. W. Trucks, H. B. Schlegel, G. E. Scuseria, 
 M. A. Robb, J. R. Cheeseman, G. Scalmani, V. Barone, 
 G. A. Petersson, H. Nakatsuji, X. Li, M. Caricato, A. V. Marenich, 
 J. Bloino, B. G. Janesko, R. Gomperts, B. Mennucci, H. P. Hratchian, 
 J. V. Ortiz, A. F. Izmaylov, J. L. Sonnenberg, D. Williams-Young, 
 F. Ding, F. Lipparini, F. Egidi, J. Goings, B. Peng, A. Petrone, 
 T. Henderson, D. Ranasinghe, V. G. Zakrzewski, J. Gao, N. Rega, 
 G. Zheng, W. Liang, M. Hada, M. Ehara, K. Toyota, R. Fukuda, 
 J. Hasegawa, M. Ishida, T. Nakajima, Y. Honda, O. Kitao, H. Nakai, 
 T. Vreven, K. Throssell, J. A. Montgomery, Jr., J. E. Peralta, 
 F. Ogliaro, M. J. Bearpark, J. J. Heyd, E. N. Brothers, K. N. Kudin, 
 V. N. Staroverov, T. A. Keith, R. Kobayashi, J. Normand, 
 K. Raghavachari, A. P. Rendell, J. C. Burant, S. S. Iyengar, 
 J. Tomasi, M. Cossi, J. M. Millam, M. Klene, C. Adamo, R. Cammi, 
 J. W. Ochterski, R. L. Martin, K. Morokuma, O. Farkas, 
 J. B. Foresman, and D. J. Fox, Gaussian, Inc., Wallingford CT, 2016.
 
 ******************************************
 Gaussian 16:  ES64L-G16RevA.03 25-Dec-2016
                11-Feb-2020 
 ******************************************
 %chk=checkpoint.chk
 %mem=3GB
 %nprocshared=4
 Will use up to    4 processors via shared memory.
 ----------------------------------------
 #t pop=none jul-cc-pvdz guess=read ub97d
 ----------------------------------------
 ------------------------
 theory_abbreviation b97d
 ------------------------
 Symbolic Z-matrix:
 Charge =  0 Multiplicity = 6
 O                    -0.32045  -0.12975  -0.66208 
 C                    -1.22997  -1.04766  -0.5771 
 C                    -3.01875  -0.10655   0.15574 
 C                    -2.35465   1.04613  -0.1728 
 C                    -2.42694   1.64133  -1.54069 
 Fe                    1.43711   0.07801   0.03785 
 Cl                    2.04626   2.03668  -0.73842 
 C                    -1.56134   1.83329   0.81697 
 Cl                    2.5157   -1.66892  -0.7452 
 Cl                    1.29022   0.03143   2.244 
 H                    -3.69386  -0.50872  -0.59626 
 H                    -2.2253    2.60359   1.2373 
 H                    -1.17875   1.23784   1.6457 
 H                    -0.72594   2.34878   0.33558 
 H                    -2.74461   2.68805  -1.45072 
 H                    -1.42619   1.65512  -1.98855 
 H                    -3.12741   1.12429  -2.19962 
 C                    -3.3232   -0.52962   1.57275 
 H                    -4.21059   0.01036   1.92779 
 H                    -3.55224  -1.59646   1.6336 
 H                    -2.50996  -0.31521   2.26932 
 C                    -1.06411  -2.09509   0.49472 
 H                    -1.92517  -2.75978   0.57286 
 H                    -0.19507  -2.69078   0.1794 
 H                    -0.82028  -1.65918   1.4634 
 C                    -1.75698  -1.54939  -1.90311 
 H                    -0.93971  -2.14289  -2.335 
 H                    -2.63232  -2.1925   -1.7924 
 H                    -1.96538  -0.73382  -2.59511 
 
                    Distance matrix (angstroms):
                    1          2          3          4          5
     1  O    0.000000
     2  C    1.294988   0.000000
     3  C    2.819608   2.150000   0.000000
     4  C    2.400011   2.410875   1.370265   0.000000
     5  C    2.888943   3.097084   2.506629   1.493525   0.000000
     6  Fe   1.903181   2.959494   4.461240   3.919064   4.457202
     7  Cl   3.209451   4.502536   5.572005   4.546326   4.561735
     8  C    2.753350   3.217625   2.514804   1.492852   2.518862
     9  Cl   3.227956   3.800559   5.820898   5.605303   6.001690
    10  Cl   3.326492   3.933745   4.790306   4.489495   5.543728
    11  H    3.395269   2.522222   1.087672   2.095321   2.668289
    12  H    3.835009   4.196949   3.023932   2.104947   2.946833
    13  H    2.816537   3.188574   2.722674   2.174036   3.445848
    14  H    2.702379   3.552857   3.364209   2.146629   2.629496
    15  H    3.799808   4.124671   3.235066   2.116854   1.097558
    16  H    2.483529   3.055435   3.199640   2.128347   1.096487
    17  H    3.437391   3.309111   2.659788   2.170544   1.091869
    18  C    3.764418   3.044968   1.509826   2.543223   3.899969
    19  H    4.675497   4.034602   2.138765   2.988282   4.227511
    20  H    4.226801   3.252895   2.165298   3.417685   4.671797
    21  H    3.663535   3.205776   2.183946   2.800232   4.283819
    22  C    2.398707   1.507788   2.808884   3.460974   4.467782
    23  H    3.319229   2.176486   2.899925   3.901976   4.908022
    24  H    2.698645   2.084021   3.827791   4.330393   5.167897
    25  H    2.665833   2.169205   2.992312   3.514279   4.743346
    26  C    2.370472   1.512543   2.812961   3.176147   3.280382
    27  H    2.689772   2.091409   3.830522   4.104511   4.142842
    28  H    3.298070   2.180413   2.880238   3.631652   3.847568
    29  H    2.609078   2.170644   3.011688   3.031066   2.639359
                    6          7          8          9         10
     6  Fe   0.000000
     7  Cl   2.193181   0.000000
     8  C    3.560720   3.933870   0.000000
     9  Cl   2.197334   3.735224   5.597148   0.000000
    10  Cl   2.211530   3.672534   3.662579   3.650794   0.000000
    11  H    5.203195   6.280784   3.468415   6.318776   5.761932
    12  H    4.607660   4.740368   1.100407   6.682946   4.470834
    13  H    3.282248   4.089360   1.089830   5.273960   2.812331
    14  H    3.150208   2.989308   1.093318   5.274295   3.616224
    15  H    5.149269   4.887133   2.696882   6.866721   6.081815
    16  H    3.846038   3.710291   2.814418   5.304110   5.284855
    17  H    5.189972   5.452924   3.472039   6.462357   6.360464
    18  C    5.038421   6.384233   3.042808   6.384642   4.695630
    19  H    5.955923   7.096677   3.402288   7.430199   5.509926
    20  H    5.499447   7.083034   4.048922   6.517965   5.145092
    21  H    4.551208   5.944495   2.761386   6.014747   3.816037
    22  C    3.344735   5.316637   3.972818   3.812363   3.622834
    23  H    4.432187   6.363789   4.613924   4.759060   4.574086
    24  H    3.217188   5.311770   4.768691   3.040955   3.725465
    25  H    3.185257   5.169572   3.628281   4.000846   2.814547
    26  C    4.076516   5.355467   4.345072   4.428415   5.383579
    27  H    4.026429   5.379029   5.111885   3.833018   5.537824
    28  H    5.006525   6.394209   4.915564   5.279481   6.051830
    29  H    4.378184   5.216917   4.289011   4.937273   5.882304
                   11         12         13         14         15
    11  H    0.000000
    12  H    3.899371   0.000000
    13  H    3.795084   1.768426   0.000000
    14  H    4.223997   1.768084   1.776409   0.000000
    15  H    3.442461   2.739028   3.760700   2.716801   0.000000
    16  H    3.429726   3.456054   3.666488   2.524496   1.759111
    17  H    2.357613   3.848964   4.312382   3.700491   1.775595
    18  C    2.200548   3.336896   2.779908   4.069576   4.453031
    19  H    2.628173   3.338113   3.283038   4.488442   4.553405
    20  H    2.485055   4.422470   3.696873   5.023713   5.340630
    21  H    3.106545   3.108933   2.138453   3.744179   4.786787
    22  C    3.259201   4.896676   3.527942   4.459558   5.430222
    23  H    3.092311   5.412702   4.205847   5.252792   5.869010
    24  H    4.195778   5.768136   4.307178   5.069848   6.171654
    25  H    3.717964   4.494049   2.924809   4.164687   5.576167
    26  C    2.557806   5.227694   4.549408   4.611992   4.374471
    27  H    3.644045   6.078091   5.228051   5.229988   5.232366
    28  H    2.322222   5.687459   5.069580   5.365232   4.893782
[...]
   427 basis functions,  1056 primitive gaussians,   461 cartesian basis functions
    77 alpha electrons       72 beta electrons
       nuclear repulsion energy      1649.4254871981 Hartrees.
 NAtoms=   29 NActive=   29 NUniq=   29 SFac= 1.00D+00 NAtFMM=   60 NAOKFM=F Big=F
 Nuclear repulsion after empirical dispersion term =     1649.4230585437 Hartrees.
 Initial guess from the checkpoint file:  "checkpoint.chk"
 B after Tr=     0.000000    0.000000    0.000000
         Rot=    1.000000    0.000000    0.000000    0.000000 Ang=   0.00 deg.
 Initial guess <Sx>= 0.0000 <Sy>= 0.0000 <Sz>= 2.5000 <S**2>= 8.7614 S= 2.5019
 SCF Done:  E(UM06L) =  -3034.19203193     A.U. after   17 cycles
            NFock= 17  Conv=0.95D-08     -V/T= 2.0020
 <Sx>= 0.0000 <Sy>= 0.0000 <Sz>= 2.5000 <S**2>= 8.7614 S= 2.5019
 <L.S>= 0.000000000000E+00
 Annihilation of the first spin contaminant:
 S**2 before annihilation     8.7614,   after     8.7500
 1\1\GINC-HOLY7C04212\SP\UM06L\Jul-CC-pVDZ\C8H16Cl3Fe1O1(6)\EKWAN\11-Fe
 b-2020\0\\#t pop=none jul-cc-pvdz guess=read um06l empiricaldispersion
 =gd3\\theory_abbreviation m06l_d3\\0,6\O,0,-0.32045,-0.129753,-0.66208
 3\C,0,-1.229965,-1.04766,-0.5771\C,0,-3.018748,-0.106546,0.155743\C,0,
 -2.354647,1.046128,-0.172798\C,0,-2.426941,1.641332,-1.540688\Fe,0,1.4
 37113,0.078013,0.037847\Cl,0,2.046256,2.036685,-0.738422\C,0,-1.561336
 ,1.833291,0.816969\Cl,0,2.515704,-1.668915,-0.745199\Cl,0,1.290216,0.0
 31426,2.244001\H,0,-3.693861,-0.508722,-0.596259\H,0,-2.225304,2.60359
 1,1.237301\H,0,-1.178751,1.237844,1.645703\H,0,-0.725942,2.348775,0.33
 5579\H,0,-2.744613,2.688052,-1.45072\H,0,-1.426185,1.655115,-1.98855\H
 ,0,-3.127411,1.124288,-2.199615\C,0,-3.323198,-0.529615,1.572746\H,0,-
 4.210589,0.010357,1.927794\H,0,-3.552239,-1.59646,1.633599\H,0,-2.5099
 61,-0.315205,2.269322\C,0,-1.064112,-2.095094,0.494721\H,0,-1.925171,-
 2.759783,0.572863\H,0,-0.195073,-2.690783,0.179399\H,0,-0.820276,-1.65
 9184,1.463401\C,0,-1.756978,-1.54939,-1.903113\H,0,-0.939713,-2.142894
 ,-2.334999\H,0,-2.63232,-2.192496,-1.792399\H,0,-1.965378,-0.733824,-2
 .595111\\Version=ES64L-G16RevA.03\HF=-3034.1920319\S2=8.761449\S2-1=0.
 \S2A=8.750042\RMSD=9.524e-09\PG=C01 [X(C8H16Cl3Fe1O1)]\\@


 AND THIS OUR LIFE, EXEMPT FROM PUBLIC HAUNT,
 FINDS TONGUES IN TREES, BOOKS IN THE RUNNING BROOKS,
 SERMONS IN STONES, AND GOOD IN EVERYTHING.
 I WOULD NOT CHANGE IT. -- W. SHAKESPEARE
 AS YOU LIKE IT, ACT II, SCENE 1.
 Job cpu time:       0 days  1 hours 15 minutes  7.0 seconds.
 Elapsed time:       0 days  0 hours 18 minutes 58.0 seconds.
 File lengths (MBytes):  RWF=    174 Int=      0 D2E=      0 Chk=     13 Scr=      1
 Normal termination of Gaussian 16 at Tue Feb 11 23:20:29 2020.
 Initial command:
 /n/sw/g16_nehalem/g16/l1.exe "/scratch/Gau-359432.inp" -scrdir="/scratch/"
 Entering Link 1 = /n/sw/g16_nehalem/g16/l1.exe PID=    411299.
  
 Copyright (c) 1988,1990,1992,1993,1995,1998,2003,2009,2016,
            Gaussian, Inc.  All Rights Reserved.
  
 This is part of the Gaussian(R) 16 program.  It is based on
 the Gaussian(R) 09 system (copyright 2009, Gaussian, Inc.),
 the Gaussian(R) 03 system (copyright 2003, Gaussian, Inc.),
 the Gaussian(R) 98 system (copyright 1998, Gaussian, Inc.),
 the Gaussian(R) 94 system (copyright 1995, Gaussian, Inc.),
 the Gaussian 92(TM) system (copyright 1992, Gaussian, Inc.),
 the Gaussian 90(TM) system (copyright 1990, Gaussian, Inc.),
 the Gaussian 88(TM) system (copyright 1988, Gaussian, Inc.),
 the Gaussian 86(TM) system (copyright 1986, Carnegie Mellon
 University), and the Gaussian 82(TM) system (copyright 1983,
 Carnegie Mellon University). Gaussian is a federally registered
 trademark of Gaussian, Inc.
  
 This software contains proprietary and confidential information,
 including trade secrets, belonging to Gaussian, Inc.
  
 This software is provided under written license and may be
 used, copied, transmitted, or stored only in accord with that
 written license.
  
 The following legend is applicable only to US Government
 contracts under FAR:
  
                    RESTRICTED RIGHTS LEGEND
  
 Use, reproduction and disclosure by the US Government is
 subject to restrictions as set forth in subparagraphs (a)
 and (c) of the Commercial Computer Software - Restricted
 Rights clause in FAR 52.227-19.
  
 Gaussian, Inc.
 340 Quinnipiac St., Bldg. 40, Wallingford CT 06492
  
  
 ---------------------------------------------------------------
 Warning -- This program may not be used in any manner that
 competes with the business of Gaussian, Inc. or will provide
 assistance to any competitor of Gaussian, Inc.  The licensee
 of this program is prohibited from giving any competitor of
 Gaussian, Inc. access to this program.  By using this program,
 the user acknowledges that Gaussian, Inc. is engaged in the
 business of creating and licensing software in the field of
 computational chemistry and represents and warrants to the
 licensee that it is not a competitor of Gaussian, Inc. and that
 it will not use this program in any manner prohibited above.
 ---------------------------------------------------------------
  

 Cite this work as:
 Gaussian 16, Revision A.03,
 M. J. Frisch, G. W. Trucks, H. B. Schlegel, G. E. Scuseria, 
 M. A. Robb, J. R. Cheeseman, G. Scalmani, V. Barone, 
 G. A. Petersson, H. Nakatsuji, X. Li, M. Caricato, A. V. Marenich, 
 J. Bloino, B. G. Janesko, R. Gomperts, B. Mennucci, H. P. Hratchian, 
 J. V. Ortiz, A. F. Izmaylov, J. L. Sonnenberg, D. Williams-Young, 
 F. Ding, F. Lipparini, F. Egidi, J. Goings, B. Peng, A. Petrone, 
 T. Henderson, D. Ranasinghe, V. G. Zakrzewski, J. Gao, N. Rega, 
 G. Zheng, W. Liang, M. Hada, M. Ehara, K. Toyota, R. Fukuda, 
 J. Hasegawa, M. Ishida, T. Nakajima, Y. Honda, O. Kitao, H. Nakai, 
 T. Vreven, K. Throssell, J. A. Montgomery, Jr., J. E. Peralta, 
 F. Ogliaro, M. J. Bearpark, J. J. Heyd, E. N. Brothers, K. N. Kudin, 
 V. N. Staroverov, T. A. Keith, R. Kobayashi, J. Normand, 
 K. Raghavachari, A. P. Rendell, J. C. Burant, S. S. Iyengar, 
 J. Tomasi, M. Cossi, J. M. Millam, M. Klene, C. Adamo, R. Cammi, 
 J. W. Ochterski, R. L. Martin, K. Morokuma, O. Farkas, 
 J. B. Foresman, and D. J. Fox, Gaussian, Inc., Wallingford CT, 2016.
 
 ******************************************
 Gaussian 16:  ES64L-G16RevA.03 25-Dec-2016
                11-Feb-2020 
 ******************************************
 %chk=checkpoint.chk
 %mem=3GB
 %nprocshared=4
 Will use up to    4 processors via shared memory.
 -------------------------------------------------------------------
 #t pop=none jul-cc-pvdz guess=read ub97d3 empiricaldispersion=gd3bj
 -------------------------------------------------------------------
 ------------------------------
 theory_abbreviation b97d3_d3bj
 ------------------------------
 Symbolic Z-matrix:
 Charge =  0 Multiplicity = 6
 O                    -0.32045  -0.12975  -0.66208 
 C                    -1.22997  -1.04766  -0.5771 
 C                    -3.01875  -0.10655   0.15574 
 C                    -2.35465   1.04613  -0.1728 
 C                    -2.42694   1.64133  -1.54069 
 Fe                    1.43711   0.07801   0.03785 
 Cl                    2.04626   2.03668  -0.73842 
 C                    -1.56134   1.83329   0.81697 
 Cl                    2.5157   -1.66892  -0.7452 
 Cl                    1.29022   0.03143   2.244 
 H                    -3.69386  -0.50872  -0.59626 
 H                    -2.2253    2.60359   1.2373 
 H                    -1.17875   1.23784   1.6457 
 H                    -0.72594   2.34878   0.33558 
 H                    -2.74461   2.68805  -1.45072 
 H                    -1.42619   1.65512  -1.98855 
 H                    -3.12741   1.12429  -2.19962 
 C                    -3.3232   -0.52962   1.57275 
 H                    -4.21059   0.01036   1.92779 
 H                    -3.55224  -1.59646   1.6336 
 H                    -2.50996  -0.31521   2.26932 
 C                    -1.06411  -2.09509   0.49472 
 H                    -1.92517  -2.75978   0.57286 
 H                    -0.19507  -2.69078   0.1794 
 H                    -0.82028  -1.65918   1.4634 
 C                    -1.75698  -1.54939  -1.90311 
 H                    -0.93971  -2.14289  -2.335 
 H                    -2.63232  -2.1925   -1.7924 
 H                    -1.96538  -0.73382  -2.59511 
 
                    Distance matrix (angstroms):
                    1          2          3          4          5
     1  O    0.000000
     2  C    1.294988   0.000000
     3  C    2.819608   2.150000   0.000000
     4  C    2.400011   2.410875   1.370265   0.000000
     5  C    2.888943   3.097084   2.506629   1.493525   0.000000
     6  Fe   1.903181   2.959494   4.461240   3.919064   4.457202
     7  Cl   3.209451   4.502536   5.572005   4.546326   4.561735
     8  C    2.753350   3.217625   2.514804   1.492852   2.518862
     9  Cl   3.227956   3.800559   5.820898   5.605303   6.001690
    10  Cl   3.326492   3.933745   4.790306   4.489495   5.543728
    11  H    3.395269   2.522222   1.087672   2.095321   2.668289
    12  H    3.835009   4.196949   3.023932   2.104947   2.946833
    13  H    2.816537   3.188574   2.722674   2.174036   3.445848
    14  H    2.702379   3.552857   3.364209   2.146629   2.629496
    15  H    3.799808   4.124671   3.235066   2.116854   1.097558
    16  H    2.483529   3.055435   3.199640   2.128347   1.096487
    17  H    3.437391   3.309111   2.659788   2.170544   1.091869
    18  C    3.764418   3.044968   1.509826   2.543223   3.899969
    19  H    4.675497   4.034602   2.138765   2.988282   4.227511
    20  H    4.226801   3.252895   2.165298   3.417685   4.671797
    21  H    3.663535   3.205776   2.183946   2.800232   4.283819
    22  C    2.398707   1.507788   2.808884   3.460974   4.467782
    23  H    3.319229   2.176486   2.899925   3.901976   4.908022
    24  H    2.698645   2.084021   3.827791   4.330393   5.167897
    25  H    2.665833   2.169205   2.992312   3.514279   4.743346
    26  C    2.370472   1.512543   2.812961   3.176147   3.280382
    27  H    2.689772   2.091409   3.830522   4.104511   4.142842
    28  H    3.298070   2.180413   2.880238   3.631652   3.847568
    29  H    2.609078   2.170644   3.011688   3.031066   2.639359
                    6          7          8          9         10
     6  Fe   0.000000
     7  Cl   2.193181   0.000000
     8  C    3.560720   3.933870   0.000000
     9  Cl   2.197334   3.735224   5.597148   0.000000
    10  Cl   2.211530   3.672534   3.662579   3.650794   0.000000
    11  H    5.203195   6.280784   3.468415   6.318776   5.761932
    12  H    4.607660   4.740368   1.100407   6.682946   4.470834
    13  H    3.282248   4.089360   1.089830   5.273960   2.812331
    14  H    3.150208   2.989308   1.093318   5.274295   3.616224
    15  H    5.149269   4.887133   2.696882   6.866721   6.081815
    16  H    3.846038   3.710291   2.814418   5.304110   5.284855
    17  H    5.189972   5.452924   3.472039   6.462357   6.360464
    18  C    5.038421   6.384233   3.042808   6.384642   4.695630
    19  H    5.955923   7.096677   3.402288   7.430199   5.509926
    20  H    5.499447   7.083034   4.048922   6.517965   5.145092
    21  H    4.551208   5.944495   2.761386   6.014747   3.816037
    22  C    3.344735   5.316637   3.972818   3.812363   3.622834
    23  H    4.432187   6.363789   4.613924   4.759060   4.574086
    24  H    3.217188   5.311770   4.768691   3.040955   3.725465
    25  H    3.185257   5.169572   3.628281   4.000846   2.814547
    26  C    4.076516   5.355467   4.345072   4.428415   5.383579
    27  H    4.026429   5.379029   5.111885   3.833018   5.537824
    28  H    5.006525   6.394209   4.915564   5.279481   6.051830
    29  H    4.378184   5.216917   4.289011   4.937273   5.882304
                   11         12         13         14         15
    11  H    0.000000
    12  H    3.899371   0.000000
    13  H    3.795084   1.768426   0.000000
    14  H    4.223997   1.768084   1.776409   0.000000
    15  H    3.442461   2.739028   3.760700   2.716801   0.000000
    16  H    3.429726   3.456054   3.666488   2.524496   1.759111
    17  H    2.357613   3.848964   4.312382   3.700491   1.775595
    18  C    2.200548   3.336896   2.779908   4.069576   4.453031
    19  H    2.628173   3.338113   3.283038   4.488442   4.553405
    20  H    2.485055   4.422470   3.696873   5.023713   5.340630
    21  H    3.106545   3.108933   2.138453   3.744179   4.786787
    22  C    3.259201   4.896676   3.527942   4.459558   5.430222
    23  H    3.092311   5.412702   4.205847   5.252792   5.869010
    24  H    4.195778   5.768136   4.307178   5.069848   6.171654
    25  H    3.717964   4.494049   2.924809   4.164687   5.576167
    26  C    2.557806   5.227694   4.549408   4.611992   4.374471
    27  H    3.644045   6.078091   5.228051   5.229988   5.232366
    28  H    2.322222   5.687459   5.069580   5.365232   4.893782
    29  H    2.652119   5.088544   4.742442   4.430300   3.691351
                   16         17         18         19         20
    16  H    0.000000
    17  H    1.794574   0.000000
    18  C    4.588522   4.123643   0.000000
    19  H    5.078965   4.410173   1.097767   0.000000
    20  H    5.311573   4.719796   1.092850   1.761203   0.000000
    21  H    4.815206   4.735481   1.092037   1.764870   1.769774
    22  C    4.512405   4.677721   2.952343   4.048079   2.781448
    23  H    5.128464   4.921181   2.815652   3.838313   2.264030
    24  H    5.010236   5.367782   4.049349   5.145621   3.818744
    25  H    4.823657   5.146676   2.748181   3.807525   2.737978
    26  C    3.222666   3.019032   3.946464   4.809248   3.966549
    27  H    3.844679   3.934314   4.853261   5.788482   4.782641
    28  H    4.036997   3.378165   3.816633   4.602535   3.597078
    29  H    2.523029   2.226953   4.388212   5.104062   4.598288
                   21         22         23         24         25
    21  H    0.000000
    22  C    2.899602   0.000000
    23  H    3.032477   1.090569   0.000000
    24  H    3.920441   1.099774   1.775617   0.000000
    25  H    2.304522   1.089869   1.795876   1.761742   0.000000
    26  C    4.415814   2.554890   2.761122   2.842390   3.496124
    27  H    5.196720   2.832856   3.131667   2.678968   3.830938
    28  H    4.476245   2.774830   2.533049   3.174342   3.764061
    29  H    4.912690   3.494624   3.760610   3.829043   4.317299
                   26         27         28         29
    26  C    0.000000
    27  H    1.098497   0.000000
    28  H    1.091818   1.778143   0.000000
    29  H    1.089697   1.762137   1.793567   0.000000
 Framework group  C1[X(C8H16Cl3FeO)]
 Deg. of freedom    81
                         Standard orientation:                         
 ---------------------------------------------------------------------
 Center     Atomic      Atomic             Coordinates (Angstroms)
 Number     Number       Type             X           Y           Z
 ---------------------------------------------------------------------
      1          8           0       -0.320450   -0.129753   -0.662083
      2          6           0       -1.229965   -1.047660   -0.577100
      3          6           0       -3.018748   -0.106546    0.155743
      4          6           0       -2.354647    1.046128   -0.172798
      5          6           0       -2.426941    1.641332   -1.540688
      6         26           0        1.437113    0.078013    0.037847
      7         17           0        2.046256    2.036685   -0.738422
      8          6           0       -1.561336    1.833291    0.816969
      9         17           0        2.515704   -1.668915   -0.745199
     10         17           0        1.290216    0.031426    2.244001
     11          1           0       -3.693861   -0.508722   -0.596259
     12          1           0       -2.225304    2.603591    1.237301
     13          1           0       -1.178751    1.237844    1.645703
     14          1           0       -0.725942    2.348775    0.335579
     15          1           0       -2.744613    2.688052   -1.450720
     16          1           0       -1.426185    1.655115   -1.988550
     17          1           0       -3.127411    1.124288   -2.199615
     18          6           0       -3.323198   -0.529615    1.572746
     19          1           0       -4.210589    0.010357    1.927794
     20          1           0       -3.552239   -1.596460    1.633599
     21          1           0       -2.509961   -0.315205    2.269322
     22          6           0       -1.064112   -2.095094    0.494721
     23          1           0       -1.925171   -2.759783    0.572863
     24          1           0       -0.195073   -2.690783    0.179399
     25          1           0       -0.820276   -1.659184    1.463401
     26          6           0       -1.756978   -1.549390   -1.903113
     27          1           0       -0.939713   -2.142894   -2.334999
     28          1           0       -2.632320   -2.192496   -1.792399
     29          1           0       -1.965378   -0.733824   -2.595111
 ---------------------------------------------------------------------
 Rotational constants (GHZ):           0.5827821           0.3389895           0.3179448
   427 basis functions,  1056 primitive gaussians,   461 cartesian basis functions
    77 alpha electrons       72 beta electrons
       nuclear repulsion energy      1649.4254871981 Hartrees.
 NAtoms=   29 NActive=   29 NUniq=   29 SFac= 1.00D+00 NAtFMM=   60 NAOKFM=F Big=F
 Nuclear repulsion after empirical dispersion term =     1649.3218955817 Hartrees.
 Initial guess from the checkpoint file:  "checkpoint.chk"
 B after Tr=     0.000000    0.000000    0.000000
         Rot=    1.000000    0.000000    0.000000    0.000000 Ang=   0.00 deg.
 Initial guess <Sx>= 0.0000 <Sy>= 0.0000 <Sz>= 2.5000 <S**2>= 8.7614 S= 2.5019
 EnCoef did     1 forward-backward iterations
 SCF Done:  E(UB97D3) =  -3034.61449506     A.U. after   15 cycles
            NFock= 15  Conv=0.81D-08     -V/T= 2.0019
 <Sx>= 0.0000 <Sy>= 0.0000 <Sz>= 2.5000 <S**2>= 8.7594 S= 2.5016
 <L.S>= 0.000000000000E+00
 Annihilation of the first spin contaminant:
 S**2 before annihilation     8.7594,   after     8.7500
 1\1\GINC-HOLY7C04212\SP\UB97D3\Jul-CC-pVDZ\C8H16Cl3Fe1O1(6)\EKWAN\11-F
 eb-2020\0\\#t pop=none jul-cc-pvdz guess=read ub97d3 empiricaldispersi
 on=gd3bj\\theory_abbreviation b97d3_d3bj\\0,6\O,0,-0.32045,-0.129753,-
 0.662083\C,0,-1.229965,-1.04766,-0.5771\C,0,-3.018748,-0.106546,0.1557
 43\C,0,-2.354647,1.046128,-0.172798\C,0,-2.426941,1.641332,-1.540688\F
 e,0,1.437113,0.078013,0.037847\Cl,0,2.046256,2.036685,-0.738422\C,0,-1
 .561336,1.833291,0.816969\Cl,0,2.515704,-1.668915,-0.745199\Cl,0,1.290
 216,0.031426,2.244001\H,0,-3.693861,-0.508722,-0.596259\H,0,-2.225304,
 2.603591,1.237301\H,0,-1.178751,1.237844,1.645703\H,0,-0.725942,2.3487
 75,0.335579\H,0,-2.744613,2.688052,-1.45072\H,0,-1.426185,1.655115,-1.
 98855\H,0,-3.127411,1.124288,-2.199615\C,0,-3.323198,-0.529615,1.57274
 6\H,0,-4.210589,0.010357,1.927794\H,0,-3.552239,-1.59646,1.633599\H,0,
 -2.509961,-0.315205,2.269322\C,0,-1.064112,-2.095094,0.494721\H,0,-1.9
 25171,-2.759783,0.572863\H,0,-0.195073,-2.690783,0.179399\H,0,-0.82027
 6,-1.659184,1.463401\C,0,-1.756978,-1.54939,-1.903113\H,0,-0.939713,-2
 .142894,-2.334999\H,0,-2.63232,-2.192496,-1.792399\H,0,-1.965378,-0.73
 3824,-2.595111\\Version=ES64L-G16RevA.03\HF=-3034.6144951\S2=8.759425\
 S2-1=0.\S2A=8.750028\RMSD=8.143e-09\PG=C01 [X(C8H16Cl3Fe1O1)]\\@


 DO NOT LET SELFISH MEN OR GREEDY INTERESTS SKIN YOUR COUNTRY OF ITS
 BEAUTY, ITS RICHES, OR ITS ROMANCE. -- THEODORE ROOSEVELT
 Job cpu time:       0 days  0 hours 48 minutes 14.6 seconds.
 Elapsed time:       0 days  0 hours 12 minutes 13.6 seconds.
 File lengths (MBytes):  RWF=    174 Int=      0 D2E=      0 Chk=     13 Scr=      1
 Normal termination of Gaussian 16 at Tue Feb 11 23:32:44 2020.
