 Entering Gaussian System, Link 0=g16
 Input=simple-grid-185-300-b3lyp_d3bj-631gd-gas-singlepoint-DFT-juldz2-gas.gjf
 Output=simple-grid-185-300-b3lyp_d3bj-631gd-gas-singlepoint-DFT-juldz2-gas.out
 Initial command:
 /n/sw/g16_nehalem/g16/l1.exe "/scratch/Gau-77591.inp" -scrdir="/scratch/"
 Entering Link 1 = /n/sw/g16_nehalem/g16/l1.exe PID=     77603.
  
 Copyright (c) 1988,1990,1992,1993,1995,1998,2003,2009,2016,
            Gaussian, Inc.  All Rights Reserved.
  
 This is part of the Gaussian(R) 16 program.  It is based on
 the Gaussian(R) 09 system (copyright 2009, Gaussian, Inc.),
 the Gaussian(R) 03 system (copyright 2003, Gaussian, Inc.),
 the Gaussian(R) 98 system (copyright 1998, Gaussian, Inc.),
 the Gaussian(R) 94 system (copyright 1995, Gaussian, Inc.),
 the Gaussian 92(TM) system (copyright 1992, Gaussian, Inc.),
 the Gaussian 90(TM) system (copyright 1990, Gaussian, Inc.),
 the Gaussian 88(TM) system (copyright 1988, Gaussian, Inc.),
 the Gaussian 86(TM) system (copyright 1986, Carnegie Mellon
 University), and the Gaussian 82(TM) system (copyright 1983,
 Carnegie Mellon University). Gaussian is a federally registered
 trademark of Gaussian, Inc.
  
 This software contains proprietary and confidential information,
 including trade secrets, belonging to Gaussian, Inc.
  
 This software is provided under written license and may be
 used, copied, transmitted, or stored only in accord with that
 written license.
  
 The following legend is applicable only to US Government
 contracts under FAR:
  
                    RESTRICTED RIGHTS LEGEND
  
 Use, reproduction and disclosure by the US Government is
 subject to restrictions as set forth in subparagraphs (a)
 and (c) of the Commercial Computer Software - Restricted
 Rights clause in FAR 52.227-19.
  
 Gaussian, Inc.
 340 Quinnipiac St., Bldg. 40, Wallingford CT 06492
  
  
 ---------------------------------------------------------------
 Warning -- This program may not be used in any manner that
 competes with the business of Gaussian, Inc. or will provide
 assistance to any competitor of Gaussian, Inc.  The licensee
 of this program is prohibited from giving any competitor of
 Gaussian, Inc. access to this program.  By using this program,
 the user acknowledges that Gaussian, Inc. is engaged in the
 business of creating and licensing software in the field of
 computational chemistry and represents and warrants to the
 licensee that it is not a competitor of Gaussian, Inc. and that
 it will not use this program in any manner prohibited above.
 ---------------------------------------------------------------
  

 Cite this work as:
 Gaussian 16, Revision A.03,
 M. J. Frisch, G. W. Trucks, H. B. Schlegel, G. E. Scuseria, 
 M. A. Robb, J. R. Cheeseman, G. Scalmani, V. Barone, 
 G. A. Petersson, H. Nakatsuji, X. Li, M. Caricato, A. V. Marenich, 
 J. Bloino, B. G. Janesko, R. Gomperts, B. Mennucci, H. P. Hratchian, 
 J. V. Ortiz, A. F. Izmaylov, J. L. Sonnenberg, D. Williams-Young, 
 F. Ding, F. Lipparini, F. Egidi, J. Goings, B. Peng, A. Petrone, 
 T. Henderson, D. Ranasinghe, V. G. Zakrzewski, J. Gao, N. Rega, 
 G. Zheng, W. Liang, M. Hada, M. Ehara, K. Toyota, R. Fukuda, 
 J. Hasegawa, M. Ishida, T. Nakajima, Y. Honda, O. Kitao, H. Nakai, 
 T. Vreven, K. Throssell, J. A. Montgomery, Jr., J. E. Peralta, 
 F. Ogliaro, M. J. Bearpark, J. J. Heyd, E. N. Brothers, K. N. Kudin, 
 V. N. Staroverov, T. A. Keith, R. Kobayashi, J. Normand, 
 K. Raghavachari, A. P. Rendell, J. C. Burant, S. S. Iyengar, 
 J. Tomasi, M. Cossi, J. M. Millam, M. Klene, C. Adamo, R. Cammi, 
 J. W. Ochterski, R. L. Martin, K. Morokuma, O. Farkas, 
 J. B. Foresman, and D. J. Fox, Gaussian, Inc., Wallingford CT, 2016.
 
 ******************************************
 Gaussian 16:  ES64L-G16RevA.03 25-Dec-2016
                11-Feb-2020 
 ******************************************
 %chk=checkpoint.chk
 %mem=3GB
 %nprocshared=4
 Will use up to    4 processors via shared memory.
 --------------------------------
 #t pop=none jul-cc-pvdz upbe1pbe
 --------------------------------
 ------------------------
 theory_abbreviation pbe0
 ------------------------
 Symbolic Z-matrix:
 Charge =  0 Multiplicity = 6
 O                    -0.25168  -0.38903  -0.57179 
 C                    -1.26302  -1.16937  -0.23997 
 C                    -2.36501  -0.20037   0.8866 
 C                    -3.00486   0.66666  -0.01902 
 C                    -4.33559   0.34678  -0.60039 
 Fe                    1.50175   0.12983  -0.10554 
 Cl                    2.77947  -0.58157  -1.73674 
 C                    -2.29979   1.86947  -0.50412 
 Cl                    2.06413  -0.74391   1.84102 
 Cl                    1.34586   2.33679   0.02458 
 H                    -3.02379  -0.98429   1.26324 
 H                    -2.85632   2.42031  -1.26443 
 H                    -2.02027   2.5408    0.31606 
 H                    -1.32787   1.52957  -0.91016 
 H                    -5.04221   1.1167   -0.25444 
 H                    -4.32202   0.42178  -1.69457 
 H                    -4.71535  -0.63038  -0.29663 
 C                    -1.46155   0.40849   1.95333 
 H                    -2.07219   0.99867   2.64578 
 H                    -0.95023  -0.35918   2.53331 
 H                    -0.70407   1.06493   1.5252 
 C                    -0.91033  -2.35527   0.66619 
 H                    -1.79987  -2.91514   0.96583 
 H                    -0.27042  -3.01493   0.0686 
 H                    -0.33753  -2.05664   1.54218 
 C                    -2.05141  -1.62305  -1.4682 
 H                    -1.42554  -2.34129  -2.00812 
 H                    -2.9906   -2.11792  -1.20477 
 H                    -2.2453   -0.78867  -2.14582 
 
                    Distance matrix (angstroms):
                    1          2          3          4          5
     1  O    0.000000
     2  C    1.319789   0.000000
     3  C    2.574614   1.850001   0.000000
     4  C    3.000007   2.540440   1.407584   0.000000
     5  C    4.149762   3.445180   2.528572   1.486992   0.000000
     6  Fe   1.887095   3.057772   4.005643   4.539294   5.862288
     7  Cl   3.253012   4.350587   5.787307   6.161751   7.264793
     8  C    3.049617   3.221679   2.494509   1.476210   2.544075
     9  Cl   3.363117   3.947340   4.563292   5.580693   6.935882
    10  Cl   3.215262   4.378291   4.577203   4.660471   6.052235
    11  H    3.377316   2.322547   1.091047   2.090495   2.639250
    12  H    3.893111   4.058808   3.425822   2.156013   2.632241
    13  H    3.535548   3.827266   2.821056   2.143383   3.318777
    14  H    2.225695   2.781664   2.701239   2.085918   3.246742
    15  H    5.031613   4.416856   3.194379   2.099704   1.100809
    16  H    4.299497   3.742331   3.298387   2.145302   1.096830
    17  H    4.478647   3.494606   2.666274   2.164517   1.091477
    18  C    2.911361   2.709175   1.524748   2.517658   3.845172
    19  H    3.948759   3.699015   2.148987   2.842752   4.010673
    20  H    3.182840   2.906087   2.176803   3.433398   4.666804
    21  H    2.591527   2.901788   2.183464   2.799440   4.268696
    22  C    2.415055   1.533582   2.609265   3.740136   4.542869
    23  H    3.338019   2.188576   2.774099   3.905277   4.418480
    24  H    2.702919   2.118151   3.602525   4.586824   5.317352
    25  H    2.693908   2.195417   2.825989   4.119269   5.133371
    26  C    2.359106   1.528371   2.769012   2.872621   3.138594
    27  H    2.693007   2.127473   3.720958   3.936815   4.204256
    28  H    3.300214   2.194335   2.905542   3.026561   2.872104
    29  H    2.571343   2.177625   3.091274   2.686669   2.836705
                    6          7          8          9         10
     6  Fe   0.000000
     7  Cl   2.190779   0.000000
     8  C    4.199630   5.772857   0.000000
     9  Cl   2.206533   3.652185   5.601183   0.000000
    10  Cl   2.216280   3.697885   3.713309   3.647755   0.000000
    11  H    4.857505   6.545227   3.433898   5.126265   5.626517
    12  H    5.057874   6.402855   1.091433   6.623215   4.396231
    13  H    4.288953   6.082823   1.096133   5.458679   3.384879
    14  H    3.257823   4.691525   1.106812   4.923756   2.945191
    15  H    6.619629   8.140030   2.854796   7.638909   6.509522
    16  H    6.043714   7.172143   2.757239   7.392027   6.224751
    17  H    6.266316   7.632081   3.482412   7.109412   6.756143
    18  C    3.619074   5.708161   2.979284   3.710939   3.914069
    19  H    4.593217   6.726239   3.275963   4.559977   4.510466
    20  H    3.635220   5.673929   4.001767   3.116673   4.339813
    21  H    2.898160   5.048395   2.704019   3.321838   2.841069
    22  C    3.548158   4.747078   4.598764   3.581076   5.245711
    23  H    4.617401   5.806880   5.030221   4.517821   6.193896
    24  H    3.613921   4.299107   5.320123   3.707975   5.590634
    25  H    3.298271   4.758453   4.842743   2.753275   4.943598
    26  C    4.189796   4.949166   3.631642   5.353642   5.426801
    27  H    4.277297   4.566440   4.555961   5.435557   5.804905
    28  H    5.142172   5.994761   4.106992   6.059294   6.337243
    29  H    4.364261   5.045650   3.124716   5.870951   5.232166
                   11         12         13         14         15
    11  H    0.000000
    12  H    4.243633   0.000000
    13  H    3.785555   1.792052   0.000000
    14  H    3.730860   1.804188   1.733671   0.000000
    15  H    3.285044   2.738168   3.389046   3.794308   0.000000
    16  H    3.522927   2.515429   3.718990   3.287464   1.753729
    17  H    2.328043   3.701255   4.206562   4.064089   1.777894
    18  C    2.203782   4.043111   2.745823   3.078025   4.265786
    19  H    2.597897   4.233868   2.794359   3.671588   4.152855
    20  H    2.510678   5.077553   3.804082   3.945560   5.166630
    21  H    3.106292   3.775083   2.317881   2.556553   4.689270
    22  C    2.588975   5.506388   5.032498   4.213217   5.474905
    23  H    2.305347   5.878530   5.498910   4.847429   5.315782
    24  H    3.623778   6.164875   5.830037   4.767458   6.320187
    25  H    2.905818   5.853585   5.046925   4.455970   5.952478
    26  C    2.968889   4.127727   4.530140   3.282368   4.233714
    27  H    3.885573   5.027223   5.439692   4.024747   5.302206
    28  H    2.716116   4.540603   4.995808   4.019412   3.946516
    29  H    3.502284   3.383449   4.146908   2.782586   3.876915
                   16         17         18         19         20
    16  H    0.000000
    17  H    1.793315   0.000000
    18  C    4.635683   4.090077   0.000000
    19  H    4.922712   4.277592   1.095756   0.000000
    20  H    5.463859   4.717858   1.089561   1.764992   0.000000
    21  H    4.885699   4.720536   1.089948   1.769704   1.762094
    22  C    4.992471   4.287240   3.098214   4.064183   2.733514
    23  H    4.957208   3.913299   3.483695   4.267818   3.116379
    24  H    5.597784   5.057361   4.085437   5.098745   3.686453
    25  H    5.700459   4.957897   2.740319   3.682650   2.058913
    26  C    3.064018   3.074823   4.022676   4.878384   4.338435
    27  H    4.015272   4.084025   4.822409   5.764740   4.977876
    28  H    2.909058   2.451987   4.323691   5.038183   4.607548
    29  H    2.445723   3.089612   4.341709   5.117024   4.874001
                   21         22         23         24         25
    21  H    0.000000
    22  C    3.532452   0.000000
    23  H    4.165892   1.092943   0.000000
    24  H    4.353734   1.096246   1.776012   0.000000
    25  H    3.143068   1.088410   1.790992   1.759048   0.000000
    26  C    4.242757   2.528602   2.767174   2.733318   3.491099
    27  H    4.960562   2.723525   3.051855   2.469998   3.724169
    28  H    4.776137   2.807910   2.600939   3.134569   3.819461
    29  H    4.391763   3.484791   3.795077   3.709454   4.341506
                   26         27         28         29
    26  C    0.000000
    27  H    1.095032   0.000000
    28  H    1.093789   1.773330   0.000000
    29  H    1.092222   1.761129   1.791076   0.000000
 Framework group  C1[X(C8H16Cl3FeO)]
 Deg. of freedom    81
                         Standard orientation:                         
 ---------------------------------------------------------------------
 Center     Atomic      Atomic             Coordinates (Angstroms)
 Number     Number       Type             X           Y           Z
 ---------------------------------------------------------------------
      1          8           0       -0.251680   -0.389034   -0.571787
      2          6           0       -1.263022   -1.169373   -0.239973
      3          6           0       -2.365008   -0.200369    0.886598
      4          6           0       -3.004860    0.666659   -0.019020
      5          6           0       -4.335586    0.346778   -0.600388
      6         26           0        1.501749    0.129834   -0.105537
      7         17           0        2.779474   -0.581571   -1.736743
      8          6           0       -2.299790    1.869468   -0.504120
      9         17           0        2.064131   -0.743914    1.841019
     10         17           0        1.345858    2.336792    0.024579
     11          1           0       -3.023794   -0.984286    1.263240
     12          1           0       -2.856323    2.420306   -1.264432
     13          1           0       -2.020271    2.540798    0.316058
     14          1           0       -1.327867    1.529571   -0.910160
     15          1           0       -5.042210    1.116703   -0.254441
     16          1           0       -4.322015    0.421778   -1.694567
     17          1           0       -4.715347   -0.630377   -0.296626
     18          6           0       -1.461549    0.408492    1.953325
     19          1           0       -2.072191    0.998670    2.645776
     20          1           0       -0.950229   -0.359177    2.533307
     21          1           0       -0.704069    1.064934    1.525195
     22          6           0       -0.910330   -2.355269    0.666191
     23          1           0       -1.799874   -2.915138    0.965829
     24          1           0       -0.270415   -3.014929    0.068602
     25          1           0       -0.337528   -2.056642    1.542180
     26          6           0       -2.051411   -1.623050   -1.468198
     27          1           0       -1.425539   -2.341285   -2.008122
     28          1           0       -2.990604   -2.117919   -1.204767
     29          1           0       -2.245300   -0.788672   -2.145818
 ---------------------------------------------------------------------
 Rotational constants (GHZ):           0.6282451           0.3066766           0.2919904
   427 basis functions,  1056 primitive gaussians,   461 cartesian basis functions
    77 alpha electrons       72 beta electrons
       nuclear repulsion energy      1632.9402884120 Hartrees.
 NAtoms=   29 NActive=   29 NUniq=   29 SFac= 1.00D+00 NAtFMM=   60 NAOKFM=F Big=F
 ExpMin= 1.40D-02 ExpMax= 4.32D+06 ExpMxC= 4.91D+03 IAcc=3 IRadAn=         5 AccDes= 0.00D+00
 Harris functional with IExCor= 1009 and IRadAn=       5 diagonalized for initial guess.
 HarFok:  IExCor= 1009 AccDes= 0.00D+00 IRadAn=         5 IDoV= 1 UseB2=F ITyADJ=14
 ICtDFT=  3500011 ScaDFX=  1.000000  1.000000  1.000000  1.000000
 FoFCou: FMM=F IPFlag=           0 FMFlag=      100000 FMFlg1=           0
         NFxFlg=           0 DoJE=T BraDBF=F KetDBF=T FulRan=T
         wScrn=  0.000000 ICntrl=       500 IOpCl=  0 I1Cent=   200000004 NGrid=           0
         NMat0=    1 NMatS0=      1 NMatT0=    0 NMatD0=    1 NMtDS0=    0 NMtDT0=    0
 Petite list used in FoFCou.
 Initial guess <Sx>= 0.0000 <Sy>= 0.0000 <Sz>= 2.5000 <S**2>= 8.7500 S= 2.5000
 EnCoef did     5 forward-backward iterations
 EnCoef did     6 forward-backward iterations
 Restarting incremental Fock formation.
 SCF Done:  E(UPBE1PBE) =  -3033.11189871     A.U. after   21 cycles
            NFock= 21  Conv=0.74D-08     -V/T= 2.0021
 <Sx>= 0.0000 <Sy>= 0.0000 <Sz>= 2.5000 <S**2>= 8.7628 S= 2.5021
 <L.S>= 0.000000000000E+00
 Annihilation of the first spin contaminant:
 S**2 before annihilation     8.7628,   after     8.7501
 1\1\GINC-HOLY7C06106\SP\UPBE1PBE\Jul-CC-pVDZ\C8H16Cl3Fe1O1(6)\EKWAN\11
 -Feb-2020\0\\#t pop=none jul-cc-pvdz upbe1pbe\\theory_abbreviation pbe
 0\\0,6\O,0,-0.25168,-0.389034,-0.571787\C,0,-1.263022,-1.169373,-0.239
 973\C,0,-2.365008,-0.200369,0.886598\C,0,-3.00486,0.666659,-0.01902\C,
 0,-4.335586,0.346778,-0.600388\Fe,0,1.501749,0.129834,-0.105537\Cl,0,2
 .779474,-0.581571,-1.736743\C,0,-2.29979,1.869468,-0.50412\Cl,0,2.0641
 31,-0.743914,1.841019\Cl,0,1.345858,2.336792,0.024579\H,0,-3.023794,-0
 .984286,1.26324\H,0,-2.856323,2.420306,-1.264432\H,0,-2.020271,2.54079
 8,0.316058\H,0,-1.327867,1.529571,-0.91016\H,0,-5.04221,1.116703,-0.25
 4441\H,0,-4.322015,0.421778,-1.694567\H,0,-4.715347,-0.630377,-0.29662
 6\C,0,-1.461549,0.408492,1.953325\H,0,-2.072191,0.99867,2.645776\H,0,-
 0.950229,-0.359177,2.533307\H,0,-0.704069,1.064934,1.525195\C,0,-0.910
 33,-2.355269,0.666191\H,0,-1.799874,-2.915138,0.965829\H,0,-0.270415,-
 3.014929,0.068602\H,0,-0.337528,-2.056642,1.54218\C,0,-2.051411,-1.623
 05,-1.468198\H,0,-1.425539,-2.341285,-2.008122\H,0,-2.990604,-2.117919
 ,-1.204767\H,0,-2.2453,-0.788672,-2.145818\\Version=ES64L-G16RevA.03\H
 F=-3033.1118987\S2=8.762797\S2-1=0.\S2A=8.750051\RMSD=7.361e-09\PG=C01
  [X(C8H16Cl3Fe1O1)]\\@


 IF I HAVE SEEN FARTHER, IT IS BY STANDING ON THE
 SHOULDERS OF GIANTS. -- SIR ISAAC NEWTON
 Job cpu time:       0 days  1 hours 29 minutes 52.9 seconds.
 Elapsed time:       0 days  0 hours 22 minutes 32.4 seconds.
 File lengths (MBytes):  RWF=    173 Int=      0 D2E=      0 Chk=     13 Scr=      1
 Normal termination of Gaussian 16 at Tue Feb 11 13:58:40 2020.
 Initial command:
 /n/sw/g16_nehalem/g16/l1.exe "/scratch/Gau-77591.inp" -scrdir="/scratch/"
 Entering Link 1 = /n/sw/g16_nehalem/g16/l1.exe PID=     79265.
  
 Copyright (c) 1988,1990,1992,1993,1995,1998,2003,2009,2016,
            Gaussian, Inc.  All Rights Reserved.
  
 This is part of the Gaussian(R) 16 program.  It is based on
 the Gaussian(R) 09 system (copyright 2009, Gaussian, Inc.),
 the Gaussian(R) 03 system (copyright 2003, Gaussian, Inc.),
 the Gaussian(R) 98 system (copyright 1998, Gaussian, Inc.),
 the Gaussian(R) 94 system (copyright 1995, Gaussian, Inc.),
 the Gaussian 92(TM) system (copyright 1992, Gaussian, Inc.),
 the Gaussian 90(TM) system (copyright 1990, Gaussian, Inc.),
 the Gaussian 88(TM) system (copyright 1988, Gaussian, Inc.),
 the Gaussian 86(TM) system (copyright 1986, Carnegie Mellon
 University), and the Gaussian 82(TM) system (copyright 1983,
 Carnegie Mellon University). Gaussian is a federally registered
 trademark of Gaussian, Inc.
  
 This software contains proprietary and confidential information,
 including trade secrets, belonging to Gaussian, Inc.
  
 This software is provided under written license and may be
 used, copied, transmitted, or stored only in accord with that
 written license.
  
 The following legend is applicable only to US Government
 contracts under FAR:
  
                    RESTRICTED RIGHTS LEGEND
  
 Use, reproduction and disclosure by the US Government is
 subject to restrictions as set forth in subparagraphs (a)
 and (c) of the Commercial Computer Software - Restricted
 Rights clause in FAR 52.227-19.
  
 Gaussian, Inc.
 340 Quinnipiac St., Bldg. 40, Wallingford CT 06492
  
  
 ---------------------------------------------------------------
 Warning -- This program may not be used in any manner that
 competes with the business of Gaussian, Inc. or will provide
 assistance to any competitor of Gaussian, Inc.  The licensee
 of this program is prohibited from giving any competitor of
 Gaussian, Inc. access to this program.  By using this program,
 the user acknowledges that Gaussian, Inc. is engaged in the
 business of creating and licensing software in the field of
 computational chemistry and represents and warrants to the
 licensee that it is not a competitor of Gaussian, Inc. and that
 it will not use this program in any manner prohibited above.
 ---------------------------------------------------------------
  

 Cite this work as:
 Gaussian 16, Revision A.03,
 M. J. Frisch, G. W. Trucks, H. B. Schlegel, G. E. Scuseria, 
 M. A. Robb, J. R. Cheeseman, G. Scalmani, V. Barone, 
 G. A. Petersson, H. Nakatsuji, X. Li, M. Caricato, A. V. Marenich, 
 J. Bloino, B. G. Janesko, R. Gomperts, B. Mennucci, H. P. Hratchian, 
 J. V. Ortiz, A. F. Izmaylov, J. L. Sonnenberg, D. Williams-Young, 
 F. Ding, F. Lipparini, F. Egidi, J. Goings, B. Peng, A. Petrone, 
 T. Henderson, D. Ranasinghe, V. G. Zakrzewski, J. Gao, N. Rega, 
 G. Zheng, W. Liang, M. Hada, M. Ehara, K. Toyota, R. Fukuda, 
 J. Hasegawa, M. Ishida, T. Nakajima, Y. Honda, O. Kitao, H. Nakai, 
 T. Vreven, K. Throssell, J. A. Montgomery, Jr., J. E. Peralta, 
 F. Ogliaro, M. J. Bearpark, J. J. Heyd, E. N. Brothers, K. N. Kudin, 
 V. N. Staroverov, T. A. Keith, R. Kobayashi, J. Normand, 
 K. Raghavachari, A. P. Rendell, J. C. Burant, S. S. Iyengar, 
 J. Tomasi, M. Cossi, J. M. Millam, M. Klene, C. Adamo, R. Cammi, 
 J. W. Ochterski, R. L. Martin, K. Morokuma, O. Farkas, 
 J. B. Foresman, and D. J. Fox, Gaussian, Inc., Wallingford CT, 2016.
 
 ******************************************
 Gaussian 16:  ES64L-G16RevA.03 25-Dec-2016
                11-Feb-2020 
 ******************************************
 %chk=checkpoint.chk
 %mem=3GB
 %nprocshared=4
 Will use up to    4 processors via shared memory.
 ---------------------------------------------------------------------
 #t pop=none jul-cc-pvdz guess=read upbe1pbe empiricaldispersion=gd3bj
 ---------------------------------------------------------------------
 -----------------------------
 theory_abbreviation pbe0_d3bj
 -----------------------------
 Symbolic Z-matrix:
 Charge =  0 Multiplicity = 6
 O                    -0.25168  -0.38903  -0.57179 
 C                    -1.26302  -1.16937  -0.23997 
 C                    -2.36501  -0.20037   0.8866 
 C                    -3.00486   0.66666  -0.01902 
 C                    -4.33559   0.34678  -0.60039 
 Fe                    1.50175   0.12983  -0.10554 
 Cl                    2.77947  -0.58157  -1.73674 
 C                    -2.29979   1.86947  -0.50412 
 Cl                    2.06413  -0.74391   1.84102 
 Cl                    1.34586   2.33679   0.02458 
 H                    -3.02379  -0.98429   1.26324 
 H                    -2.85632   2.42031  -1.26443 
 H                    -2.02027   2.5408    0.31606 
 H                    -1.32787   1.52957  -0.91016 
 H                    -5.04221   1.1167   -0.25444 
 H                    -4.32202   0.42178  -1.69457 
 H                    -4.71535  -0.63038  -0.29663 
 C                    -1.46155   0.40849   1.95333 
 H                    -2.07219   0.99867   2.64578 
 H                    -0.95023  -0.35918   2.53331 
 H                    -0.70407   1.06493   1.5252 
 C                    -0.91033  -2.35527   0.66619 
 H                    -1.79987  -2.91514   0.96583 
 H                    -0.27042  -3.01493   0.0686 
 H                    -0.33753  -2.05664   1.54218 
 C                    -2.05141  -1.62305  -1.4682 
 H                    -1.42554  -2.34129  -2.00812 
 H                    -2.9906   -2.11792  -1.20477 
 H                    -2.2453   -0.78867  -2.14582 
 
                    Distance matrix (angstroms):
                    1          2          3          4          5
     1  O    0.000000
     2  C    1.319789   0.000000
     3  C    2.574614   1.850001   0.000000
     4  C    3.000007   2.540440   1.407584   0.000000
     5  C    4.149762   3.445180   2.528572   1.486992   0.000000
     6  Fe   1.887095   3.057772   4.005643   4.539294   5.862288
     7  Cl   3.253012   4.350587   5.787307   6.161751   7.264793
     8  C    3.049617   3.221679   2.494509   1.476210   2.544075
     9  Cl   3.363117   3.947340   4.563292   5.580693   6.935882
    10  Cl   3.215262   4.378291   4.577203   4.660471   6.052235
    11  H    3.377316   2.322547   1.091047   2.090495   2.639250
    12  H    3.893111   4.058808   3.425822   2.156013   2.632241
    13  H    3.535548   3.827266   2.821056   2.143383   3.318777
    14  H    2.225695   2.781664   2.701239   2.085918   3.246742
    15  H    5.031613   4.416856   3.194379   2.099704   1.100809
    16  H    4.299497   3.742331   3.298387   2.145302   1.096830
    17  H    4.478647   3.494606   2.666274   2.164517   1.091477
    18  C    2.911361   2.709175   1.524748   2.517658   3.845172
    19  H    3.948759   3.699015   2.148987   2.842752   4.010673
    20  H    3.182840   2.906087   2.176803   3.433398   4.666804
    21  H    2.591527   2.901788   2.183464   2.799440   4.268696
    22  C    2.415055   1.533582   2.609265   3.740136   4.542869
    23  H    3.338019   2.188576   2.774099   3.905277   4.418480
    24  H    2.702919   2.118151   3.602525   4.586824   5.317352
    25  H    2.693908   2.195417   2.825989   4.119269   5.133371
    26  C    2.359106   1.528371   2.769012   2.872621   3.138594
    27  H    2.693007   2.127473   3.720958   3.936815   4.204256
    28  H    3.300214   2.194335   2.905542   3.026561   2.872104
    29  H    2.571343   2.177625   3.091274   2.686669   2.836705
                    6          7          8          9         10
     6  Fe   0.000000
     7  Cl   2.190779   0.000000
     8  C    4.199630   5.772857   0.000000
     9  Cl   2.206533   3.652185   5.601183   0.000000
    10  Cl   2.216280   3.697885   3.713309   3.647755   0.000000
    11  H    4.857505   6.545227   3.433898   5.126265   5.626517
    12  H    5.057874   6.402855   1.091433   6.623215   4.396231
    13  H    4.288953   6.082823   1.096133   5.458679   3.384879
    14  H    3.257823   4.691525   1.106812   4.923756   2.945191
    15  H    6.619629   8.140030   2.854796   7.638909   6.509522
    16  H    6.043714   7.172143   2.757239   7.392027   6.224751
    17  H    6.266316   7.632081   3.482412   7.109412   6.756143
    18  C    3.619074   5.708161   2.979284   3.710939   3.914069
    19  H    4.593217   6.726239   3.275963   4.559977   4.510466
    20  H    3.635220   5.673929   4.001767   3.116673   4.339813
    21  H    2.898160   5.048395   2.704019   3.321838   2.841069
    22  C    3.548158   4.747078   4.598764   3.581076   5.245711
    23  H    4.617401   5.806880   5.030221   4.517821   6.193896
    24  H    3.613921   4.299107   5.320123   3.707975   5.590634
    25  H    3.298271   4.758453   4.842743   2.753275   4.943598
    26  C    4.189796   4.949166   3.631642   5.353642   5.426801
    27  H    4.277297   4.566440   4.555961   5.435557   5.804905
    28  H    5.142172   5.994761   4.106992   6.059294   6.337243
    29  H    4.364261   5.045650   3.124716   5.870951   5.232166
                   11         12         13         14         15
    11  H    0.000000
    12  H    4.243633   0.000000
    13  H    3.785555   1.792052   0.000000
    14  H    3.730860   1.804188   1.733671   0.000000
    15  H    3.285044   2.738168   3.389046   3.794308   0.000000
    16  H    3.522927   2.515429   3.718990   3.287464   1.753729
    17  H    2.328043   3.701255   4.206562   4.064089   1.777894
    18  C    2.203782   4.043111   2.745823   3.078025   4.265786
    19  H    2.597897   4.233868   2.794359   3.671588   4.152855
    20  H    2.510678   5.077553   3.804082   3.945560   5.166630
    21  H    3.106292   3.775083   2.317881   2.556553   4.689270
    22  C    2.588975   5.506388   5.032498   4.213217   5.474905
    23  H    2.305347   5.878530   5.498910   4.847429   5.315782
    24  H    3.623778   6.164875   5.830037   4.767458   6.320187
    25  H    2.905818   5.853585   5.046925   4.455970   5.952478
    26  C    2.968889   4.127727   4.530140   3.282368   4.233714
    27  H    3.885573   5.027223   5.439692   4.024747   5.302206
    28  H    2.716116   4.540603   4.995808   4.019412   3.946516
    29  H    3.502284   3.383449   4.146908   2.782586   3.876915
                   16         17         18         19         20
    16  H    0.000000
    17  H    1.793315   0.000000
    18  C    4.635683   4.090077   0.000000
    19  H    4.922712   4.277592   1.095756   0.000000
    20  H    5.463859   4.717858   1.089561   1.764992   0.000000
    21  H    4.885699   4.720536   1.089948   1.769704   1.762094
    22  C    4.992471   4.287240   3.098214   4.064183   2.733514
    23  H    4.957208   3.913299   3.483695   4.267818   3.116379
    24  H    5.597784   5.057361   4.085437   5.098745   3.686453
    25  H    5.700459   4.957897   2.740319   3.682650   2.058913
    26  C    3.064018   3.074823   4.022676   4.878384   4.338435
    27  H    4.015272   4.084025   4.822409   5.764740   4.977876
    28  H    2.909058   2.451987   4.323691   5.038183   4.607548
    29  H    2.445723   3.089612   4.341709   5.117024   4.874001
                   21         22         23         24         25
    21  H    0.000000
    22  C    3.532452   0.000000
    23  H    4.165892   1.092943   0.000000
    24  H    4.353734   1.096246   1.776012   0.000000
    25  H    3.143068   1.088410   1.790992   1.759048   0.000000
    26  C    4.242757   2.528602   2.767174   2.733318   3.491099
    27  H    4.960562   2.723525   3.051855   2.469998   3.724169
    28  H    4.776137   2.807910   2.600939   3.134569   3.819461
    29  H    4.391763   3.484791   3.795077   3.709454   4.341506
                   26         27         28         29
    26  C    0.000000
    27  H    1.095032   0.000000
    28  H    1.093789   1.773330   0.000000
    29  H    1.092222   1.761129   1.791076   0.000000
 Framework group  C1[X(C8H16Cl3FeO)]
 Deg. of freedom    81
                         Standard orientation:                         
 ---------------------------------------------------------------------
 Center     Atomic      Atomic             Coordinates (Angstroms)
 Number     Number       Type             X           Y           Z
 ---------------------------------------------------------------------
      1          8           0       -0.251680   -0.389034   -0.571787
      2          6           0       -1.263022   -1.169373   -0.239973
      3          6           0       -2.365008   -0.200369    0.886598
      4          6           0       -3.004860    0.666659   -0.019020
      5          6           0       -4.335586    0.346778   -0.600388
      6         26           0        1.501749    0.129834   -0.105537
      7         17           0        2.779474   -0.581571   -1.736743
      8          6           0       -2.299790    1.869468   -0.504120
      9         17           0        2.064131   -0.743914    1.841019
     10         17           0        1.345858    2.336792    0.024579
     11          1           0       -3.023794   -0.984286    1.263240
     12          1           0       -2.856323    2.420306   -1.264432
     13          1           0       -2.020271    2.540798    0.316058
     14          1           0       -1.327867    1.529571   -0.910160
     15          1           0       -5.042210    1.116703   -0.254441
     16          1           0       -4.322015    0.421778   -1.694567
     17          1           0       -4.715347   -0.630377   -0.296626
     18          6           0       -1.461549    0.408492    1.953325
     19          1           0       -2.072191    0.998670    2.645776
     20          1           0       -0.950229   -0.359177    2.533307
     21          1           0       -0.704069    1.064934    1.525195
     22          6           0       -0.910330   -2.355269    0.666191
     23          1           0       -1.799874   -2.915138    0.965829
     24          1           0       -0.270415   -3.014929    0.068602
     25          1           0       -0.337528   -2.056642    1.542180
     26          6           0       -2.051411   -1.623050   -1.468198
     27          1           0       -1.425539   -2.341285   -2.008122
     28          1           0       -2.990604   -2.117919   -1.204767
     29          1           0       -2.245300   -0.788672   -2.145818
 ---------------------------------------------------------------------
 Rotational constants (GHZ):           0.6282451           0.3066766           0.2919904
   427 basis functions,  1056 primitive gaussians,   461 cartesian basis functions
    77 alpha electrons       72 beta electrons
       nuclear repulsion energy      1632.9402884120 Hartrees.
 NAtoms=   29 NActive=   29 NUniq=   29 SFac= 1.00D+00 NAtFMM=   60 NAOKFM=F Big=F
 Nuclear repulsion after empirical dispersion term =     1632.9040387031 Hartrees.
 Initial guess from the checkpoint file:  "checkpoint.chk"
 B after Tr=     0.000000    0.000000    0.000000
         Rot=    1.000000    0.000000    0.000000    0.000000 Ang=   0.00 deg.
 Initial guess <Sx>= 0.0000 <Sy>= 0.0000 <Sz>= 2.5000 <S**2>= 8.7628 S= 2.5021
 SCF Done:  E(UPBE1PBE) =  -3033.14814842     A.U. after    1 cycles
            NFock=  1  Conv=0.35D-08     -V/T= 2.0021
 <Sx>= 0.0000 <Sy>= 0.0000 <Sz>= 2.5000 <S**2>= 8.7628 S= 2.5021
 <L.S>= 0.000000000000E+00
 Annihilation of the first spin contaminant:
 S**2 before annihilation     8.7628,   after     8.7501
 1\1\GINC-HOLY7C06106\SP\UPBE1PBE\Jul-CC-pVDZ\C8H16Cl3Fe1O1(6)\EKWAN\11
 -Feb-2020\0\\#t pop=none jul-cc-pvdz guess=read upbe1pbe empiricaldisp
 ersion=gd3bj\\theory_abbreviation pbe0_d3bj\\0,6\O,0,-0.25168,-0.38903
 4,-0.571787\C,0,-1.263022,-1.169373,-0.239973\C,0,-2.365008,-0.200369,
 0.886598\C,0,-3.00486,0.666659,-0.01902\C,0,-4.335586,0.346778,-0.6003
 88\Fe,0,1.501749,0.129834,-0.105537\Cl,0,2.779474,-0.581571,-1.736743\
 C,0,-2.29979,1.869468,-0.50412\Cl,0,2.064131,-0.743914,1.841019\Cl,0,1
 .345858,2.336792,0.024579\H,0,-3.023794,-0.984286,1.26324\H,0,-2.85632
 3,2.420306,-1.264432\H,0,-2.020271,2.540798,0.316058\H,0,-1.327867,1.5
 29571,-0.91016\H,0,-5.04221,1.116703,-0.254441\H,0,-4.322015,0.421778,
 -1.694567\H,0,-4.715347,-0.630377,-0.296626\C,0,-1.461549,0.408492,1.9
 53325\H,0,-2.072191,0.99867,2.645776\H,0,-0.950229,-0.359177,2.533307\
 H,0,-0.704069,1.064934,1.525195\C,0,-0.91033,-2.355269,0.666191\H,0,-1
 .799874,-2.915138,0.965829\H,0,-0.270415,-3.014929,0.068602\H,0,-0.337
 528,-2.056642,1.54218\C,0,-2.051411,-1.62305,-1.468198\H,0,-1.425539,-
 2.341285,-2.008122\H,0,-2.990604,-2.117919,-1.204767\H,0,-2.2453,-0.78
 8672,-2.145818\\Version=ES64L-G16RevA.03\HF=-3033.1481484\S2=8.762797\
 S2-1=0.\S2A=8.750051\RMSD=3.546e-09\PG=C01 [X(C8H16Cl3Fe1O1)]\\@


 THERE ARE PEOPLE SO ADDICTED TO EXAGERATING THEY
 CAN'T TELL THE TRUTH WITHOUT LYING. -- FORTUNE COOKIE
 Job cpu time:       0 days  0 hours  4 minutes 32.8 seconds.
 Elapsed time:       0 days  0 hours  1 minutes  8.7 seconds.
 File lengths (MBytes):  RWF=    170 Int=      0 D2E=      0 Chk=     13 Scr=      1
 Normal termination of Gaussian 16 at Tue Feb 11 13:59:49 2020.
 Initial command:
 /n/sw/g16_nehalem/g16/l1.exe "/scratch/Gau-77591.inp" -scrdir="/scratch/"
 Entering Link 1 = /n/sw/g16_nehalem/g16/l1.exe PID=     79601.
  
 Copyright (c) 1988,1990,1992,1993,1995,1998,2003,2009,2016,
            Gaussian, Inc.  All Rights Reserved.
  
 This is part of the Gaussian(R) 16 program.  It is based on
 the Gaussian(R) 09 system (copyright 2009, Gaussian, Inc.),
 the Gaussian(R) 03 system (copyright 2003, Gaussian, Inc.),
 the Gaussian(R) 98 system (copyright 1998, Gaussian, Inc.),
 the Gaussian(R) 94 system (copyright 1995, Gaussian, Inc.),
 the Gaussian 92(TM) system (copyright 1992, Gaussian, Inc.),
 the Gaussian 90(TM) system (copyright 1990, Gaussian, Inc.),
 the Gaussian 88(TM) system (copyright 1988, Gaussian, Inc.),
 the Gaussian 86(TM) system (copyright 1986, Carnegie Mellon
 University), and the Gaussian 82(TM) system (copyright 1983,
 Carnegie Mellon University). Gaussian is a federally registered
 trademark of Gaussian, Inc.
  
 This software contains proprietary and confidential information,
 including trade secrets, belonging to Gaussian, Inc.
  
 This software is provided under written license and may be
 used, copied, transmitted, or stored only in accord with that
 written license.
  
 The following legend is applicable only to US Government
 contracts under FAR:
  
                    RESTRICTED RIGHTS LEGEND
  
 Use, reproduction and disclosure by the US Government is
 subject to restrictions as set forth in subparagraphs (a)
 and (c) of the Commercial Computer Software - Restricted
 Rights clause in FAR 52.227-19.
  
 Gaussian, Inc.
 340 Quinnipiac St., Bldg. 40, Wallingford CT 06492
  
  
 ---------------------------------------------------------------
 Warning -- This program may not be used in any manner that
 competes with the business of Gaussian, Inc. or will provide
 assistance to any competitor of Gaussian, Inc.  The licensee
 of this program is prohibited from giving any competitor of
 Gaussian, Inc. access to this program.  By using this program,
 the user acknowledges that Gaussian, Inc. is engaged in the
 business of creating and licensing software in the field of
 computational chemistry and represents and warrants to the
 licensee that it is not a competitor of Gaussian, Inc. and that
 it will not use this program in any manner prohibited above.
 ---------------------------------------------------------------
  

 Cite this work as:
 Gaussian 16, Revision A.03,
 M. J. Frisch, G. W. Trucks, H. B. Schlegel, G. E. Scuseria, 
 M. A. Robb, J. R. Cheeseman, G. Scalmani, V. Barone, 
 G. A. Petersson, H. Nakatsuji, X. Li, M. Caricato, A. V. Marenich, 
 J. Bloino, B. G. Janesko, R. Gomperts, B. Mennucci, H. P. Hratchian, 
 J. V. Ortiz, A. F. Izmaylov, J. L. Sonnenberg, D. Williams-Young, 
 F. Ding, F. Lipparini, F. Egidi, J. Goings, B. Peng, A. Petrone, 
 T. Henderson, D. Ranasinghe, V. G. Zakrzewski, J. Gao, N. Rega, 
 G. Zheng, W. Liang, M. Hada, M. Ehara, K. Toyota, R. Fukuda, 
 J. Hasegawa, M. Ishida, T. Nakajima, Y. Honda, O. Kitao, H. Nakai, 
 T. Vreven, K. Throssell, J. A. Montgomery, Jr., J. E. Peralta, 
 F. Ogliaro, M. J. Bearpark, J. J. Heyd, E. N. Brothers, K. N. Kudin, 
 V. N. Staroverov, T. A. Keith, R. Kobayashi, J. Normand, 
 K. Raghavachari, A. P. Rendell, J. C. Burant, S. S. Iyengar, 
 J. Tomasi, M. Cossi, J. M. Millam, M. Klene, C. Adamo, R. Cammi, 
 J. W. Ochterski, R. L. Martin, K. Morokuma, O. Farkas, 
 J. B. Foresman, and D. J. Fox, Gaussian, Inc., Wallingford CT, 2016.
 
 ******************************************
 Gaussian 16:  ES64L-G16RevA.03 25-Dec-2016
                11-Feb-2020 
 ******************************************
 %chk=checkpoint.chk
 %mem=3GB
 %nprocshared=4
 Will use up to    4 processors via shared memory.
 -----------------------------------------
 #t pop=none jul-cc-pvdz guess=read ub3lyp
 -----------------------------------------
 -------------------------
 theory_abbreviation b3lyp
 -------------------------
 Symbolic Z-matrix:
 Charge =  0 Multiplicity = 6
 O                    -0.25168  -0.38903  -0.57179 
 C                    -1.26302  -1.16937  -0.23997 
 C                    -2.36501  -0.20037   0.8866 
 C                    -3.00486   0.66666  -0.01902 
 C                    -4.33559   0.34678  -0.60039 
 Fe                    1.50175   0.12983  -0.10554 
 Cl                    2.77947  -0.58157  -1.73674 
 C                    -2.29979   1.86947  -0.50412 
 Cl                    2.06413  -0.74391   1.84102 
 Cl                    1.34586   2.33679   0.02458 
 H                    -3.02379  -0.98429   1.26324 
 H                    -2.85632   2.42031  -1.26443 
 H                    -2.02027   2.5408    0.31606 
 H                    -1.32787   1.52957  -0.91016 
 H                    -5.04221   1.1167   -0.25444 
 H                    -4.32202   0.42178  -1.69457 
 H                    -4.71535  -0.63038  -0.29663 
 C                    -1.46155   0.40849   1.95333 
 H                    -2.07219   0.99867   2.64578 
 H                    -0.95023  -0.35918   2.53331 
 H                    -0.70407   1.06493   1.5252 
 C                    -0.91033  -2.35527   0.66619 
 H                    -1.79987  -2.91514   0.96583 
 H                    -0.27042  -3.01493   0.0686 
 H                    -0.33753  -2.05664   1.54218 
 C                    -2.05141  -1.62305  -1.4682 
 H                    -1.42554  -2.34129  -2.00812 
 H                    -2.9906   -2.11792  -1.20477 
 H                    -2.2453   -0.78867  -2.14582 
 
                    Distance matrix (angstroms):
                    1          2          3          4          5
     1  O    0.000000
     2  C    1.319789   0.000000
     3  C    2.574614   1.850001   0.000000
     4  C    3.000007   2.540440   1.407584   0.000000
     5  C    4.149762   3.445180   2.528572   1.486992   0.000000
     6  Fe   1.887095   3.057772   4.005643   4.539294   5.862288
     7  Cl   3.253012   4.350587   5.787307   6.161751   7.264793
     8  C    3.049617   3.221679   2.494509   1.476210   2.544075
     9  Cl   3.363117   3.947340   4.563292   5.580693   6.935882
    10  Cl   3.215262   4.378291   4.577203   4.660471   6.052235
    11  H    3.377316   2.322547   1.091047   2.090495   2.639250
    12  H    3.893111   4.058808   3.425822   2.156013   2.632241
    13  H    3.535548   3.827266   2.821056   2.143383   3.318777
    14  H    2.225695   2.781664   2.701239   2.085918   3.246742
    15  H    5.031613   4.416856   3.194379   2.099704   1.100809
    16  H    4.299497   3.742331   3.298387   2.145302   1.096830
    17  H    4.478647   3.494606   2.666274   2.164517   1.091477
    18  C    2.911361   2.709175   1.524748   2.517658   3.845172
    19  H    3.948759   3.699015   2.148987   2.842752   4.010673
    20  H    3.182840   2.906087   2.176803   3.433398   4.666804
    21  H    2.591527   2.901788   2.183464   2.799440   4.268696
    22  C    2.415055   1.533582   2.609265   3.740136   4.542869
    23  H    3.338019   2.188576   2.774099   3.905277   4.418480
    24  H    2.702919   2.118151   3.602525   4.586824   5.317352
    25  H    2.693908   2.195417   2.825989   4.119269   5.133371
    26  C    2.359106   1.528371   2.769012   2.872621   3.138594
    27  H    2.693007   2.127473   3.720958   3.936815   4.204256
    28  H    3.300214   2.194335   2.905542   3.026561   2.872104
    29  H    2.571343   2.177625   3.091274   2.686669   2.836705
                    6          7          8          9         10
     6  Fe   0.000000
     7  Cl   2.190779   0.000000
     8  C    4.199630   5.772857   0.000000
     9  Cl   2.206533   3.652185   5.601183   0.000000
    10  Cl   2.216280   3.697885   3.713309   3.647755   0.000000
    11  H    4.857505   6.545227   3.433898   5.126265   5.626517
    12  H    5.057874   6.402855   1.091433   6.623215   4.396231
    13  H    4.288953   6.082823   1.096133   5.458679   3.384879
    14  H    3.257823   4.691525   1.106812   4.923756   2.945191
    15  H    6.619629   8.140030   2.854796   7.638909   6.509522
    16  H    6.043714   7.172143   2.757239   7.392027   6.224751
    17  H    6.266316   7.632081   3.482412   7.109412   6.756143
    18  C    3.619074   5.708161   2.979284   3.710939   3.914069
    19  H    4.593217   6.726239   3.275963   4.559977   4.510466
    20  H    3.635220   5.673929   4.001767   3.116673   4.339813
    21  H    2.898160   5.048395   2.704019   3.321838   2.841069
    22  C    3.548158   4.747078   4.598764   3.581076   5.245711
    23  H    4.617401   5.806880   5.030221   4.517821   6.193896
    24  H    3.613921   4.299107   5.320123   3.707975   5.590634
    25  H    3.298271   4.758453   4.842743   2.753275   4.943598
    26  C    4.189796   4.949166   3.631642   5.353642   5.426801
    27  H    4.277297   4.566440   4.555961   5.435557   5.804905
    28  H    5.142172   5.994761   4.106992   6.059294   6.337243
    29  H    4.364261   5.045650   3.124716   5.870951   5.232166
                   11         12         13         14         15
    11  H    0.000000
    12  H    4.243633   0.000000
    13  H    3.785555   1.792052   0.000000
    14  H    3.730860   1.804188   1.733671   0.000000
    15  H    3.285044   2.738168   3.389046   3.794308   0.000000
    16  H    3.522927   2.515429   3.718990   3.287464   1.753729
    17  H    2.328043   3.701255   4.206562   4.064089   1.777894
    18  C    2.203782   4.043111   2.745823   3.078025   4.265786
    19  H    2.597897   4.233868   2.794359   3.671588   4.152855
    20  H    2.510678   5.077553   3.804082   3.945560   5.166630
    21  H    3.106292   3.775083   2.317881   2.556553   4.689270
    22  C    2.588975   5.506388   5.032498   4.213217   5.474905
    23  H    2.305347   5.878530   5.498910   4.847429   5.315782
    24  H    3.623778   6.164875   5.830037   4.767458   6.320187
    25  H    2.905818   5.853585   5.046925   4.455970   5.952478
    26  C    2.968889   4.127727   4.530140   3.282368   4.233714
    27  H    3.885573   5.027223   5.439692   4.024747   5.302206
    28  H    2.716116   4.540603   4.995808   4.019412   3.946516
    29  H    3.502284   3.383449   4.146908   2.782586   3.876915
                   16         17         18         19         20
    16  H    0.000000
    17  H    1.793315   0.000000
    18  C    4.635683   4.090077   0.000000
    19  H    4.922712   4.277592   1.095756   0.000000
    20  H    5.463859   4.717858   1.089561   1.764992   0.000000
    21  H    4.885699   4.720536   1.089948   1.769704   1.762094
    22  C    4.992471   4.287240   3.098214   4.064183   2.733514
    23  H    4.957208   3.913299   3.483695   4.267818   3.116379
    24  H    5.597784   5.057361   4.085437   5.098745   3.686453
    25  H    5.700459   4.957897   2.740319   3.682650   2.058913
    26  C    3.064018   3.074823   4.022676   4.878384   4.338435
    27  H    4.015272   4.084025   4.822409   5.764740   4.977876
    28  H    2.909058   2.451987   4.323691   5.038183   4.607548
    29  H    2.445723   3.089612   4.341709   5.117024   4.874001
                   21         22         23         24         25
    21  H    0.000000
    22  C    3.532452   0.000000
    23  H    4.165892   1.092943   0.000000
    24  H    4.353734   1.096246   1.776012   0.000000
    25  H    3.143068   1.088410   1.790992   1.759048   0.000000
    26  C    4.242757   2.528602   2.767174   2.733318   3.491099
    27  H    4.960562   2.723525   3.051855   2.469998   3.724169
    28  H    4.776137   2.807910   2.600939   3.134569   3.819461
    29  H    4.391763   3.484791   3.795077   3.709454   4.341506
                   26         27         28         29
    26  C    0.000000
    27  H    1.095032   0.000000
    28  H    1.093789   1.773330   0.000000
    29  H    1.092222   1.761129   1.791076   0.000000
 Framework group  C1[X(C8H16Cl3FeO)]
 Deg. of freedom    81
                         Standard orientation:                         
 ---------------------------------------------------------------------
 Center     Atomic      Atomic             Coordinates (Angstroms)
 Number     Number       Type             X           Y           Z
 ---------------------------------------------------------------------
      1          8           0       -0.251680   -0.389034   -0.571787
      2          6           0       -1.263022   -1.169373   -0.239973
      3          6           0       -2.365008   -0.200369    0.886598
      4          6           0       -3.004860    0.666659   -0.019020
      5          6           0       -4.335586    0.346778   -0.600388
      6         26           0        1.501749    0.129834   -0.105537
      7         17           0        2.779474   -0.581571   -1.736743
      8          6           0       -2.299790    1.869468   -0.504120
      9         17           0        2.064131   -0.743914    1.841019
     10         17           0        1.345858    2.336792    0.024579
     11          1           0       -3.023794   -0.984286    1.263240
     12          1           0       -2.856323    2.420306   -1.264432
     13          1           0       -2.020271    2.540798    0.316058
     14          1           0       -1.327867    1.529571   -0.910160
     15          1           0       -5.042210    1.116703   -0.254441
     16          1           0       -4.322015    0.421778   -1.694567
     17          1           0       -4.715347   -0.630377   -0.296626
     18          6           0       -1.461549    0.408492    1.953325
     19          1           0       -2.072191    0.998670    2.645776
     20          1           0       -0.950229   -0.359177    2.533307
     21          1           0       -0.704069    1.064934    1.525195
     22          6           0       -0.910330   -2.355269    0.666191
     23          1           0       -1.799874   -2.915138    0.965829
     24          1           0       -0.270415   -3.014929    0.068602
     25          1           0       -0.337528   -2.056642    1.542180
     26          6           0       -2.051411   -1.623050   -1.468198
     27          1           0       -1.425539   -2.341285   -2.008122
     28          1           0       -2.990604   -2.117919   -1.204767
     29          1           0       -2.245300   -0.788672   -2.145818
 ---------------------------------------------------------------------
 Rotational constants (GHZ):           0.6282451           0.3066766           0.2919904
   427 basis functions,  1056 primitive gaussians,   461 cartesian basis functions
    77 alpha electrons       72 beta electrons
       nuclear repulsion energy      1632.9402884120 Hartrees.
 NAtoms=   29 NActive=   29 NUniq=   29 SFac= 1.00D+00 NAtFMM=   60 NAOKFM=F Big=F
 Initial guess from the checkpoint file:  "checkpoint.chk"
 B after Tr=     0.000000    0.000000    0.000000
         Rot=    1.000000    0.000000    0.000000    0.000000 Ang=   0.00 deg.
 Initial guess <Sx>= 0.0000 <Sy>= 0.0000 <Sz>= 2.5000 <S**2>= 8.7628 S= 2.5021
 SCF Done:  E(UB3LYP) =  -3034.32512108     A.U. after   13 cycles
            NFock= 13  Conv=0.50D-08     -V/T= 2.0024
 <Sx>= 0.0000 <Sy>= 0.0000 <Sz>= 2.5000 <S**2>= 8.7622 S= 2.5020
 <L.S>= 0.000000000000E+00
 Annihilation of the first spin contaminant:
 S**2 before annihilation     8.7622,   after     8.7500
 1\1\GINC-HOLY7C06106\SP\UB3LYP\Jul-CC-pVDZ\C8H16Cl3Fe1O1(6)\EKWAN\11-F
 eb-2020\0\\#t pop=none jul-cc-pvdz guess=read ub3lyp\\theory_abbreviat
 ion b3lyp\\0,6\O,0,-0.25168,-0.389034,-0.571787\C,0,-1.263022,-1.16937
 3,-0.239973\C,0,-2.365008,-0.200369,0.886598\C,0,-3.00486,0.666659,-0.
 01902\C,0,-4.335586,0.346778,-0.600388\Fe,0,1.501749,0.129834,-0.10553
 7\Cl,0,2.779474,-0.581571,-1.736743\C,0,-2.29979,1.869468,-0.50412\Cl,
 0,2.064131,-0.743914,1.841019\Cl,0,1.345858,2.336792,0.024579\H,0,-3.0
 23794,-0.984286,1.26324\H,0,-2.856323,2.420306,-1.264432\H,0,-2.020271
 ,2.540798,0.316058\H,0,-1.327867,1.529571,-0.91016\H,0,-5.04221,1.1167
 03,-0.254441\H,0,-4.322015,0.421778,-1.694567\H,0,-4.715347,-0.630377,
 -0.296626\C,0,-1.461549,0.408492,1.953325\H,0,-2.072191,0.99867,2.6457
 76\H,0,-0.950229,-0.359177,2.533307\H,0,-0.704069,1.064934,1.525195\C,
 0,-0.91033,-2.355269,0.666191\H,0,-1.799874,-2.915138,0.965829\H,0,-0.
 270415,-3.014929,0.068602\H,0,-0.337528,-2.056642,1.54218\C,0,-2.05141
 1,-1.62305,-1.468198\H,0,-1.425539,-2.341285,-2.008122\H,0,-2.990604,-
 2.117919,-1.204767\H,0,-2.2453,-0.788672,-2.145818\\Version=ES64L-G16R
 evA.03\HF=-3034.3251211\S2=8.762154\S2-1=0.\S2A=8.750046\RMSD=5.026e-0
 9\PG=C01 [X(C8H16Cl3Fe1O1)]\\@


 Spring appears, and we are once more children.
                                  -- Anonymous
 Job cpu time:       0 days  0 hours 54 minutes 13.0 seconds.
 Elapsed time:       0 days  0 hours 13 minutes 37.9 seconds.
 File lengths (MBytes):  RWF=    174 Int=      0 D2E=      0 Chk=     13 Scr=      1
 Normal termination of Gaussian 16 at Tue Feb 11 14:13:28 2020.
 Initial command:
 /n/sw/g16_nehalem/g16/l1.exe "/scratch/Gau-77591.inp" -scrdir="/scratch/"
 Entering Link 1 = /n/sw/g16_nehalem/g16/l1.exe PID=     81645.
  
 Copyright (c) 1988,1990,1992,1993,1995,1998,2003,2009,2016,
            Gaussian, Inc.  All Rights Reserved.
  
 This is part of the Gaussian(R) 16 program.  It is based on
 the Gaussian(R) 09 system (copyright 2009, Gaussian, Inc.),
 the Gaussian(R) 03 system (copyright 2003, Gaussian, Inc.),
 the Gaussian(R) 98 system (copyright 1998, Gaussian, Inc.),
 the Gaussian(R) 94 system (copyright 1995, Gaussian, Inc.),
 the Gaussian 92(TM) system (copyright 1992, Gaussian, Inc.),
 the Gaussian 90(TM) system (copyright 1990, Gaussian, Inc.),
 the Gaussian 88(TM) system (copyright 1988, Gaussian, Inc.),
 the Gaussian 86(TM) system (copyright 1986, Carnegie Mellon
 University), and the Gaussian 82(TM) system (copyright 1983,
 Carnegie Mellon University). Gaussian is a federally registered
 trademark of Gaussian, Inc.
  
 This software contains proprietary and confidential information,
 including trade secrets, belonging to Gaussian, Inc.
  
 This software is provided under written license and may be
 used, copied, transmitted, or stored only in accord with that
 written license.
  
 The following legend is applicable only to US Government
 contracts under FAR:
  
                    RESTRICTED RIGHTS LEGEND
  
 Use, reproduction and disclosure by the US Government is
 subject to restrictions as set forth in subparagraphs (a)
 and (c) of the Commercial Computer Software - Restricted
 Rights clause in FAR 52.227-19.
  
 Gaussian, Inc.
 340 Quinnipiac St., Bldg. 40, Wallingford CT 06492
  
  
 ---------------------------------------------------------------
 Warning -- This program may not be used in any manner that
 competes with the business of Gaussian, Inc. or will provide
 assistance to any competitor of Gaussian, Inc.  The licensee
 of this program is prohibited from giving any competitor of
 Gaussian, Inc. access to this program.  By using this program,
 the user acknowledges that Gaussian, Inc. is engaged in the
 business of creating and licensing software in the field of
 computational chemistry and represents and warrants to the
 licensee that it is not a competitor of Gaussian, Inc. and that
 it will not use this program in any manner prohibited above.
 ---------------------------------------------------------------
  

 Cite this work as:
 Gaussian 16, Revision A.03,
 M. J. Frisch, G. W. Trucks, H. B. Schlegel, G. E. Scuseria, 
 M. A. Robb, J. R. Cheeseman, G. Scalmani, V. Barone, 
 G. A. Petersson, H. Nakatsuji, X. Li, M. Caricato, A. V. Marenich, 
 J. Bloino, B. G. Janesko, R. Gomperts, B. Mennucci, H. P. Hratchian, 
 J. V. Ortiz, A. F. Izmaylov, J. L. Sonnenberg, D. Williams-Young, 
 F. Ding, F. Lipparini, F. Egidi, J. Goings, B. Peng, A. Petrone, 
 T. Henderson, D. Ranasinghe, V. G. Zakrzewski, J. Gao, N. Rega, 
 G. Zheng, W. Liang, M. Hada, M. Ehara, K. Toyota, R. Fukuda, 
 J. Hasegawa, M. Ishida, T. Nakajima, Y. Honda, O. Kitao, H. Nakai, 
 T. Vreven, K. Throssell, J. A. Montgomery, Jr., J. E. Peralta, 
 F. Ogliaro, M. J. Bearpark, J. J. Heyd, E. N. Brothers, K. N. Kudin, 
 V. N. Staroverov, T. A. Keith, R. Kobayashi, J. Normand, 
 K. Raghavachari, A. P. Rendell, J. C. Burant, S. S. Iyengar, 
 J. Tomasi, M. Cossi, J. M. Millam, M. Klene, C. Adamo, R. Cammi, 
 J. W. Ochterski, R. L. Martin, K. Morokuma, O. Farkas, 
 J. B. Foresman, and D. J. Fox, Gaussian, Inc., Wallingford CT, 2016.
 
 ******************************************
 Gaussian 16:  ES64L-G16RevA.03 25-Dec-2016
                11-Feb-2020 
 ******************************************
 %chk=checkpoint.chk
 %mem=3GB
 %nprocshared=4
 Will use up to    4 processors via shared memory.
 -------------------------------------------------------------------
 #t pop=none jul-cc-pvdz guess=read ub3lyp empiricaldispersion=gd3bj
 -------------------------------------------------------------------
 ------------------------------
 theory_abbreviation b3lyp_d3bj
 ------------------------------
 Symbolic Z-matrix:
 Charge =  0 Multiplicity = 6
 O                    -0.25168  -0.38903  -0.57179 
 C                    -1.26302  -1.16937  -0.23997 
 C                    -2.36501  -0.20037   0.8866 
 C                    -3.00486   0.66666  -0.01902 
 C                    -4.33559   0.34678  -0.60039 
 Fe                    1.50175   0.12983  -0.10554 
 Cl                    2.77947  -0.58157  -1.73674 
 C                    -2.29979   1.86947  -0.50412 
 Cl                    2.06413  -0.74391   1.84102 
 Cl                    1.34586   2.33679   0.02458 
 H                    -3.02379  -0.98429   1.26324 
 H                    -2.85632   2.42031  -1.26443 
 H                    -2.02027   2.5408    0.31606 
 H                    -1.32787   1.52957  -0.91016 
 H                    -5.04221   1.1167   -0.25444 
 H                    -4.32202   0.42178  -1.69457 
 H                    -4.71535  -0.63038  -0.29663 
 C                    -1.46155   0.40849   1.95333 
 H                    -2.07219   0.99867   2.64578 
 H                    -0.95023  -0.35918   2.53331 
 H                    -0.70407   1.06493   1.5252 
 C                    -0.91033  -2.35527   0.66619 
 H                    -1.79987  -2.91514   0.96583 
 H                    -0.27042  -3.01493   0.0686 
 H                    -0.33753  -2.05664   1.54218 
 C                    -2.05141  -1.62305  -1.4682 
 H                    -1.42554  -2.34129  -2.00812 
 H                    -2.9906   -2.11792  -1.20477 
 H                    -2.2453   -0.78867  -2.14582 
 
                    Distance matrix (angstroms):
                    1          2          3          4          5
     1  O    0.000000
     2  C    1.319789   0.000000
     3  C    2.574614   1.850001   0.000000
     4  C    3.000007   2.540440   1.407584   0.000000
     5  C    4.149762   3.445180   2.528572   1.486992   0.000000
     6  Fe   1.887095   3.057772   4.005643   4.539294   5.862288
     7  Cl   3.253012   4.350587   5.787307   6.161751   7.264793
     8  C    3.049617   3.221679   2.494509   1.476210   2.544075
     9  Cl   3.363117   3.947340   4.563292   5.580693   6.935882
    10  Cl   3.215262   4.378291   4.577203   4.660471   6.052235
    11  H    3.377316   2.322547   1.091047   2.090495   2.639250
    12  H    3.893111   4.058808   3.425822   2.156013   2.632241
    13  H    3.535548   3.827266   2.821056   2.143383   3.318777
    14  H    2.225695   2.781664   2.701239   2.085918   3.246742
    15  H    5.031613   4.416856   3.194379   2.099704   1.100809
    16  H    4.299497   3.742331   3.298387   2.145302   1.096830
    17  H    4.478647   3.494606   2.666274   2.164517   1.091477
    18  C    2.911361   2.709175   1.524748   2.517658   3.845172
    19  H    3.948759   3.699015   2.148987   2.842752   4.010673
    20  H    3.182840   2.906087   2.176803   3.433398   4.666804
    21  H    2.591527   2.901788   2.183464   2.799440   4.268696
    22  C    2.415055   1.533582   2.609265   3.740136   4.542869
    23  H    3.338019   2.188576   2.774099   3.905277   4.418480
    24  H    2.702919   2.118151   3.602525   4.586824   5.317352
    25  H    2.693908   2.195417   2.825989   4.119269   5.133371
    26  C    2.359106   1.528371   2.769012   2.872621   3.138594
    27  H    2.693007   2.127473   3.720958   3.936815   4.204256
    28  H    3.300214   2.194335   2.905542   3.026561   2.872104
    29  H    2.571343   2.177625   3.091274   2.686669   2.836705
                    6          7          8          9         10
     6  Fe   0.000000
     7  Cl   2.190779   0.000000
     8  C    4.199630   5.772857   0.000000
     9  Cl   2.206533   3.652185   5.601183   0.000000
    10  Cl   2.216280   3.697885   3.713309   3.647755   0.000000
    11  H    4.857505   6.545227   3.433898   5.126265   5.626517
    12  H    5.057874   6.402855   1.091433   6.623215   4.396231
    13  H    4.288953   6.082823   1.096133   5.458679   3.384879
    14  H    3.257823   4.691525   1.106812   4.923756   2.945191
    15  H    6.619629   8.140030   2.854796   7.638909   6.509522
    16  H    6.043714   7.172143   2.757239   7.392027   6.224751
    17  H    6.266316   7.632081   3.482412   7.109412   6.756143
    18  C    3.619074   5.708161   2.979284   3.710939   3.914069
    19  H    4.593217   6.726239   3.275963   4.559977   4.510466
    20  H    3.635220   5.673929   4.001767   3.116673   4.339813
    21  H    2.898160   5.048395   2.704019   3.321838   2.841069
    22  C    3.548158   4.747078   4.598764   3.581076   5.245711
    23  H    4.617401   5.806880   5.030221   4.517821   6.193896
    24  H    3.613921   4.299107   5.320123   3.707975   5.590634
    25  H    3.298271   4.758453   4.842743   2.753275   4.943598
    26  C    4.189796   4.949166   3.631642   5.353642   5.426801
    27  H    4.277297   4.566440   4.555961   5.435557   5.804905
    28  H    5.142172   5.994761   4.106992   6.059294   6.337243
    29  H    4.364261   5.045650   3.124716   5.870951   5.232166
                   11         12         13         14         15
    11  H    0.000000
    12  H    4.243633   0.000000
    13  H    3.785555   1.792052   0.000000
    14  H    3.730860   1.804188   1.733671   0.000000
    15  H    3.285044   2.738168   3.389046   3.794308   0.000000
    16  H    3.522927   2.515429   3.718990   3.287464   1.753729
    17  H    2.328043   3.701255   4.206562   4.064089   1.777894
    18  C    2.203782   4.043111   2.745823   3.078025   4.265786
    19  H    2.597897   4.233868   2.794359   3.671588   4.152855
    20  H    2.510678   5.077553   3.804082   3.945560   5.166630
    21  H    3.106292   3.775083   2.317881   2.556553   4.689270
    22  C    2.588975   5.506388   5.032498   4.213217   5.474905
    23  H    2.305347   5.878530   5.498910   4.847429   5.315782
    24  H    3.623778   6.164875   5.830037   4.767458   6.320187
    25  H    2.905818   5.853585   5.046925   4.455970   5.952478
    26  C    2.968889   4.127727   4.530140   3.282368   4.233714
    27  H    3.885573   5.027223   5.439692   4.024747   5.302206
    28  H    2.716116   4.540603   4.995808   4.019412   3.946516
    29  H    3.502284   3.383449   4.146908   2.782586   3.876915
                   16         17         18         19         20
    16  H    0.000000
    17  H    1.793315   0.000000
    18  C    4.635683   4.090077   0.000000
    19  H    4.922712   4.277592   1.095756   0.000000
    20  H    5.463859   4.717858   1.089561   1.764992   0.000000
    21  H    4.885699   4.720536   1.089948   1.769704   1.762094
    22  C    4.992471   4.287240   3.098214   4.064183   2.733514
    23  H    4.957208   3.913299   3.483695   4.267818   3.116379
    24  H    5.597784   5.057361   4.085437   5.098745   3.686453
    25  H    5.700459   4.957897   2.740319   3.682650   2.058913
    26  C    3.064018   3.074823   4.022676   4.878384   4.338435
    27  H    4.015272   4.084025   4.822409   5.764740   4.977876
    28  H    2.909058   2.451987   4.323691   5.038183   4.607548
    29  H    2.445723   3.089612   4.341709   5.117024   4.874001
                   21         22         23         24         25
    21  H    0.000000
    22  C    3.532452   0.000000
    23  H    4.165892   1.092943   0.000000
    24  H    4.353734   1.096246   1.776012   0.000000
    25  H    3.143068   1.088410   1.790992   1.759048   0.000000
    26  C    4.242757   2.528602   2.767174   2.733318   3.491099
    27  H    4.960562   2.723525   3.051855   2.469998   3.724169
    28  H    4.776137   2.807910   2.600939   3.134569   3.819461
    29  H    4.391763   3.484791   3.795077   3.709454   4.341506
                   26         27         28         29
    26  C    0.000000
    27  H    1.095032   0.000000
    28  H    1.093789   1.773330   0.000000
    29  H    1.092222   1.761129   1.791076   0.000000
 Framework group  C1[X(C8H16Cl3FeO)]
 Deg. of freedom    81
                         Standard orientation:                         
 ---------------------------------------------------------------------
 Center     Atomic      Atomic             Coordinates (Angstroms)
 Number     Number       Type             X           Y           Z
 ---------------------------------------------------------------------
      1          8           0       -0.251680   -0.389034   -0.571787
      2          6           0       -1.263022   -1.169373   -0.239973
      3          6           0       -2.365008   -0.200369    0.886598
      4          6           0       -3.004860    0.666659   -0.019020
      5          6           0       -4.335586    0.346778   -0.600388
      6         26           0        1.501749    0.129834   -0.105537
      7         17           0        2.779474   -0.581571   -1.736743
      8          6           0       -2.299790    1.869468   -0.504120
      9         17           0        2.064131   -0.743914    1.841019
     10         17           0        1.345858    2.336792    0.024579
     11          1           0       -3.023794   -0.984286    1.263240
     12          1           0       -2.856323    2.420306   -1.264432
     13          1           0       -2.020271    2.540798    0.316058
     14          1           0       -1.327867    1.529571   -0.910160
     15          1           0       -5.042210    1.116703   -0.254441
     16          1           0       -4.322015    0.421778   -1.694567
     17          1           0       -4.715347   -0.630377   -0.296626
     18          6           0       -1.461549    0.408492    1.953325
     19          1           0       -2.072191    0.998670    2.645776
     20          1           0       -0.950229   -0.359177    2.533307
     21          1           0       -0.704069    1.064934    1.525195
     22          6           0       -0.910330   -2.355269    0.666191
     23          1           0       -1.799874   -2.915138    0.965829
     24          1           0       -0.270415   -3.014929    0.068602
     25          1           0       -0.337528   -2.056642    1.542180
     26          6           0       -2.051411   -1.623050   -1.468198
     27          1           0       -1.425539   -2.341285   -2.008122
     28          1           0       -2.990604   -2.117919   -1.204767
     29          1           0       -2.245300   -0.788672   -2.145818
 ---------------------------------------------------------------------
 Rotational constants (GHZ):           0.6282451           0.3066766           0.2919904
   427 basis functions,  1056 primitive gaussians,   461 cartesian basis functions
    77 alpha electrons       72 beta electrons
       nuclear repulsion energy      1632.9402884120 Hartrees.
 NAtoms=   29 NActive=   29 NUniq=   29 SFac= 1.00D+00 NAtFMM=   60 NAOKFM=F Big=F
 Nuclear repulsion after empirical dispersion term =     1632.8725929093 Hartrees.
 Initial guess from the checkpoint file:  "checkpoint.chk"
 B after Tr=     0.000000    0.000000    0.000000
         Rot=    1.000000    0.000000    0.000000    0.000000 Ang=   0.00 deg.
 Initial guess <Sx>= 0.0000 <Sy>= 0.0000 <Sz>= 2.5000 <S**2>= 8.7622 S= 2.5020
 SCF Done:  E(UB3LYP) =  -3034.39281658     A.U. after    1 cycles
            NFock=  1  Conv=0.30D-08     -V/T= 2.0024
 <Sx>= 0.0000 <Sy>= 0.0000 <Sz>= 2.5000 <S**2>= 8.7622 S= 2.5020
 <L.S>= 0.000000000000E+00
 Annihilation of the first spin contaminant:
 S**2 before annihilation     8.7622,   after     8.7500
 1\1\GINC-HOLY7C06106\SP\UB3LYP\Jul-CC-pVDZ\C8H16Cl3Fe1O1(6)\EKWAN\11-F
 eb-2020\0\\#t pop=none jul-cc-pvdz guess=read ub3lyp empiricaldispersi
 on=gd3bj\\theory_abbreviation b3lyp_d3bj\\0,6\O,0,-0.25168,-0.389034,-
 0.571787\C,0,-1.263022,-1.169373,-0.239973\C,0,-2.365008,-0.200369,0.8
 86598\C,0,-3.00486,0.666659,-0.01902\C,0,-4.335586,0.346778,-0.600388\
 Fe,0,1.501749,0.129834,-0.105537\Cl,0,2.779474,-0.581571,-1.736743\C,0
 ,-2.29979,1.869468,-0.50412\Cl,0,2.064131,-0.743914,1.841019\Cl,0,1.34
 5858,2.336792,0.024579\H,0,-3.023794,-0.984286,1.26324\H,0,-2.856323,2
 .420306,-1.264432\H,0,-2.020271,2.540798,0.316058\H,0,-1.327867,1.5295
 71,-0.91016\H,0,-5.04221,1.116703,-0.254441\H,0,-4.322015,0.421778,-1.
 694567\H,0,-4.715347,-0.630377,-0.296626\C,0,-1.461549,0.408492,1.9533
 25\H,0,-2.072191,0.99867,2.645776\H,0,-0.950229,-0.359177,2.533307\H,0
 ,-0.704069,1.064934,1.525195\C,0,-0.91033,-2.355269,0.666191\H,0,-1.79
 9874,-2.915138,0.965829\H,0,-0.270415,-3.014929,0.068602\H,0,-0.337528
 ,-2.056642,1.54218\C,0,-2.051411,-1.62305,-1.468198\H,0,-1.425539,-2.3
 41285,-2.008122\H,0,-2.990604,-2.117919,-1.204767\H,0,-2.2453,-0.78867
 2,-2.145818\\Version=ES64L-G16RevA.03\HF=-3034.3928166\S2=8.762154\S2-
 1=0.\S2A=8.750046\RMSD=3.035e-09\PG=C01 [X(C8H16Cl3Fe1O1)]\\@


 Life may have no meaning.  Or even worse, it may have a
 meaning of which I disapprove.
                                 -- Ashleigh Brilliant
 Job cpu time:       0 days  0 hours  4 minutes 33.6 seconds.
 Elapsed time:       0 days  0 hours  1 minutes  8.9 seconds.
 File lengths (MBytes):  RWF=    170 Int=      0 D2E=      0 Chk=     13 Scr=      1
 Normal termination of Gaussian 16 at Tue Feb 11 14:14:37 2020.
 Initial command:
 /n/sw/g16_nehalem/g16/l1.exe "/scratch/Gau-77591.inp" -scrdir="/scratch/"
 Entering Link 1 = /n/sw/g16_nehalem/g16/l1.exe PID=     81861.
  
 Copyright (c) 1988,1990,1992,1993,1995,1998,2003,2009,2016,
            Gaussian, Inc.  All Rights Reserved.
  
 This is part of the Gaussian(R) 16 program.  It is based on
 the Gaussian(R) 09 system (copyright 2009, Gaussian, Inc.),
 the Gaussian(R) 03 system (copyright 2003, Gaussian, Inc.),
 the Gaussian(R) 98 system (copyright 1998, Gaussian, Inc.),
 the Gaussian(R) 94 system (copyright 1995, Gaussian, Inc.),
 the Gaussian 92(TM) system (copyright 1992, Gaussian, Inc.),
 the Gaussian 90(TM) system (copyright 1990, Gaussian, Inc.),
 the Gaussian 88(TM) system (copyright 1988, Gaussian, Inc.),
 the Gaussian 86(TM) system (copyright 1986, Carnegie Mellon
 University), and the Gaussian 82(TM) system (copyright 1983,
 Carnegie Mellon University). Gaussian is a federally registered
 trademark of Gaussian, Inc.
  
 This software contains proprietary and confidential information,
 including trade secrets, belonging to Gaussian, Inc.
  
 This software is provided under written license and may be
 used, copied, transmitted, or stored only in accord with that
 written license.
  
 The following legend is applicable only to US Government
 contracts under FAR:
  
                    RESTRICTED RIGHTS LEGEND
  
 Use, reproduction and disclosure by the US Government is
 subject to restrictions as set forth in subparagraphs (a)
 and (c) of the Commercial Computer Software - Restricted
 Rights clause in FAR 52.227-19.
  
 Gaussian, Inc.
 340 Quinnipiac St., Bldg. 40, Wallingford CT 06492
  
  
 ---------------------------------------------------------------
 Warning -- This program may not be used in any manner that
 competes with the business of Gaussian, Inc. or will provide
 assistance to any competitor of Gaussian, Inc.  The licensee
 of this program is prohibited from giving any competitor of
 Gaussian, Inc. access to this program.  By using this program,
 the user acknowledges that Gaussian, Inc. is engaged in the
 business of creating and licensing software in the field of
 computational chemistry and represents and warrants to the
 licensee that it is not a competitor of Gaussian, Inc. and that
 it will not use this program in any manner prohibited above.
 ---------------------------------------------------------------
  

 Cite this work as:
 Gaussian 16, Revision A.03,
 M. J. Frisch, G. W. Trucks, H. B. Schlegel, G. E. Scuseria, 
 M. A. Robb, J. R. Cheeseman, G. Scalmani, V. Barone, 
 G. A. Petersson, H. Nakatsuji, X. Li, M. Caricato, A. V. Marenich, 
 J. Bloino, B. G. Janesko, R. Gomperts, B. Mennucci, H. P. Hratchian, 
 J. V. Ortiz, A. F. Izmaylov, J. L. Sonnenberg, D. Williams-Young, 
 F. Ding, F. Lipparini, F. Egidi, J. Goings, B. Peng, A. Petrone, 
 T. Henderson, D. Ranasinghe, V. G. Zakrzewski, J. Gao, N. Rega, 
 G. Zheng, W. Liang, M. Hada, M. Ehara, K. Toyota, R. Fukuda, 
 J. Hasegawa, M. Ishida, T. Nakajima, Y. Honda, O. Kitao, H. Nakai, 
 T. Vreven, K. Throssell, J. A. Montgomery, Jr., J. E. Peralta, 
 F. Ogliaro, M. J. Bearpark, J. J. Heyd, E. N. Brothers, K. N. Kudin, 
 V. N. Staroverov, T. A. Keith, R. Kobayashi, J. Normand, 
 K. Raghavachari, A. P. Rendell, J. C. Burant, S. S. Iyengar, 
 J. Tomasi, M. Cossi, J. M. Millam, M. Klene, C. Adamo, R. Cammi, 
 J. W. Ochterski, R. L. Martin, K. Morokuma, O. Farkas, 
 J. B. Foresman, and D. J. Fox, Gaussian, Inc., Wallingford CT, 2016.
 
 ******************************************
 Gaussian 16:  ES64L-G16RevA.03 25-Dec-2016
                11-Feb-2020 
 ******************************************
 %chk=checkpoint.chk
 %mem=3GB
 %nprocshared=4
 Will use up to    4 processors via shared memory.
 ----------------------------------------
 #t pop=none jul-cc-pvdz guess=read ub97d
 ----------------------------------------
 ------------------------
 theory_abbreviation b97d
 ------------------------
 Symbolic Z-matrix:
 Charge =  0 Multiplicity = 6
 O                    -0.25168  -0.38903  -0.57179 
 C                    -1.26302  -1.16937  -0.23997 
 C                    -2.36501  -0.20037   0.8866 
 C                    -3.00486   0.66666  -0.01902 
 C                    -4.33559   0.34678  -0.60039 
 Fe                    1.50175   0.12983  -0.10554 
 Cl                    2.77947  -0.58157  -1.73674 
 C                    -2.29979   1.86947  -0.50412 
 Cl                    2.06413  -0.74391   1.84102 
 Cl                    1.34586   2.33679   0.02458 
 H                    -3.02379  -0.98429   1.26324 
 H                    -2.85632   2.42031  -1.26443 
 H                    -2.02027   2.5408    0.31606 
 H                    -1.32787   1.52957  -0.91016 
 H                    -5.04221   1.1167   -0.25444 
 H                    -4.32202   0.42178  -1.69457 
 H                    -4.71535  -0.63038  -0.29663 
 C                    -1.46155   0.40849   1.95333 
 H                    -2.07219   0.99867   2.64578 
 H                    -0.95023  -0.35918   2.53331 
 H                    -0.70407   1.06493   1.5252 
 C                    -0.91033  -2.35527   0.66619 
 H                    -1.79987  -2.91514   0.96583 
 H                    -0.27042  -3.01493   0.0686 
 H                    -0.33753  -2.05664   1.54218 
 C                    -2.05141  -1.62305  -1.4682 
 H                    -1.42554  -2.34129  -2.00812 
 H                    -2.9906   -2.11792  -1.20477 
 H                    -2.2453   -0.78867  -2.14582 
 
                    Distance matrix (angstroms):
                    1          2          3          4          5
     1  O    0.000000
     2  C    1.319789   0.000000
     3  C    2.574614   1.850001   0.000000
     4  C    3.000007   2.540440   1.407584   0.000000
     5  C    4.149762   3.445180   2.528572   1.486992   0.000000
     6  Fe   1.887095   3.057772   4.005643   4.539294   5.862288
     7  Cl   3.253012   4.350587   5.787307   6.161751   7.264793
     8  C    3.049617   3.221679   2.494509   1.476210   2.544075
     9  Cl   3.363117   3.947340   4.563292   5.580693   6.935882
    10  Cl   3.215262   4.378291   4.577203   4.660471   6.052235
    11  H    3.377316   2.322547   1.091047   2.090495   2.639250
    12  H    3.893111   4.058808   3.425822   2.156013   2.632241
    13  H    3.535548   3.827266   2.821056   2.143383   3.318777
    14  H    2.225695   2.781664   2.701239   2.085918   3.246742
    15  H    5.031613   4.416856   3.194379   2.099704   1.100809
    16  H    4.299497   3.742331   3.298387   2.145302   1.096830
    17  H    4.478647   3.494606   2.666274   2.164517   1.091477
    18  C    2.911361   2.709175   1.524748   2.517658   3.845172
    19  H    3.948759   3.699015   2.148987   2.842752   4.010673
    20  H    3.182840   2.906087   2.176803   3.433398   4.666804
    21  H    2.591527   2.901788   2.183464   2.799440   4.268696
    22  C    2.415055   1.533582   2.609265   3.740136   4.542869
    23  H    3.338019   2.188576   2.774099   3.905277   4.418480
    24  H    2.702919   2.118151   3.602525   4.586824   5.317352
    25  H    2.693908   2.195417   2.825989   4.119269   5.133371
    26  C    2.359106   1.528371   2.769012   2.872621   3.138594
    27  H    2.693007   2.127473   3.720958   3.936815   4.204256
    28  H    3.300214   2.194335   2.905542   3.026561   2.872104
    29  H    2.571343   2.177625   3.091274   2.686669   2.836705
                    6          7          8          9         10
     6  Fe   0.000000
     7  Cl   2.190779   0.000000
     8  C    4.199630   5.772857   0.000000
     9  Cl   2.206533   3.652185   5.601183   0.000000
    10  Cl   2.216280   3.697885   3.713309   3.647755   0.000000
    11  H    4.857505   6.545227   3.433898   5.126265   5.626517
    12  H    5.057874   6.402855   1.091433   6.623215   4.396231
    13  H    4.288953   6.082823   1.096133   5.458679   3.384879
    14  H    3.257823   4.691525   1.106812   4.923756   2.945191
    15  H    6.619629   8.140030   2.854796   7.638909   6.509522
    16  H    6.043714   7.172143   2.757239   7.392027   6.224751
    17  H    6.266316   7.632081   3.482412   7.109412   6.756143
    18  C    3.619074   5.708161   2.979284   3.710939   3.914069
    19  H    4.593217   6.726239   3.275963   4.559977   4.510466
    20  H    3.635220   5.673929   4.001767   3.116673   4.339813
    21  H    2.898160   5.048395   2.704019   3.321838   2.841069
    22  C    3.548158   4.747078   4.598764   3.581076   5.245711
    23  H    4.617401   5.806880   5.030221   4.517821   6.193896
    24  H    3.613921   4.299107   5.320123   3.707975   5.590634
    25  H    3.298271   4.758453   4.842743   2.753275   4.943598
    26  C    4.189796   4.949166   3.631642   5.353642   5.426801
    27  H    4.277297   4.566440   4.555961   5.435557   5.804905
    28  H    5.142172   5.994761   4.106992   6.059294   6.337243
    29  H    4.364261   5.045650   3.124716   5.870951   5.232166
                   11         12         13         14         15
    11  H    0.000000
    12  H    4.243633   0.000000
    13  H    3.785555   1.792052   0.000000
    14  H    3.730860   1.804188   1.733671   0.000000
    15  H    3.285044   2.738168   3.389046   3.794308   0.000000
    16  H    3.522927   2.515429   3.718990   3.287464   1.753729
    17  H    2.328043   3.701255   4.206562   4.064089   1.777894
    18  C    2.203782   4.043111   2.745823   3.078025   4.265786
    19  H    2.597897   4.233868   2.794359   3.671588   4.152855
    20  H    2.510678   5.077553   3.804082   3.945560   5.166630
    21  H    3.106292   3.775083   2.317881   2.556553   4.689270
    22  C    2.588975   5.506388   5.032498   4.213217   5.474905
    23  H    2.305347   5.878530   5.498910   4.847429   5.315782
    24  H    3.623778   6.164875   5.830037   4.767458   6.320187
    25  H    2.905818   5.853585   5.046925   4.455970   5.952478
    26  C    2.968889   4.127727   4.530140   3.282368   4.233714
    27  H    3.885573   5.027223   5.439692   4.024747   5.302206
    28  H    2.716116   4.540603   4.995808   4.019412   3.946516
    29  H    3.502284   3.383449   4.146908   2.782586   3.876915
                   16         17         18         19         20
    16  H    0.000000
    17  H    1.793315   0.000000
    18  C    4.635683   4.090077   0.000000
    19  H    4.922712   4.277592   1.095756   0.000000
    20  H    5.463859   4.717858   1.089561   1.764992   0.000000
    21  H    4.885699   4.720536   1.089948   1.769704   1.762094
    22  C    4.992471   4.287240   3.098214   4.064183   2.733514
    23  H    4.957208   3.913299   3.483695   4.267818   3.116379
    24  H    5.597784   5.057361   4.085437   5.098745   3.686453
    25  H    5.700459   4.957897   2.740319   3.682650   2.058913
    26  C    3.064018   3.074823   4.022676   4.878384   4.338435
[...]
 ---------------------------------------------------------------------
 Rotational constants (GHZ):           0.6282451           0.3066766           0.2919904
   427 basis functions,  1056 primitive gaussians,   461 cartesian basis functions
    77 alpha electrons       72 beta electrons
       nuclear repulsion energy      1632.9402884120 Hartrees.
 NAtoms=   29 NActive=   29 NUniq=   29 SFac= 1.00D+00 NAtFMM=   60 NAOKFM=F Big=F
 Nuclear repulsion after empirical dispersion term =     1632.9379051650 Hartrees.
 Initial guess from the checkpoint file:  "checkpoint.chk"
 B after Tr=     0.000000    0.000000    0.000000
         Rot=    1.000000    0.000000    0.000000    0.000000 Ang=   0.00 deg.
 Initial guess <Sx>= 0.0000 <Sy>= 0.0000 <Sz>= 2.5000 <S**2>= 8.7619 S= 2.5020
 SCF Done:  E(UM06L) =  -3034.19254666     A.U. after   16 cycles
            NFock= 16  Conv=0.43D-08     -V/T= 2.0020
 <Sx>= 0.0000 <Sy>= 0.0000 <Sz>= 2.5000 <S**2>= 8.7621 S= 2.5020
 <L.S>= 0.000000000000E+00
 Annihilation of the first spin contaminant:
 S**2 before annihilation     8.7621,   after     8.7500
 1\1\GINC-HOLY7C06106\SP\UM06L\Jul-CC-pVDZ\C8H16Cl3Fe1O1(6)\EKWAN\11-Fe
 b-2020\0\\#t pop=none jul-cc-pvdz guess=read um06l empiricaldispersion
 =gd3\\theory_abbreviation m06l_d3\\0,6\O,0,-0.25168,-0.389034,-0.57178
 7\C,0,-1.263022,-1.169373,-0.239973\C,0,-2.365008,-0.200369,0.886598\C
 ,0,-3.00486,0.666659,-0.01902\C,0,-4.335586,0.346778,-0.600388\Fe,0,1.
 501749,0.129834,-0.105537\Cl,0,2.779474,-0.581571,-1.736743\C,0,-2.299
 79,1.869468,-0.50412\Cl,0,2.064131,-0.743914,1.841019\Cl,0,1.345858,2.
 336792,0.024579\H,0,-3.023794,-0.984286,1.26324\H,0,-2.856323,2.420306
 ,-1.264432\H,0,-2.020271,2.540798,0.316058\H,0,-1.327867,1.529571,-0.9
 1016\H,0,-5.04221,1.116703,-0.254441\H,0,-4.322015,0.421778,-1.694567\
 H,0,-4.715347,-0.630377,-0.296626\C,0,-1.461549,0.408492,1.953325\H,0,
 -2.072191,0.99867,2.645776\H,0,-0.950229,-0.359177,2.533307\H,0,-0.704
 069,1.064934,1.525195\C,0,-0.91033,-2.355269,0.666191\H,0,-1.799874,-2
 .915138,0.965829\H,0,-0.270415,-3.014929,0.068602\H,0,-0.337528,-2.056
 642,1.54218\C,0,-2.051411,-1.62305,-1.468198\H,0,-1.425539,-2.341285,-
 2.008122\H,0,-2.990604,-2.117919,-1.204767\H,0,-2.2453,-0.788672,-2.14
 5818\\Version=ES64L-G16RevA.03\HF=-3034.1925467\S2=8.76211\S2-1=0.\S2A
 =8.750047\RMSD=4.278e-09\PG=C01 [X(C8H16Cl3Fe1O1)]\\@


 I DON'T EXACTLY UNDERSTAND WHAT YOU ARE SAYING,
 BUT YOU ARE ABSOLUTELY RIGHT.
     M.S.GORDON, IN A NDSU FACULTY MEETING
 Job cpu time:       0 days  1 hours  9 minutes 41.3 seconds.
 Elapsed time:       0 days  0 hours 17 minutes 28.4 seconds.
 File lengths (MBytes):  RWF=    174 Int=      0 D2E=      0 Chk=     13 Scr=      1
 Normal termination of Gaussian 16 at Tue Feb 11 23:36:11 2020.
 Initial command:
 /n/sw/g16_nehalem/g16/l1.exe "/scratch/Gau-77591.inp" -scrdir="/scratch/"
 Entering Link 1 = /n/sw/g16_nehalem/g16/l1.exe PID=    132769.
  
 Copyright (c) 1988,1990,1992,1993,1995,1998,2003,2009,2016,
            Gaussian, Inc.  All Rights Reserved.
  
 This is part of the Gaussian(R) 16 program.  It is based on
 the Gaussian(R) 09 system (copyright 2009, Gaussian, Inc.),
 the Gaussian(R) 03 system (copyright 2003, Gaussian, Inc.),
 the Gaussian(R) 98 system (copyright 1998, Gaussian, Inc.),
 the Gaussian(R) 94 system (copyright 1995, Gaussian, Inc.),
 the Gaussian 92(TM) system (copyright 1992, Gaussian, Inc.),
 the Gaussian 90(TM) system (copyright 1990, Gaussian, Inc.),
 the Gaussian 88(TM) system (copyright 1988, Gaussian, Inc.),
 the Gaussian 86(TM) system (copyright 1986, Carnegie Mellon
 University), and the Gaussian 82(TM) system (copyright 1983,
 Carnegie Mellon University). Gaussian is a federally registered
 trademark of Gaussian, Inc.
  
 This software contains proprietary and confidential information,
 including trade secrets, belonging to Gaussian, Inc.
  
 This software is provided under written license and may be
 used, copied, transmitted, or stored only in accord with that
 written license.
  
 The following legend is applicable only to US Government
 contracts under FAR:
  
                    RESTRICTED RIGHTS LEGEND
  
 Use, reproduction and disclosure by the US Government is
 subject to restrictions as set forth in subparagraphs (a)
 and (c) of the Commercial Computer Software - Restricted
 Rights clause in FAR 52.227-19.
  
 Gaussian, Inc.
 340 Quinnipiac St., Bldg. 40, Wallingford CT 06492
  
  
 ---------------------------------------------------------------
 Warning -- This program may not be used in any manner that
 competes with the business of Gaussian, Inc. or will provide
 assistance to any competitor of Gaussian, Inc.  The licensee
 of this program is prohibited from giving any competitor of
 Gaussian, Inc. access to this program.  By using this program,
 the user acknowledges that Gaussian, Inc. is engaged in the
 business of creating and licensing software in the field of
 computational chemistry and represents and warrants to the
 licensee that it is not a competitor of Gaussian, Inc. and that
 it will not use this program in any manner prohibited above.
 ---------------------------------------------------------------
  

 Cite this work as:
 Gaussian 16, Revision A.03,
 M. J. Frisch, G. W. Trucks, H. B. Schlegel, G. E. Scuseria, 
 M. A. Robb, J. R. Cheeseman, G. Scalmani, V. Barone, 
 G. A. Petersson, H. Nakatsuji, X. Li, M. Caricato, A. V. Marenich, 
 J. Bloino, B. G. Janesko, R. Gomperts, B. Mennucci, H. P. Hratchian, 
 J. V. Ortiz, A. F. Izmaylov, J. L. Sonnenberg, D. Williams-Young, 
 F. Ding, F. Lipparini, F. Egidi, J. Goings, B. Peng, A. Petrone, 
 T. Henderson, D. Ranasinghe, V. G. Zakrzewski, J. Gao, N. Rega, 
 G. Zheng, W. Liang, M. Hada, M. Ehara, K. Toyota, R. Fukuda, 
 J. Hasegawa, M. Ishida, T. Nakajima, Y. Honda, O. Kitao, H. Nakai, 
 T. Vreven, K. Throssell, J. A. Montgomery, Jr., J. E. Peralta, 
 F. Ogliaro, M. J. Bearpark, J. J. Heyd, E. N. Brothers, K. N. Kudin, 
 V. N. Staroverov, T. A. Keith, R. Kobayashi, J. Normand, 
 K. Raghavachari, A. P. Rendell, J. C. Burant, S. S. Iyengar, 
 J. Tomasi, M. Cossi, J. M. Millam, M. Klene, C. Adamo, R. Cammi, 
 J. W. Ochterski, R. L. Martin, K. Morokuma, O. Farkas, 
 J. B. Foresman, and D. J. Fox, Gaussian, Inc., Wallingford CT, 2016.
 
 ******************************************
 Gaussian 16:  ES64L-G16RevA.03 25-Dec-2016
                11-Feb-2020 
 ******************************************
 %chk=checkpoint.chk
 %mem=3GB
 %nprocshared=4
 Will use up to    4 processors via shared memory.
 -------------------------------------------------------------------
 #t pop=none jul-cc-pvdz guess=read ub97d3 empiricaldispersion=gd3bj
 -------------------------------------------------------------------
 ------------------------------
 theory_abbreviation b97d3_d3bj
 ------------------------------
 Symbolic Z-matrix:
 Charge =  0 Multiplicity = 6
 O                    -0.25168  -0.38903  -0.57179 
 C                    -1.26302  -1.16937  -0.23997 
 C                    -2.36501  -0.20037   0.8866 
 C                    -3.00486   0.66666  -0.01902 
 C                    -4.33559   0.34678  -0.60039 
 Fe                    1.50175   0.12983  -0.10554 
 Cl                    2.77947  -0.58157  -1.73674 
 C                    -2.29979   1.86947  -0.50412 
 Cl                    2.06413  -0.74391   1.84102 
 Cl                    1.34586   2.33679   0.02458 
 H                    -3.02379  -0.98429   1.26324 
 H                    -2.85632   2.42031  -1.26443 
 H                    -2.02027   2.5408    0.31606 
 H                    -1.32787   1.52957  -0.91016 
 H                    -5.04221   1.1167   -0.25444 
 H                    -4.32202   0.42178  -1.69457 
 H                    -4.71535  -0.63038  -0.29663 
 C                    -1.46155   0.40849   1.95333 
 H                    -2.07219   0.99867   2.64578 
 H                    -0.95023  -0.35918   2.53331 
 H                    -0.70407   1.06493   1.5252 
 C                    -0.91033  -2.35527   0.66619 
 H                    -1.79987  -2.91514   0.96583 
 H                    -0.27042  -3.01493   0.0686 
 H                    -0.33753  -2.05664   1.54218 
 C                    -2.05141  -1.62305  -1.4682 
 H                    -1.42554  -2.34129  -2.00812 
 H                    -2.9906   -2.11792  -1.20477 
 H                    -2.2453   -0.78867  -2.14582 
 
                    Distance matrix (angstroms):
                    1          2          3          4          5
     1  O    0.000000
     2  C    1.319789   0.000000
     3  C    2.574614   1.850001   0.000000
     4  C    3.000007   2.540440   1.407584   0.000000
     5  C    4.149762   3.445180   2.528572   1.486992   0.000000
     6  Fe   1.887095   3.057772   4.005643   4.539294   5.862288
     7  Cl   3.253012   4.350587   5.787307   6.161751   7.264793
     8  C    3.049617   3.221679   2.494509   1.476210   2.544075
     9  Cl   3.363117   3.947340   4.563292   5.580693   6.935882
    10  Cl   3.215262   4.378291   4.577203   4.660471   6.052235
    11  H    3.377316   2.322547   1.091047   2.090495   2.639250
    12  H    3.893111   4.058808   3.425822   2.156013   2.632241
    13  H    3.535548   3.827266   2.821056   2.143383   3.318777
    14  H    2.225695   2.781664   2.701239   2.085918   3.246742
    15  H    5.031613   4.416856   3.194379   2.099704   1.100809
    16  H    4.299497   3.742331   3.298387   2.145302   1.096830
    17  H    4.478647   3.494606   2.666274   2.164517   1.091477
    18  C    2.911361   2.709175   1.524748   2.517658   3.845172
    19  H    3.948759   3.699015   2.148987   2.842752   4.010673
    20  H    3.182840   2.906087   2.176803   3.433398   4.666804
    21  H    2.591527   2.901788   2.183464   2.799440   4.268696
    22  C    2.415055   1.533582   2.609265   3.740136   4.542869
    23  H    3.338019   2.188576   2.774099   3.905277   4.418480
    24  H    2.702919   2.118151   3.602525   4.586824   5.317352
    25  H    2.693908   2.195417   2.825989   4.119269   5.133371
    26  C    2.359106   1.528371   2.769012   2.872621   3.138594
    27  H    2.693007   2.127473   3.720958   3.936815   4.204256
    28  H    3.300214   2.194335   2.905542   3.026561   2.872104
    29  H    2.571343   2.177625   3.091274   2.686669   2.836705
                    6          7          8          9         10
     6  Fe   0.000000
     7  Cl   2.190779   0.000000
     8  C    4.199630   5.772857   0.000000
     9  Cl   2.206533   3.652185   5.601183   0.000000
    10  Cl   2.216280   3.697885   3.713309   3.647755   0.000000
    11  H    4.857505   6.545227   3.433898   5.126265   5.626517
    12  H    5.057874   6.402855   1.091433   6.623215   4.396231
    13  H    4.288953   6.082823   1.096133   5.458679   3.384879
    14  H    3.257823   4.691525   1.106812   4.923756   2.945191
    15  H    6.619629   8.140030   2.854796   7.638909   6.509522
    16  H    6.043714   7.172143   2.757239   7.392027   6.224751
    17  H    6.266316   7.632081   3.482412   7.109412   6.756143
    18  C    3.619074   5.708161   2.979284   3.710939   3.914069
    19  H    4.593217   6.726239   3.275963   4.559977   4.510466
    20  H    3.635220   5.673929   4.001767   3.116673   4.339813
    21  H    2.898160   5.048395   2.704019   3.321838   2.841069
    22  C    3.548158   4.747078   4.598764   3.581076   5.245711
    23  H    4.617401   5.806880   5.030221   4.517821   6.193896
    24  H    3.613921   4.299107   5.320123   3.707975   5.590634
    25  H    3.298271   4.758453   4.842743   2.753275   4.943598
    26  C    4.189796   4.949166   3.631642   5.353642   5.426801
    27  H    4.277297   4.566440   4.555961   5.435557   5.804905
    28  H    5.142172   5.994761   4.106992   6.059294   6.337243
    29  H    4.364261   5.045650   3.124716   5.870951   5.232166
                   11         12         13         14         15
    11  H    0.000000
    12  H    4.243633   0.000000
    13  H    3.785555   1.792052   0.000000
    14  H    3.730860   1.804188   1.733671   0.000000
    15  H    3.285044   2.738168   3.389046   3.794308   0.000000
    16  H    3.522927   2.515429   3.718990   3.287464   1.753729
    17  H    2.328043   3.701255   4.206562   4.064089   1.777894
    18  C    2.203782   4.043111   2.745823   3.078025   4.265786
    19  H    2.597897   4.233868   2.794359   3.671588   4.152855
    20  H    2.510678   5.077553   3.804082   3.945560   5.166630
    21  H    3.106292   3.775083   2.317881   2.556553   4.689270
    22  C    2.588975   5.506388   5.032498   4.213217   5.474905
    23  H    2.305347   5.878530   5.498910   4.847429   5.315782
    24  H    3.623778   6.164875   5.830037   4.767458   6.320187
    25  H    2.905818   5.853585   5.046925   4.455970   5.952478
    26  C    2.968889   4.127727   4.530140   3.282368   4.233714
    27  H    3.885573   5.027223   5.439692   4.024747   5.302206
    28  H    2.716116   4.540603   4.995808   4.019412   3.946516
    29  H    3.502284   3.383449   4.146908   2.782586   3.876915
                   16         17         18         19         20
    16  H    0.000000
    17  H    1.793315   0.000000
    18  C    4.635683   4.090077   0.000000
    19  H    4.922712   4.277592   1.095756   0.000000
    20  H    5.463859   4.717858   1.089561   1.764992   0.000000
    21  H    4.885699   4.720536   1.089948   1.769704   1.762094
    22  C    4.992471   4.287240   3.098214   4.064183   2.733514
    23  H    4.957208   3.913299   3.483695   4.267818   3.116379
    24  H    5.597784   5.057361   4.085437   5.098745   3.686453
    25  H    5.700459   4.957897   2.740319   3.682650   2.058913
    26  C    3.064018   3.074823   4.022676   4.878384   4.338435
    27  H    4.015272   4.084025   4.822409   5.764740   4.977876
    28  H    2.909058   2.451987   4.323691   5.038183   4.607548
    29  H    2.445723   3.089612   4.341709   5.117024   4.874001
                   21         22         23         24         25
    21  H    0.000000
    22  C    3.532452   0.000000
    23  H    4.165892   1.092943   0.000000
    24  H    4.353734   1.096246   1.776012   0.000000
    25  H    3.143068   1.088410   1.790992   1.759048   0.000000
    26  C    4.242757   2.528602   2.767174   2.733318   3.491099
    27  H    4.960562   2.723525   3.051855   2.469998   3.724169
    28  H    4.776137   2.807910   2.600939   3.134569   3.819461
    29  H    4.391763   3.484791   3.795077   3.709454   4.341506
                   26         27         28         29
    26  C    0.000000
    27  H    1.095032   0.000000
    28  H    1.093789   1.773330   0.000000
    29  H    1.092222   1.761129   1.791076   0.000000
 Framework group  C1[X(C8H16Cl3FeO)]
 Deg. of freedom    81
                         Standard orientation:                         
 ---------------------------------------------------------------------
 Center     Atomic      Atomic             Coordinates (Angstroms)
 Number     Number       Type             X           Y           Z
 ---------------------------------------------------------------------
      1          8           0       -0.251680   -0.389034   -0.571787
      2          6           0       -1.263022   -1.169373   -0.239973
      3          6           0       -2.365008   -0.200369    0.886598
      4          6           0       -3.004860    0.666659   -0.019020
      5          6           0       -4.335586    0.346778   -0.600388
      6         26           0        1.501749    0.129834   -0.105537
      7         17           0        2.779474   -0.581571   -1.736743
      8          6           0       -2.299790    1.869468   -0.504120
      9         17           0        2.064131   -0.743914    1.841019
     10         17           0        1.345858    2.336792    0.024579
     11          1           0       -3.023794   -0.984286    1.263240
     12          1           0       -2.856323    2.420306   -1.264432
     13          1           0       -2.020271    2.540798    0.316058
     14          1           0       -1.327867    1.529571   -0.910160
     15          1           0       -5.042210    1.116703   -0.254441
     16          1           0       -4.322015    0.421778   -1.694567
     17          1           0       -4.715347   -0.630377   -0.296626
     18          6           0       -1.461549    0.408492    1.953325
     19          1           0       -2.072191    0.998670    2.645776
     20          1           0       -0.950229   -0.359177    2.533307
     21          1           0       -0.704069    1.064934    1.525195
     22          6           0       -0.910330   -2.355269    0.666191
     23          1           0       -1.799874   -2.915138    0.965829
     24          1           0       -0.270415   -3.014929    0.068602
     25          1           0       -0.337528   -2.056642    1.542180
     26          6           0       -2.051411   -1.623050   -1.468198
     27          1           0       -1.425539   -2.341285   -2.008122
     28          1           0       -2.990604   -2.117919   -1.204767
     29          1           0       -2.245300   -0.788672   -2.145818
 ---------------------------------------------------------------------
 Rotational constants (GHZ):           0.6282451           0.3066766           0.2919904
   427 basis functions,  1056 primitive gaussians,   461 cartesian basis functions
    77 alpha electrons       72 beta electrons
       nuclear repulsion energy      1632.9402884120 Hartrees.
 NAtoms=   29 NActive=   29 NUniq=   29 SFac= 1.00D+00 NAtFMM=   60 NAOKFM=F Big=F
 Nuclear repulsion after empirical dispersion term =     1632.8403030511 Hartrees.
 Initial guess from the checkpoint file:  "checkpoint.chk"
 B after Tr=     0.000000    0.000000    0.000000
         Rot=    1.000000    0.000000    0.000000    0.000000 Ang=   0.00 deg.
 Initial guess <Sx>= 0.0000 <Sy>= 0.0000 <Sz>= 2.5000 <S**2>= 8.7621 S= 2.5020
 EnCoef did     4 forward-backward iterations
 SCF Done:  E(UB97D3) =  -3034.61291116     A.U. after   16 cycles
            NFock= 16  Conv=0.64D-08     -V/T= 2.0020
 <Sx>= 0.0000 <Sy>= 0.0000 <Sz>= 2.5000 <S**2>= 8.7607 S= 2.5018
 <L.S>= 0.000000000000E+00
 Annihilation of the first spin contaminant:
 S**2 before annihilation     8.7607,   after     8.7500
 1\1\GINC-HOLY7C06106\SP\UB97D3\Jul-CC-pVDZ\C8H16Cl3Fe1O1(6)\EKWAN\11-F
 eb-2020\0\\#t pop=none jul-cc-pvdz guess=read ub97d3 empiricaldispersi
 on=gd3bj\\theory_abbreviation b97d3_d3bj\\0,6\O,0,-0.25168,-0.389034,-
 0.571787\C,0,-1.263022,-1.169373,-0.239973\C,0,-2.365008,-0.200369,0.8
 86598\C,0,-3.00486,0.666659,-0.01902\C,0,-4.335586,0.346778,-0.600388\
 Fe,0,1.501749,0.129834,-0.105537\Cl,0,2.779474,-0.581571,-1.736743\C,0
 ,-2.29979,1.869468,-0.50412\Cl,0,2.064131,-0.743914,1.841019\Cl,0,1.34
 5858,2.336792,0.024579\H,0,-3.023794,-0.984286,1.26324\H,0,-2.856323,2
 .420306,-1.264432\H,0,-2.020271,2.540798,0.316058\H,0,-1.327867,1.5295
 71,-0.91016\H,0,-5.04221,1.116703,-0.254441\H,0,-4.322015,0.421778,-1.
 694567\H,0,-4.715347,-0.630377,-0.296626\C,0,-1.461549,0.408492,1.9533
 25\H,0,-2.072191,0.99867,2.645776\H,0,-0.950229,-0.359177,2.533307\H,0
 ,-0.704069,1.064934,1.525195\C,0,-0.91033,-2.355269,0.666191\H,0,-1.79
 9874,-2.915138,0.965829\H,0,-0.270415,-3.014929,0.068602\H,0,-0.337528
 ,-2.056642,1.54218\C,0,-2.051411,-1.62305,-1.468198\H,0,-1.425539,-2.3
 41285,-2.008122\H,0,-2.990604,-2.117919,-1.204767\H,0,-2.2453,-0.78867
 2,-2.145818\\Version=ES64L-G16RevA.03\HF=-3034.6129112\S2=8.760705\S2-
 1=0.\S2A=8.750036\RMSD=6.359e-09\PG=C01 [X(C8H16Cl3Fe1O1)]\\@


 Spring appears, and we are once more children.
                                  -- Anonymous
 Job cpu time:       0 days  0 hours 49 minutes 52.6 seconds.
 Elapsed time:       0 days  0 hours 12 minutes 30.3 seconds.
 File lengths (MBytes):  RWF=    174 Int=      0 D2E=      0 Chk=     13 Scr=      1
 Normal termination of Gaussian 16 at Tue Feb 11 23:48:42 2020.
