 Entering Gaussian System, Link 0=g16
 Input=simple-grid-270-275-b3lyp_d3bj-631gd-gas-singlepoint-DFT-juldz2-gas.gjf
 Output=simple-grid-270-275-b3lyp_d3bj-631gd-gas-singlepoint-DFT-juldz2-gas.out
 Initial command:
 /n/sw/g16_nehalem/g16/l1.exe "/scratch/Gau-47808.inp" -scrdir="/scratch/"
 Entering Link 1 = /n/sw/g16_nehalem/g16/l1.exe PID=     47809.
  
 Copyright (c) 1988,1990,1992,1993,1995,1998,2003,2009,2016,
            Gaussian, Inc.  All Rights Reserved.
  
 This is part of the Gaussian(R) 16 program.  It is based on
 the Gaussian(R) 09 system (copyright 2009, Gaussian, Inc.),
 the Gaussian(R) 03 system (copyright 2003, Gaussian, Inc.),
 the Gaussian(R) 98 system (copyright 1998, Gaussian, Inc.),
 the Gaussian(R) 94 system (copyright 1995, Gaussian, Inc.),
 the Gaussian 92(TM) system (copyright 1992, Gaussian, Inc.),
 the Gaussian 90(TM) system (copyright 1990, Gaussian, Inc.),
 the Gaussian 88(TM) system (copyright 1988, Gaussian, Inc.),
 the Gaussian 86(TM) system (copyright 1986, Carnegie Mellon
 University), and the Gaussian 82(TM) system (copyright 1983,
 Carnegie Mellon University). Gaussian is a federally registered
 trademark of Gaussian, Inc.
  
 This software contains proprietary and confidential information,
 including trade secrets, belonging to Gaussian, Inc.
  
 This software is provided under written license and may be
 used, copied, transmitted, or stored only in accord with that
 written license.
  
 The following legend is applicable only to US Government
 contracts under FAR:
  
                    RESTRICTED RIGHTS LEGEND
  
 Use, reproduction and disclosure by the US Government is
 subject to restrictions as set forth in subparagraphs (a)
 and (c) of the Commercial Computer Software - Restricted
 Rights clause in FAR 52.227-19.
  
 Gaussian, Inc.
 340 Quinnipiac St., Bldg. 40, Wallingford CT 06492
  
  
 ---------------------------------------------------------------
 Warning -- This program may not be used in any manner that
 competes with the business of Gaussian, Inc. or will provide
 assistance to any competitor of Gaussian, Inc.  The licensee
 of this program is prohibited from giving any competitor of
 Gaussian, Inc. access to this program.  By using this program,
 the user acknowledges that Gaussian, Inc. is engaged in the
 business of creating and licensing software in the field of
 computational chemistry and represents and warrants to the
 licensee that it is not a competitor of Gaussian, Inc. and that
 it will not use this program in any manner prohibited above.
 ---------------------------------------------------------------
  

 Cite this work as:
 Gaussian 16, Revision A.03,
 M. J. Frisch, G. W. Trucks, H. B. Schlegel, G. E. Scuseria, 
 M. A. Robb, J. R. Cheeseman, G. Scalmani, V. Barone, 
 G. A. Petersson, H. Nakatsuji, X. Li, M. Caricato, A. V. Marenich, 
 J. Bloino, B. G. Janesko, R. Gomperts, B. Mennucci, H. P. Hratchian, 
 J. V. Ortiz, A. F. Izmaylov, J. L. Sonnenberg, D. Williams-Young, 
 F. Ding, F. Lipparini, F. Egidi, J. Goings, B. Peng, A. Petrone, 
 T. Henderson, D. Ranasinghe, V. G. Zakrzewski, J. Gao, N. Rega, 
 G. Zheng, W. Liang, M. Hada, M. Ehara, K. Toyota, R. Fukuda, 
 J. Hasegawa, M. Ishida, T. Nakajima, Y. Honda, O. Kitao, H. Nakai, 
 T. Vreven, K. Throssell, J. A. Montgomery, Jr., J. E. Peralta, 
 F. Ogliaro, M. J. Bearpark, J. J. Heyd, E. N. Brothers, K. N. Kudin, 
 V. N. Staroverov, T. A. Keith, R. Kobayashi, J. Normand, 
 K. Raghavachari, A. P. Rendell, J. C. Burant, S. S. Iyengar, 
 J. Tomasi, M. Cossi, J. M. Millam, M. Klene, C. Adamo, R. Cammi, 
 J. W. Ochterski, R. L. Martin, K. Morokuma, O. Farkas, 
 J. B. Foresman, and D. J. Fox, Gaussian, Inc., Wallingford CT, 2016.
 
 ******************************************
 Gaussian 16:  ES64L-G16RevA.03 25-Dec-2016
                12-Feb-2020 
 ******************************************
 %chk=checkpoint.chk
 %mem=3GB
 %nprocshared=4
 Will use up to    4 processors via shared memory.
 --------------------------------
 #t pop=none jul-cc-pvdz upbe1pbe
 --------------------------------
 ------------------------
 theory_abbreviation pbe0
 ------------------------
 Symbolic Z-matrix:
 Charge =  0 Multiplicity = 6
 O                     0.2369    0.34132  -0.83935 
 C                     1.00772   1.31333  -0.65535 
 C                     3.11492   0.05495   0.46992 
 C                     2.57024  -0.97235  -0.21298 
 C                     2.93024  -1.24228  -1.64834 
 Fe                   -1.4672   -0.14786   0.02716 
 Cl                   -2.08964  -1.97313  -0.9775 
 C                     1.64056  -1.986     0.38662 
 Cl                   -2.65785   1.63476  -0.41959 
 Cl                   -1.11422  -0.37238   2.18192 
 H                     3.84043   0.67569  -0.05663 
 H                     2.15811  -2.9518    0.46715 
 H                     1.27388  -1.71769   1.37689 
 H                     0.77813  -2.15751  -0.26825 
 H                     3.36759  -2.24488  -1.741 
 H                     2.03309  -1.23809  -2.28116 
 H                     3.65346  -0.52299  -2.04314 
 C                     2.99918   0.31336   1.9481 
 H                     3.83518  -0.15968   2.48136 
 H                     3.05112   1.38339   2.17455 
 H                     2.07394  -0.07797   2.37873 
 C                     0.86532   2.19629   0.54381 
 H                     1.75314   2.80718   0.71075 
 H                     0.01679   2.86391   0.33088 
 H                     0.61237   1.62689   1.43845 
 C                     1.79922   1.82044  -1.82208 
 H                     1.19285   2.62059  -2.27219 
 H                     2.75076   2.25773  -1.51623 
 H                     1.94581   1.04519  -2.57183 
 
                    Distance matrix (angstroms):
                    1          2          3          4          5
     1  O    0.000000
     2  C    1.254127   0.000000
     3  C    3.174773   2.699999   0.000000
     4  C    2.750008   2.803829   1.348464   0.000000
     5  C    3.227430   3.348613   2.490762   1.504231   0.000000
     6  Fe   1.973340   2.953997   4.607917   4.127751   4.831403
     7  Cl   3.284595   4.527505   5.770233   4.827069   5.116970
     8  C    2.981554   3.517347   2.519156   1.500439   2.521395
     9  Cl   3.198242   3.687183   6.050772   5.845734   6.404206
    10  Cl   3.385699   3.923558   4.582481   4.435169   5.637835
    11  H    3.702686   2.964670   1.090379   2.086582   2.653405
    12  H    4.030217   4.557931   3.155321   2.133233   2.827359
    13  H    3.197899   3.658943   2.711873   2.182606   3.481599
    14  H    2.619776   3.499895   3.301579   2.149262   2.715486
    15  H    4.159645   4.405507   3.200192   2.142422   1.097762
    16  H    2.792783   3.194428   3.226561   2.153256   1.097884
    17  H    3.724118   3.506850   2.634294   2.173656   1.093752
    18  C    3.924392   3.426916   1.505059   2.550939   3.919071
    19  H    4.921962   4.472487   2.147261   3.085438   4.364091
    20  H    4.253164   3.491234   2.162082   3.388368   4.639311
    21  H    3.729156   3.504021   2.178276   2.786251   4.278569
    22  C    2.397705   1.495954   3.106680   3.676918   4.570900
    23  H    3.283639   2.157186   3.080130   3.975643   4.832074
    24  H    2.789505   2.087789   4.184247   4.640333   5.409822
    25  H    2.642361   2.153743   3.109952   3.649180   4.809667
    26  C    2.365252   1.498303   3.178249   3.314113   3.269498
    27  H    2.856914   2.087440   4.218534   4.364261   4.281292
    28  H    3.232696   2.161298   2.988248   3.487758   3.507097
    29  H    2.533240   2.150541   3.405817   3.166155   2.656017
                    6          7          8          9         10
     6  Fe   0.000000
     7  Cl   2.174494   0.000000
     8  C    3.628511   3.971825   0.000000
     9  Cl   2.189742   3.694727   5.677689   0.000000
    10  Cl   2.194989   3.673665   3.662739   3.630324   0.000000
    11  H    5.371787   6.559725   3.481444   6.578691   5.536970
    12  H    4.604185   4.592192   1.098691   6.709420   4.505770
    13  H    3.435056   4.113600   1.089534   5.470349   2.856733
    14  H    3.027778   2.959926   1.096377   5.119584   3.573649
    15  H    5.558694   5.517084   2.752533   7.287228   6.243572
    16  H    4.332315   4.385974   2.798300   5.807203   5.529381
    17  H    5.536065   6.018453   3.477916   6.864727   6.372173
    18  C    4.883767   6.299467   3.093723   6.273275   4.176710
    19  H    5.842801   7.096182   3.541146   7.334498   4.963002
    20  H    5.231750   6.901390   4.066839   6.275759   4.520271
    21  H    4.251400   5.673746   2.792297   5.757941   3.207765
    22  C    3.347028   5.332009   4.256434   3.695431   3.633184
    23  H    4.423810   6.361492   4.805444   4.702028   4.527214
    24  H    3.371229   5.435613   5.114810   3.037717   3.896033
    25  H    3.076695   5.108608   3.900833   3.761211   2.744253
    26  C    4.238323   5.497981   4.403693   4.676211   5.415590
    27  H    4.475172   5.792518   5.337639   4.385415   5.841193
    28  H    5.095104   6.451356   4.781489   5.553719   5.960860
    29  H    4.452723   5.285553   4.246609   5.115998   5.828500
                   11         12         13         14         15
    11  H    0.000000
    12  H    4.032766   0.000000
    13  H    3.790826   1.769895   0.000000
    14  H    4.177251   1.753869   1.773608   0.000000
    15  H    3.404466   2.615060   3.792469   2.980263   0.000000
    16  H    3.446377   3.241244   3.766661   2.544029   1.756785
    17  H    2.327663   3.799575   4.334319   3.753589   1.771413
    18  C    2.204070   3.682647   2.725449   3.993798   4.504421
    19  H    2.671933   3.829558   3.194912   4.571341   4.732336
    20  H    2.470224   4.744110   3.662175   4.865359   5.347528
    21  H    3.101525   3.452556   2.081455   3.606952   4.831280
    22  C    3.394704   5.308486   4.022454   4.429740   5.586209
    23  H    3.080407   5.778340   4.598678   5.153368   5.843017
    24  H    4.422516   6.198891   4.864707   5.114017   6.451375
    25  H    3.682447   4.929215   3.409923   4.154752   5.717587
    26  C    2.931522   5.305064   4.798724   4.391026   4.358118
    27  H    3.962459   6.283894   5.669482   5.197886   5.355791
    28  H    2.412609   5.605738   5.133739   4.994306   4.550223
    29  H    3.170542   5.025577   4.865939   4.114274   3.679170
                   16         17         18         19         20
    16  H    0.000000
    17  H    1.787068   0.000000
    18  C    4.607269   4.130083   0.000000
    19  H    5.204998   4.542696   1.098646   0.000000
    20  H    5.268953   4.667551   1.094962   1.757818   0.000000
    21  H    4.802305   4.716557   1.092998   1.766113   1.769788
    22  C    4.597726   4.675527   3.173447   4.257309   2.845671
    23  H    5.039252   4.720719   3.050045   4.033878   2.419640
    24  H    5.264459   5.507487   4.244441   5.324157   3.846845
    25  H    4.905308   5.098210   2.771633   3.829616   2.559036
    26  C    3.101618   2.996458   4.233848   5.156120   4.210862
    27  H    3.949112   3.998652   5.137804   6.108031   4.975683
    28  H    3.649784   2.970680   3.980436   4.795886   3.804807
    29  H    2.303358   2.377978   4.698395   5.527756   4.885103
                   21         22         23         24         25
    21  H    0.000000
    22  C    3.162268   0.000000
    23  H    3.348010   1.090538   0.000000
    24  H    4.132818   1.100479   1.778318   0.000000
    25  H    2.434516   1.090219   1.795547   1.763982   0.000000
    26  C    4.618040   2.571166   2.718643   2.983473   3.475222
    27  H    5.448824   2.866567   3.040839   2.866756   3.885008
    28  H    4.591768   2.793284   2.501315   3.354674   3.701463
    29  H    5.077990   3.492810   3.730557   3.931229   4.266006
                   26         27         28         29
    26  C    0.000000
    27  H    1.100242   0.000000
    28  H    1.090963   1.769252   0.000000
    29  H    1.088404   1.771618   1.797915   0.000000
 Framework group  C1[X(C8H16Cl3FeO)]
 Deg. of freedom    81
                         Standard orientation:                         
 ---------------------------------------------------------------------
 Center     Atomic      Atomic             Coordinates (Angstroms)
 Number     Number       Type             X           Y           Z
 ---------------------------------------------------------------------
      1          8           0        0.236897    0.341319   -0.839353
      2          6           0        1.007722    1.313330   -0.655345
      3          6           0        3.114916    0.054951    0.469915
      4          6           0        2.570240   -0.972345   -0.212980
      5          6           0        2.930236   -1.242275   -1.648338
      6         26           0       -1.467195   -0.147857    0.027163
      7         17           0       -2.089645   -1.973132   -0.977502
      8          6           0        1.640557   -1.985998    0.386616
      9         17           0       -2.657850    1.634760   -0.419589
     10         17           0       -1.114217   -0.372379    2.181919
     11          1           0        3.840427    0.675685   -0.056629
     12          1           0        2.158108   -2.951802    0.467151
     13          1           0        1.273879   -1.717685    1.376889
     14          1           0        0.778129   -2.157507   -0.268247
     15          1           0        3.367592   -2.244879   -1.741004
     16          1           0        2.033091   -1.238085   -2.281159
     17          1           0        3.653462   -0.522992   -2.043142
     18          6           0        2.999175    0.313360    1.948100
     19          1           0        3.835175   -0.159680    2.481355
     20          1           0        3.051125    1.383389    2.174551
     21          1           0        2.073940   -0.077970    2.378733
     22          6           0        0.865323    2.196290    0.543814
     23          1           0        1.753140    2.807180    0.710750
     24          1           0        0.016794    2.863906    0.330880
     25          1           0        0.612369    1.626891    1.438452
     26          6           0        1.799221    1.820442   -1.822083
     27          1           0        1.192845    2.620592   -2.272194
     28          1           0        2.750762    2.257734   -1.516229
     29          1           0        1.945812    1.045191   -2.571830
 ---------------------------------------------------------------------
 Rotational constants (GHZ):           0.5683239           0.3261973           0.3074018
   427 basis functions,  1056 primitive gaussians,   461 cartesian basis functions
    77 alpha electrons       72 beta electrons
       nuclear repulsion energy      1627.4731052150 Hartrees.
 NAtoms=   29 NActive=   29 NUniq=   29 SFac= 1.00D+00 NAtFMM=   60 NAOKFM=F Big=F
 ExpMin= 1.40D-02 ExpMax= 4.32D+06 ExpMxC= 4.91D+03 IAcc=3 IRadAn=         5 AccDes= 0.00D+00
 Harris functional with IExCor= 1009 and IRadAn=       5 diagonalized for initial guess.
 HarFok:  IExCor= 1009 AccDes= 0.00D+00 IRadAn=         5 IDoV= 1 UseB2=F ITyADJ=14
 ICtDFT=  3500011 ScaDFX=  1.000000  1.000000  1.000000  1.000000
 FoFCou: FMM=F IPFlag=           0 FMFlag=      100000 FMFlg1=           0
         NFxFlg=           0 DoJE=T BraDBF=F KetDBF=T FulRan=T
         wScrn=  0.000000 ICntrl=       500 IOpCl=  0 I1Cent=   200000004 NGrid=           0
         NMat0=    1 NMatS0=      1 NMatT0=    0 NMatD0=    1 NMtDS0=    0 NMtDT0=    0
 Petite list used in FoFCou.
 Initial guess <Sx>= 0.0000 <Sy>= 0.0000 <Sz>= 2.5000 <S**2>= 8.7500 S= 2.5000
 EnCoef did   100 forward-backward iterations
 SCF Done:  E(UPBE1PBE) =  -3033.13414401     A.U. after   20 cycles
            NFock= 20  Conv=0.50D-08     -V/T= 2.0021
 <Sx>= 0.0000 <Sy>= 0.0000 <Sz>= 2.5000 <S**2>= 8.7629 S= 2.5021
 <L.S>= 0.000000000000E+00
 Annihilation of the first spin contaminant:
 S**2 before annihilation     8.7629,   after     8.7501
 1\1\GINC-HOLY7C06204\SP\UPBE1PBE\Jul-CC-pVDZ\C8H16Cl3Fe1O1(6)\EKWAN\12
 -Feb-2020\0\\#t pop=none jul-cc-pvdz upbe1pbe\\theory_abbreviation pbe
 0\\0,6\O,0,0.236897,0.341319,-0.839353\C,0,1.007722,1.31333,-0.655345\
 C,0,3.114916,0.054951,0.469915\C,0,2.57024,-0.972345,-0.21298\C,0,2.93
 0236,-1.242275,-1.648338\Fe,0,-1.467195,-0.147857,0.027163\Cl,0,-2.089
 645,-1.973132,-0.977502\C,0,1.640557,-1.985998,0.386616\Cl,0,-2.65785,
 1.63476,-0.419589\Cl,0,-1.114217,-0.372379,2.181919\H,0,3.840427,0.675
 685,-0.056629\H,0,2.158108,-2.951802,0.467151\H,0,1.273879,-1.717685,1
 .376889\H,0,0.778129,-2.157507,-0.268247\H,0,3.367592,-2.244879,-1.741
 004\H,0,2.033091,-1.238085,-2.281159\H,0,3.653462,-0.522992,-2.043142\
 C,0,2.999175,0.31336,1.9481\H,0,3.835175,-0.15968,2.481355\H,0,3.05112
 5,1.383389,2.174551\H,0,2.07394,-0.07797,2.378733\C,0,0.865323,2.19629
 ,0.543814\H,0,1.75314,2.80718,0.71075\H,0,0.016794,2.863906,0.33088\H,
 0,0.612369,1.626891,1.438452\C,0,1.799221,1.820442,-1.822083\H,0,1.192
 845,2.620592,-2.272194\H,0,2.750762,2.257734,-1.516229\H,0,1.945812,1.
 045191,-2.57183\\Version=ES64L-G16RevA.03\HF=-3033.134144\S2=8.762866\
 S2-1=0.\S2A=8.750051\RMSD=4.999e-09\PG=C01 [X(C8H16Cl3Fe1O1)]\\@


 IF YOU GIVE EVERYONE A PIECE OF YOUR MIND,
 PRETTY SOON IT WILL BE ALL GONE.
 Job cpu time:       0 days  1 hours 19 minutes 11.7 seconds.
 Elapsed time:       0 days  0 hours 19 minutes 51.8 seconds.
 File lengths (MBytes):  RWF=    173 Int=      0 D2E=      0 Chk=     13 Scr=      1
 Normal termination of Gaussian 16 at Wed Feb 12 14:10:35 2020.
 Initial command:
 /n/sw/g16_nehalem/g16/l1.exe "/scratch/Gau-47808.inp" -scrdir="/scratch/"
 Entering Link 1 = /n/sw/g16_nehalem/g16/l1.exe PID=     49206.
  
 Copyright (c) 1988,1990,1992,1993,1995,1998,2003,2009,2016,
            Gaussian, Inc.  All Rights Reserved.
  
 This is part of the Gaussian(R) 16 program.  It is based on
 the Gaussian(R) 09 system (copyright 2009, Gaussian, Inc.),
 the Gaussian(R) 03 system (copyright 2003, Gaussian, Inc.),
 the Gaussian(R) 98 system (copyright 1998, Gaussian, Inc.),
 the Gaussian(R) 94 system (copyright 1995, Gaussian, Inc.),
 the Gaussian 92(TM) system (copyright 1992, Gaussian, Inc.),
 the Gaussian 90(TM) system (copyright 1990, Gaussian, Inc.),
 the Gaussian 88(TM) system (copyright 1988, Gaussian, Inc.),
 the Gaussian 86(TM) system (copyright 1986, Carnegie Mellon
 University), and the Gaussian 82(TM) system (copyright 1983,
 Carnegie Mellon University). Gaussian is a federally registered
 trademark of Gaussian, Inc.
  
 This software contains proprietary and confidential information,
 including trade secrets, belonging to Gaussian, Inc.
  
 This software is provided under written license and may be
 used, copied, transmitted, or stored only in accord with that
 written license.
  
 The following legend is applicable only to US Government
 contracts under FAR:
  
                    RESTRICTED RIGHTS LEGEND
  
 Use, reproduction and disclosure by the US Government is
 subject to restrictions as set forth in subparagraphs (a)
 and (c) of the Commercial Computer Software - Restricted
 Rights clause in FAR 52.227-19.
  
 Gaussian, Inc.
 340 Quinnipiac St., Bldg. 40, Wallingford CT 06492
  
  
 ---------------------------------------------------------------
 Warning -- This program may not be used in any manner that
 competes with the business of Gaussian, Inc. or will provide
 assistance to any competitor of Gaussian, Inc.  The licensee
 of this program is prohibited from giving any competitor of
 Gaussian, Inc. access to this program.  By using this program,
 the user acknowledges that Gaussian, Inc. is engaged in the
 business of creating and licensing software in the field of
 computational chemistry and represents and warrants to the
 licensee that it is not a competitor of Gaussian, Inc. and that
 it will not use this program in any manner prohibited above.
 ---------------------------------------------------------------
  

 Cite this work as:
 Gaussian 16, Revision A.03,
 M. J. Frisch, G. W. Trucks, H. B. Schlegel, G. E. Scuseria, 
 M. A. Robb, J. R. Cheeseman, G. Scalmani, V. Barone, 
 G. A. Petersson, H. Nakatsuji, X. Li, M. Caricato, A. V. Marenich, 
 J. Bloino, B. G. Janesko, R. Gomperts, B. Mennucci, H. P. Hratchian, 
 J. V. Ortiz, A. F. Izmaylov, J. L. Sonnenberg, D. Williams-Young, 
 F. Ding, F. Lipparini, F. Egidi, J. Goings, B. Peng, A. Petrone, 
 T. Henderson, D. Ranasinghe, V. G. Zakrzewski, J. Gao, N. Rega, 
 G. Zheng, W. Liang, M. Hada, M. Ehara, K. Toyota, R. Fukuda, 
 J. Hasegawa, M. Ishida, T. Nakajima, Y. Honda, O. Kitao, H. Nakai, 
 T. Vreven, K. Throssell, J. A. Montgomery, Jr., J. E. Peralta, 
 F. Ogliaro, M. J. Bearpark, J. J. Heyd, E. N. Brothers, K. N. Kudin, 
 V. N. Staroverov, T. A. Keith, R. Kobayashi, J. Normand, 
 K. Raghavachari, A. P. Rendell, J. C. Burant, S. S. Iyengar, 
 J. Tomasi, M. Cossi, J. M. Millam, M. Klene, C. Adamo, R. Cammi, 
 J. W. Ochterski, R. L. Martin, K. Morokuma, O. Farkas, 
 J. B. Foresman, and D. J. Fox, Gaussian, Inc., Wallingford CT, 2016.
 
 ******************************************
 Gaussian 16:  ES64L-G16RevA.03 25-Dec-2016
                12-Feb-2020 
 ******************************************
 %chk=checkpoint.chk
 %mem=3GB
 %nprocshared=4
 Will use up to    4 processors via shared memory.
 ---------------------------------------------------------------------
 #t pop=none jul-cc-pvdz guess=read upbe1pbe empiricaldispersion=gd3bj
 ---------------------------------------------------------------------
 -----------------------------
 theory_abbreviation pbe0_d3bj
 -----------------------------
 Symbolic Z-matrix:
 Charge =  0 Multiplicity = 6
 O                     0.2369    0.34132  -0.83935 
 C                     1.00772   1.31333  -0.65535 
 C                     3.11492   0.05495   0.46992 
 C                     2.57024  -0.97235  -0.21298 
 C                     2.93024  -1.24228  -1.64834 
 Fe                   -1.4672   -0.14786   0.02716 
 Cl                   -2.08964  -1.97313  -0.9775 
 C                     1.64056  -1.986     0.38662 
 Cl                   -2.65785   1.63476  -0.41959 
 Cl                   -1.11422  -0.37238   2.18192 
 H                     3.84043   0.67569  -0.05663 
 H                     2.15811  -2.9518    0.46715 
 H                     1.27388  -1.71769   1.37689 
 H                     0.77813  -2.15751  -0.26825 
 H                     3.36759  -2.24488  -1.741 
 H                     2.03309  -1.23809  -2.28116 
 H                     3.65346  -0.52299  -2.04314 
 C                     2.99918   0.31336   1.9481 
 H                     3.83518  -0.15968   2.48136 
 H                     3.05112   1.38339   2.17455 
 H                     2.07394  -0.07797   2.37873 
 C                     0.86532   2.19629   0.54381 
 H                     1.75314   2.80718   0.71075 
 H                     0.01679   2.86391   0.33088 
 H                     0.61237   1.62689   1.43845 
 C                     1.79922   1.82044  -1.82208 
 H                     1.19285   2.62059  -2.27219 
 H                     2.75076   2.25773  -1.51623 
 H                     1.94581   1.04519  -2.57183 
 
                    Distance matrix (angstroms):
                    1          2          3          4          5
     1  O    0.000000
     2  C    1.254127   0.000000
     3  C    3.174773   2.699999   0.000000
     4  C    2.750008   2.803829   1.348464   0.000000
     5  C    3.227430   3.348613   2.490762   1.504231   0.000000
     6  Fe   1.973340   2.953997   4.607917   4.127751   4.831403
     7  Cl   3.284595   4.527505   5.770233   4.827069   5.116970
     8  C    2.981554   3.517347   2.519156   1.500439   2.521395
     9  Cl   3.198242   3.687183   6.050772   5.845734   6.404206
    10  Cl   3.385699   3.923558   4.582481   4.435169   5.637835
    11  H    3.702686   2.964670   1.090379   2.086582   2.653405
    12  H    4.030217   4.557931   3.155321   2.133233   2.827359
    13  H    3.197899   3.658943   2.711873   2.182606   3.481599
    14  H    2.619776   3.499895   3.301579   2.149262   2.715486
    15  H    4.159645   4.405507   3.200192   2.142422   1.097762
    16  H    2.792783   3.194428   3.226561   2.153256   1.097884
    17  H    3.724118   3.506850   2.634294   2.173656   1.093752
    18  C    3.924392   3.426916   1.505059   2.550939   3.919071
    19  H    4.921962   4.472487   2.147261   3.085438   4.364091
    20  H    4.253164   3.491234   2.162082   3.388368   4.639311
    21  H    3.729156   3.504021   2.178276   2.786251   4.278569
    22  C    2.397705   1.495954   3.106680   3.676918   4.570900
    23  H    3.283639   2.157186   3.080130   3.975643   4.832074
    24  H    2.789505   2.087789   4.184247   4.640333   5.409822
    25  H    2.642361   2.153743   3.109952   3.649180   4.809667
    26  C    2.365252   1.498303   3.178249   3.314113   3.269498
    27  H    2.856914   2.087440   4.218534   4.364261   4.281292
    28  H    3.232696   2.161298   2.988248   3.487758   3.507097
    29  H    2.533240   2.150541   3.405817   3.166155   2.656017
                    6          7          8          9         10
     6  Fe   0.000000
     7  Cl   2.174494   0.000000
     8  C    3.628511   3.971825   0.000000
     9  Cl   2.189742   3.694727   5.677689   0.000000
    10  Cl   2.194989   3.673665   3.662739   3.630324   0.000000
    11  H    5.371787   6.559725   3.481444   6.578691   5.536970
    12  H    4.604185   4.592192   1.098691   6.709420   4.505770
    13  H    3.435056   4.113600   1.089534   5.470349   2.856733
    14  H    3.027778   2.959926   1.096377   5.119584   3.573649
    15  H    5.558694   5.517084   2.752533   7.287228   6.243572
    16  H    4.332315   4.385974   2.798300   5.807203   5.529381
    17  H    5.536065   6.018453   3.477916   6.864727   6.372173
    18  C    4.883767   6.299467   3.093723   6.273275   4.176710
    19  H    5.842801   7.096182   3.541146   7.334498   4.963002
    20  H    5.231750   6.901390   4.066839   6.275759   4.520271
    21  H    4.251400   5.673746   2.792297   5.757941   3.207765
    22  C    3.347028   5.332009   4.256434   3.695431   3.633184
    23  H    4.423810   6.361492   4.805444   4.702028   4.527214
    24  H    3.371229   5.435613   5.114810   3.037717   3.896033
    25  H    3.076695   5.108608   3.900833   3.761211   2.744253
    26  C    4.238323   5.497981   4.403693   4.676211   5.415590
    27  H    4.475172   5.792518   5.337639   4.385415   5.841193
    28  H    5.095104   6.451356   4.781489   5.553719   5.960860
    29  H    4.452723   5.285553   4.246609   5.115998   5.828500
                   11         12         13         14         15
    11  H    0.000000
    12  H    4.032766   0.000000
    13  H    3.790826   1.769895   0.000000
    14  H    4.177251   1.753869   1.773608   0.000000
    15  H    3.404466   2.615060   3.792469   2.980263   0.000000
    16  H    3.446377   3.241244   3.766661   2.544029   1.756785
    17  H    2.327663   3.799575   4.334319   3.753589   1.771413
    18  C    2.204070   3.682647   2.725449   3.993798   4.504421
    19  H    2.671933   3.829558   3.194912   4.571341   4.732336
    20  H    2.470224   4.744110   3.662175   4.865359   5.347528
    21  H    3.101525   3.452556   2.081455   3.606952   4.831280
    22  C    3.394704   5.308486   4.022454   4.429740   5.586209
    23  H    3.080407   5.778340   4.598678   5.153368   5.843017
    24  H    4.422516   6.198891   4.864707   5.114017   6.451375
    25  H    3.682447   4.929215   3.409923   4.154752   5.717587
    26  C    2.931522   5.305064   4.798724   4.391026   4.358118
    27  H    3.962459   6.283894   5.669482   5.197886   5.355791
    28  H    2.412609   5.605738   5.133739   4.994306   4.550223
    29  H    3.170542   5.025577   4.865939   4.114274   3.679170
                   16         17         18         19         20
    16  H    0.000000
    17  H    1.787068   0.000000
    18  C    4.607269   4.130083   0.000000
    19  H    5.204998   4.542696   1.098646   0.000000
    20  H    5.268953   4.667551   1.094962   1.757818   0.000000
    21  H    4.802305   4.716557   1.092998   1.766113   1.769788
    22  C    4.597726   4.675527   3.173447   4.257309   2.845671
    23  H    5.039252   4.720719   3.050045   4.033878   2.419640
    24  H    5.264459   5.507487   4.244441   5.324157   3.846845
    25  H    4.905308   5.098210   2.771633   3.829616   2.559036
    26  C    3.101618   2.996458   4.233848   5.156120   4.210862
    27  H    3.949112   3.998652   5.137804   6.108031   4.975683
    28  H    3.649784   2.970680   3.980436   4.795886   3.804807
    29  H    2.303358   2.377978   4.698395   5.527756   4.885103
                   21         22         23         24         25
    21  H    0.000000
    22  C    3.162268   0.000000
    23  H    3.348010   1.090538   0.000000
    24  H    4.132818   1.100479   1.778318   0.000000
    25  H    2.434516   1.090219   1.795547   1.763982   0.000000
    26  C    4.618040   2.571166   2.718643   2.983473   3.475222
    27  H    5.448824   2.866567   3.040839   2.866756   3.885008
    28  H    4.591768   2.793284   2.501315   3.354674   3.701463
    29  H    5.077990   3.492810   3.730557   3.931229   4.266006
                   26         27         28         29
    26  C    0.000000
    27  H    1.100242   0.000000
    28  H    1.090963   1.769252   0.000000
    29  H    1.088404   1.771618   1.797915   0.000000
 Framework group  C1[X(C8H16Cl3FeO)]
 Deg. of freedom    81
                         Standard orientation:                         
 ---------------------------------------------------------------------
 Center     Atomic      Atomic             Coordinates (Angstroms)
 Number     Number       Type             X           Y           Z
 ---------------------------------------------------------------------
      1          8           0        0.236897    0.341319   -0.839353
      2          6           0        1.007722    1.313330   -0.655345
      3          6           0        3.114916    0.054951    0.469915
      4          6           0        2.570240   -0.972345   -0.212980
      5          6           0        2.930236   -1.242275   -1.648338
      6         26           0       -1.467195   -0.147857    0.027163
      7         17           0       -2.089645   -1.973132   -0.977502
      8          6           0        1.640557   -1.985998    0.386616
      9         17           0       -2.657850    1.634760   -0.419589
     10         17           0       -1.114217   -0.372379    2.181919
     11          1           0        3.840427    0.675685   -0.056629
     12          1           0        2.158108   -2.951802    0.467151
     13          1           0        1.273879   -1.717685    1.376889
     14          1           0        0.778129   -2.157507   -0.268247
     15          1           0        3.367592   -2.244879   -1.741004
     16          1           0        2.033091   -1.238085   -2.281159
     17          1           0        3.653462   -0.522992   -2.043142
     18          6           0        2.999175    0.313360    1.948100
     19          1           0        3.835175   -0.159680    2.481355
     20          1           0        3.051125    1.383389    2.174551
     21          1           0        2.073940   -0.077970    2.378733
     22          6           0        0.865323    2.196290    0.543814
     23          1           0        1.753140    2.807180    0.710750
     24          1           0        0.016794    2.863906    0.330880
     25          1           0        0.612369    1.626891    1.438452
     26          6           0        1.799221    1.820442   -1.822083
     27          1           0        1.192845    2.620592   -2.272194
     28          1           0        2.750762    2.257734   -1.516229
     29          1           0        1.945812    1.045191   -2.571830
 ---------------------------------------------------------------------
 Rotational constants (GHZ):           0.5683239           0.3261973           0.3074018
   427 basis functions,  1056 primitive gaussians,   461 cartesian basis functions
    77 alpha electrons       72 beta electrons
       nuclear repulsion energy      1627.4731052150 Hartrees.
 NAtoms=   29 NActive=   29 NUniq=   29 SFac= 1.00D+00 NAtFMM=   60 NAOKFM=F Big=F
 Nuclear repulsion after empirical dispersion term =     1627.4363753434 Hartrees.
 Initial guess from the checkpoint file:  "checkpoint.chk"
 B after Tr=     0.000000    0.000000    0.000000
         Rot=    1.000000    0.000000    0.000000    0.000000 Ang=   0.00 deg.
 Initial guess <Sx>= 0.0000 <Sy>= 0.0000 <Sz>= 2.5000 <S**2>= 8.7629 S= 2.5021
 SCF Done:  E(UPBE1PBE) =  -3033.17087389     A.U. after    1 cycles
            NFock=  1  Conv=0.29D-08     -V/T= 2.0021
 <Sx>= 0.0000 <Sy>= 0.0000 <Sz>= 2.5000 <S**2>= 8.7629 S= 2.5021
 <L.S>= 0.000000000000E+00
 Annihilation of the first spin contaminant:
 S**2 before annihilation     8.7629,   after     8.7501
 1\1\GINC-HOLY7C06204\SP\UPBE1PBE\Jul-CC-pVDZ\C8H16Cl3Fe1O1(6)\EKWAN\12
 -Feb-2020\0\\#t pop=none jul-cc-pvdz guess=read upbe1pbe empiricaldisp
 ersion=gd3bj\\theory_abbreviation pbe0_d3bj\\0,6\O,0,0.236897,0.341319
 ,-0.839353\C,0,1.007722,1.31333,-0.655345\C,0,3.114916,0.054951,0.4699
 15\C,0,2.57024,-0.972345,-0.21298\C,0,2.930236,-1.242275,-1.648338\Fe,
 0,-1.467195,-0.147857,0.027163\Cl,0,-2.089645,-1.973132,-0.977502\C,0,
 1.640557,-1.985998,0.386616\Cl,0,-2.65785,1.63476,-0.419589\Cl,0,-1.11
 4217,-0.372379,2.181919\H,0,3.840427,0.675685,-0.056629\H,0,2.158108,-
 2.951802,0.467151\H,0,1.273879,-1.717685,1.376889\H,0,0.778129,-2.1575
 07,-0.268247\H,0,3.367592,-2.244879,-1.741004\H,0,2.033091,-1.238085,-
 2.281159\H,0,3.653462,-0.522992,-2.043142\C,0,2.999175,0.31336,1.9481\
 H,0,3.835175,-0.15968,2.481355\H,0,3.051125,1.383389,2.174551\H,0,2.07
 394,-0.07797,2.378733\C,0,0.865323,2.19629,0.543814\H,0,1.75314,2.8071
 8,0.71075\H,0,0.016794,2.863906,0.33088\H,0,0.612369,1.626891,1.438452
 \C,0,1.799221,1.820442,-1.822083\H,0,1.192845,2.620592,-2.272194\H,0,2
 .750762,2.257734,-1.516229\H,0,1.945812,1.045191,-2.57183\\Version=ES6
 4L-G16RevA.03\HF=-3033.1708739\S2=8.762866\S2-1=0.\S2A=8.750051\RMSD=2
 .874e-09\PG=C01 [X(C8H16Cl3Fe1O1)]\\@


 CHINESE FORTUNE COOKIE OF JAN 1 1967 SAY....
 ALL THINGS ARE DIFFICULT BEFORE THEY ARE EASY.
 WE LEARN SO LITTLE AND FORGET SO MUCH.
 YOU WILL OVERCOME OBSTACLES TO ACHIEVE SUCCESS.
 AH SO.
 Job cpu time:       0 days  0 hours  4 minutes 19.4 seconds.
 Elapsed time:       0 days  0 hours  1 minutes  5.7 seconds.
 File lengths (MBytes):  RWF=    170 Int=      0 D2E=      0 Chk=     13 Scr=      1
 Normal termination of Gaussian 16 at Wed Feb 12 14:11:41 2020.
 Initial command:
 /n/sw/g16_nehalem/g16/l1.exe "/scratch/Gau-47808.inp" -scrdir="/scratch/"
 Entering Link 1 = /n/sw/g16_nehalem/g16/l1.exe PID=     49289.
  
 Copyright (c) 1988,1990,1992,1993,1995,1998,2003,2009,2016,
            Gaussian, Inc.  All Rights Reserved.
  
 This is part of the Gaussian(R) 16 program.  It is based on
 the Gaussian(R) 09 system (copyright 2009, Gaussian, Inc.),
 the Gaussian(R) 03 system (copyright 2003, Gaussian, Inc.),
 the Gaussian(R) 98 system (copyright 1998, Gaussian, Inc.),
 the Gaussian(R) 94 system (copyright 1995, Gaussian, Inc.),
 the Gaussian 92(TM) system (copyright 1992, Gaussian, Inc.),
 the Gaussian 90(TM) system (copyright 1990, Gaussian, Inc.),
 the Gaussian 88(TM) system (copyright 1988, Gaussian, Inc.),
 the Gaussian 86(TM) system (copyright 1986, Carnegie Mellon
 University), and the Gaussian 82(TM) system (copyright 1983,
 Carnegie Mellon University). Gaussian is a federally registered
 trademark of Gaussian, Inc.
  
 This software contains proprietary and confidential information,
 including trade secrets, belonging to Gaussian, Inc.
  
 This software is provided under written license and may be
 used, copied, transmitted, or stored only in accord with that
 written license.
  
 The following legend is applicable only to US Government
 contracts under FAR:
  
                    RESTRICTED RIGHTS LEGEND
  
 Use, reproduction and disclosure by the US Government is
 subject to restrictions as set forth in subparagraphs (a)
 and (c) of the Commercial Computer Software - Restricted
 Rights clause in FAR 52.227-19.
  
 Gaussian, Inc.
 340 Quinnipiac St., Bldg. 40, Wallingford CT 06492
  
  
 ---------------------------------------------------------------
 Warning -- This program may not be used in any manner that
 competes with the business of Gaussian, Inc. or will provide
 assistance to any competitor of Gaussian, Inc.  The licensee
 of this program is prohibited from giving any competitor of
 Gaussian, Inc. access to this program.  By using this program,
 the user acknowledges that Gaussian, Inc. is engaged in the
 business of creating and licensing software in the field of
 computational chemistry and represents and warrants to the
 licensee that it is not a competitor of Gaussian, Inc. and that
 it will not use this program in any manner prohibited above.
 ---------------------------------------------------------------
  

 Cite this work as:
 Gaussian 16, Revision A.03,
 M. J. Frisch, G. W. Trucks, H. B. Schlegel, G. E. Scuseria, 
 M. A. Robb, J. R. Cheeseman, G. Scalmani, V. Barone, 
 G. A. Petersson, H. Nakatsuji, X. Li, M. Caricato, A. V. Marenich, 
 J. Bloino, B. G. Janesko, R. Gomperts, B. Mennucci, H. P. Hratchian, 
 J. V. Ortiz, A. F. Izmaylov, J. L. Sonnenberg, D. Williams-Young, 
 F. Ding, F. Lipparini, F. Egidi, J. Goings, B. Peng, A. Petrone, 
 T. Henderson, D. Ranasinghe, V. G. Zakrzewski, J. Gao, N. Rega, 
 G. Zheng, W. Liang, M. Hada, M. Ehara, K. Toyota, R. Fukuda, 
 J. Hasegawa, M. Ishida, T. Nakajima, Y. Honda, O. Kitao, H. Nakai, 
 T. Vreven, K. Throssell, J. A. Montgomery, Jr., J. E. Peralta, 
 F. Ogliaro, M. J. Bearpark, J. J. Heyd, E. N. Brothers, K. N. Kudin, 
 V. N. Staroverov, T. A. Keith, R. Kobayashi, J. Normand, 
 K. Raghavachari, A. P. Rendell, J. C. Burant, S. S. Iyengar, 
 J. Tomasi, M. Cossi, J. M. Millam, M. Klene, C. Adamo, R. Cammi, 
 J. W. Ochterski, R. L. Martin, K. Morokuma, O. Farkas, 
 J. B. Foresman, and D. J. Fox, Gaussian, Inc., Wallingford CT, 2016.
 
 ******************************************
 Gaussian 16:  ES64L-G16RevA.03 25-Dec-2016
                12-Feb-2020 
 ******************************************
 %chk=checkpoint.chk
 %mem=3GB
 %nprocshared=4
 Will use up to    4 processors via shared memory.
 -----------------------------------------
 #t pop=none jul-cc-pvdz guess=read ub3lyp
 -----------------------------------------
 -------------------------
 theory_abbreviation b3lyp
 -------------------------
 Symbolic Z-matrix:
 Charge =  0 Multiplicity = 6
 O                     0.2369    0.34132  -0.83935 
 C                     1.00772   1.31333  -0.65535 
 C                     3.11492   0.05495   0.46992 
 C                     2.57024  -0.97235  -0.21298 
 C                     2.93024  -1.24228  -1.64834 
 Fe                   -1.4672   -0.14786   0.02716 
 Cl                   -2.08964  -1.97313  -0.9775 
 C                     1.64056  -1.986     0.38662 
 Cl                   -2.65785   1.63476  -0.41959 
 Cl                   -1.11422  -0.37238   2.18192 
 H                     3.84043   0.67569  -0.05663 
 H                     2.15811  -2.9518    0.46715 
 H                     1.27388  -1.71769   1.37689 
 H                     0.77813  -2.15751  -0.26825 
 H                     3.36759  -2.24488  -1.741 
 H                     2.03309  -1.23809  -2.28116 
 H                     3.65346  -0.52299  -2.04314 
 C                     2.99918   0.31336   1.9481 
 H                     3.83518  -0.15968   2.48136 
 H                     3.05112   1.38339   2.17455 
 H                     2.07394  -0.07797   2.37873 
 C                     0.86532   2.19629   0.54381 
 H                     1.75314   2.80718   0.71075 
 H                     0.01679   2.86391   0.33088 
 H                     0.61237   1.62689   1.43845 
 C                     1.79922   1.82044  -1.82208 
 H                     1.19285   2.62059  -2.27219 
 H                     2.75076   2.25773  -1.51623 
 H                     1.94581   1.04519  -2.57183 
 
                    Distance matrix (angstroms):
                    1          2          3          4          5
     1  O    0.000000
     2  C    1.254127   0.000000
     3  C    3.174773   2.699999   0.000000
     4  C    2.750008   2.803829   1.348464   0.000000
     5  C    3.227430   3.348613   2.490762   1.504231   0.000000
     6  Fe   1.973340   2.953997   4.607917   4.127751   4.831403
     7  Cl   3.284595   4.527505   5.770233   4.827069   5.116970
     8  C    2.981554   3.517347   2.519156   1.500439   2.521395
     9  Cl   3.198242   3.687183   6.050772   5.845734   6.404206
    10  Cl   3.385699   3.923558   4.582481   4.435169   5.637835
    11  H    3.702686   2.964670   1.090379   2.086582   2.653405
    12  H    4.030217   4.557931   3.155321   2.133233   2.827359
    13  H    3.197899   3.658943   2.711873   2.182606   3.481599
    14  H    2.619776   3.499895   3.301579   2.149262   2.715486
    15  H    4.159645   4.405507   3.200192   2.142422   1.097762
    16  H    2.792783   3.194428   3.226561   2.153256   1.097884
    17  H    3.724118   3.506850   2.634294   2.173656   1.093752
    18  C    3.924392   3.426916   1.505059   2.550939   3.919071
    19  H    4.921962   4.472487   2.147261   3.085438   4.364091
    20  H    4.253164   3.491234   2.162082   3.388368   4.639311
    21  H    3.729156   3.504021   2.178276   2.786251   4.278569
    22  C    2.397705   1.495954   3.106680   3.676918   4.570900
    23  H    3.283639   2.157186   3.080130   3.975643   4.832074
    24  H    2.789505   2.087789   4.184247   4.640333   5.409822
    25  H    2.642361   2.153743   3.109952   3.649180   4.809667
    26  C    2.365252   1.498303   3.178249   3.314113   3.269498
    27  H    2.856914   2.087440   4.218534   4.364261   4.281292
    28  H    3.232696   2.161298   2.988248   3.487758   3.507097
    29  H    2.533240   2.150541   3.405817   3.166155   2.656017
                    6          7          8          9         10
     6  Fe   0.000000
     7  Cl   2.174494   0.000000
     8  C    3.628511   3.971825   0.000000
     9  Cl   2.189742   3.694727   5.677689   0.000000
    10  Cl   2.194989   3.673665   3.662739   3.630324   0.000000
    11  H    5.371787   6.559725   3.481444   6.578691   5.536970
    12  H    4.604185   4.592192   1.098691   6.709420   4.505770
    13  H    3.435056   4.113600   1.089534   5.470349   2.856733
    14  H    3.027778   2.959926   1.096377   5.119584   3.573649
    15  H    5.558694   5.517084   2.752533   7.287228   6.243572
    16  H    4.332315   4.385974   2.798300   5.807203   5.529381
    17  H    5.536065   6.018453   3.477916   6.864727   6.372173
    18  C    4.883767   6.299467   3.093723   6.273275   4.176710
    19  H    5.842801   7.096182   3.541146   7.334498   4.963002
    20  H    5.231750   6.901390   4.066839   6.275759   4.520271
    21  H    4.251400   5.673746   2.792297   5.757941   3.207765
    22  C    3.347028   5.332009   4.256434   3.695431   3.633184
    23  H    4.423810   6.361492   4.805444   4.702028   4.527214
    24  H    3.371229   5.435613   5.114810   3.037717   3.896033
    25  H    3.076695   5.108608   3.900833   3.761211   2.744253
    26  C    4.238323   5.497981   4.403693   4.676211   5.415590
    27  H    4.475172   5.792518   5.337639   4.385415   5.841193
    28  H    5.095104   6.451356   4.781489   5.553719   5.960860
    29  H    4.452723   5.285553   4.246609   5.115998   5.828500
                   11         12         13         14         15
    11  H    0.000000
    12  H    4.032766   0.000000
    13  H    3.790826   1.769895   0.000000
    14  H    4.177251   1.753869   1.773608   0.000000
    15  H    3.404466   2.615060   3.792469   2.980263   0.000000
    16  H    3.446377   3.241244   3.766661   2.544029   1.756785
    17  H    2.327663   3.799575   4.334319   3.753589   1.771413
    18  C    2.204070   3.682647   2.725449   3.993798   4.504421
    19  H    2.671933   3.829558   3.194912   4.571341   4.732336
    20  H    2.470224   4.744110   3.662175   4.865359   5.347528
    21  H    3.101525   3.452556   2.081455   3.606952   4.831280
    22  C    3.394704   5.308486   4.022454   4.429740   5.586209
    23  H    3.080407   5.778340   4.598678   5.153368   5.843017
    24  H    4.422516   6.198891   4.864707   5.114017   6.451375
    25  H    3.682447   4.929215   3.409923   4.154752   5.717587
    26  C    2.931522   5.305064   4.798724   4.391026   4.358118
    27  H    3.962459   6.283894   5.669482   5.197886   5.355791
    28  H    2.412609   5.605738   5.133739   4.994306   4.550223
    29  H    3.170542   5.025577   4.865939   4.114274   3.679170
                   16         17         18         19         20
    16  H    0.000000
    17  H    1.787068   0.000000
    18  C    4.607269   4.130083   0.000000
    19  H    5.204998   4.542696   1.098646   0.000000
    20  H    5.268953   4.667551   1.094962   1.757818   0.000000
    21  H    4.802305   4.716557   1.092998   1.766113   1.769788
    22  C    4.597726   4.675527   3.173447   4.257309   2.845671
    23  H    5.039252   4.720719   3.050045   4.033878   2.419640
    24  H    5.264459   5.507487   4.244441   5.324157   3.846845
    25  H    4.905308   5.098210   2.771633   3.829616   2.559036
    26  C    3.101618   2.996458   4.233848   5.156120   4.210862
    27  H    3.949112   3.998652   5.137804   6.108031   4.975683
    28  H    3.649784   2.970680   3.980436   4.795886   3.804807
    29  H    2.303358   2.377978   4.698395   5.527756   4.885103
                   21         22         23         24         25
    21  H    0.000000
    22  C    3.162268   0.000000
    23  H    3.348010   1.090538   0.000000
    24  H    4.132818   1.100479   1.778318   0.000000
    25  H    2.434516   1.090219   1.795547   1.763982   0.000000
    26  C    4.618040   2.571166   2.718643   2.983473   3.475222
    27  H    5.448824   2.866567   3.040839   2.866756   3.885008
    28  H    4.591768   2.793284   2.501315   3.354674   3.701463
    29  H    5.077990   3.492810   3.730557   3.931229   4.266006
                   26         27         28         29
    26  C    0.000000
    27  H    1.100242   0.000000
    28  H    1.090963   1.769252   0.000000
    29  H    1.088404   1.771618   1.797915   0.000000
 Framework group  C1[X(C8H16Cl3FeO)]
 Deg. of freedom    81
                         Standard orientation:                         
 ---------------------------------------------------------------------
 Center     Atomic      Atomic             Coordinates (Angstroms)
 Number     Number       Type             X           Y           Z
 ---------------------------------------------------------------------
      1          8           0        0.236897    0.341319   -0.839353
      2          6           0        1.007722    1.313330   -0.655345
      3          6           0        3.114916    0.054951    0.469915
      4          6           0        2.570240   -0.972345   -0.212980
      5          6           0        2.930236   -1.242275   -1.648338
      6         26           0       -1.467195   -0.147857    0.027163
      7         17           0       -2.089645   -1.973132   -0.977502
      8          6           0        1.640557   -1.985998    0.386616
      9         17           0       -2.657850    1.634760   -0.419589
     10         17           0       -1.114217   -0.372379    2.181919
     11          1           0        3.840427    0.675685   -0.056629
     12          1           0        2.158108   -2.951802    0.467151
     13          1           0        1.273879   -1.717685    1.376889
     14          1           0        0.778129   -2.157507   -0.268247
     15          1           0        3.367592   -2.244879   -1.741004
     16          1           0        2.033091   -1.238085   -2.281159
     17          1           0        3.653462   -0.522992   -2.043142
     18          6           0        2.999175    0.313360    1.948100
     19          1           0        3.835175   -0.159680    2.481355
     20          1           0        3.051125    1.383389    2.174551
     21          1           0        2.073940   -0.077970    2.378733
     22          6           0        0.865323    2.196290    0.543814
     23          1           0        1.753140    2.807180    0.710750
     24          1           0        0.016794    2.863906    0.330880
     25          1           0        0.612369    1.626891    1.438452
     26          6           0        1.799221    1.820442   -1.822083
     27          1           0        1.192845    2.620592   -2.272194
     28          1           0        2.750762    2.257734   -1.516229
     29          1           0        1.945812    1.045191   -2.571830
 ---------------------------------------------------------------------
 Rotational constants (GHZ):           0.5683239           0.3261973           0.3074018
   427 basis functions,  1056 primitive gaussians,   461 cartesian basis functions
    77 alpha electrons       72 beta electrons
       nuclear repulsion energy      1627.4731052150 Hartrees.
 NAtoms=   29 NActive=   29 NUniq=   29 SFac= 1.00D+00 NAtFMM=   60 NAOKFM=F Big=F
 Initial guess from the checkpoint file:  "checkpoint.chk"
 B after Tr=     0.000000    0.000000    0.000000
         Rot=    1.000000    0.000000    0.000000    0.000000 Ang=   0.00 deg.
 Initial guess <Sx>= 0.0000 <Sy>= 0.0000 <Sz>= 2.5000 <S**2>= 8.7629 S= 2.5021
 SCF Done:  E(UB3LYP) =  -3034.35198633     A.U. after   13 cycles
            NFock= 13  Conv=0.76D-08     -V/T= 2.0024
 <Sx>= 0.0000 <Sy>= 0.0000 <Sz>= 2.5000 <S**2>= 8.7621 S= 2.5020
 <L.S>= 0.000000000000E+00
 Annihilation of the first spin contaminant:
 S**2 before annihilation     8.7621,   after     8.7500
 1\1\GINC-HOLY7C06204\SP\UB3LYP\Jul-CC-pVDZ\C8H16Cl3Fe1O1(6)\EKWAN\12-F
 eb-2020\0\\#t pop=none jul-cc-pvdz guess=read ub3lyp\\theory_abbreviat
 ion b3lyp\\0,6\O,0,0.236897,0.341319,-0.839353\C,0,1.007722,1.31333,-0
 .655345\C,0,3.114916,0.054951,0.469915\C,0,2.57024,-0.972345,-0.21298\
 C,0,2.930236,-1.242275,-1.648338\Fe,0,-1.467195,-0.147857,0.027163\Cl,
 0,-2.089645,-1.973132,-0.977502\C,0,1.640557,-1.985998,0.386616\Cl,0,-
 2.65785,1.63476,-0.419589\Cl,0,-1.114217,-0.372379,2.181919\H,0,3.8404
 27,0.675685,-0.056629\H,0,2.158108,-2.951802,0.467151\H,0,1.273879,-1.
 717685,1.376889\H,0,0.778129,-2.157507,-0.268247\H,0,3.367592,-2.24487
 9,-1.741004\H,0,2.033091,-1.238085,-2.281159\H,0,3.653462,-0.522992,-2
 .043142\C,0,2.999175,0.31336,1.9481\H,0,3.835175,-0.15968,2.481355\H,0
 ,3.051125,1.383389,2.174551\H,0,2.07394,-0.07797,2.378733\C,0,0.865323
 ,2.19629,0.543814\H,0,1.75314,2.80718,0.71075\H,0,0.016794,2.863906,0.
 33088\H,0,0.612369,1.626891,1.438452\C,0,1.799221,1.820442,-1.822083\H
 ,0,1.192845,2.620592,-2.272194\H,0,2.750762,2.257734,-1.516229\H,0,1.9
 45812,1.045191,-2.57183\\Version=ES64L-G16RevA.03\HF=-3034.3519863\S2=
 8.762144\S2-1=0.\S2A=8.750046\RMSD=7.632e-09\PG=C01 [X(C8H16Cl3Fe1O1)]
 \\@


 ALTHOUGH J.J. COULD DIAGNOSE THE FAULTS OF AN
 APPARATUS WITH UNCANNY ACCURACY, IT WAS JUST AS
 WELL NOT TO LET HIM HANDLE IT.
   -- GEORGE THOMPSON, ABOUT HIS FATHER
 Job cpu time:       0 days  0 hours 51 minutes  4.6 seconds.
 Elapsed time:       0 days  0 hours 12 minutes 48.6 seconds.
 File lengths (MBytes):  RWF=    174 Int=      0 D2E=      0 Chk=     13 Scr=      1
 Normal termination of Gaussian 16 at Wed Feb 12 14:24:31 2020.
 Initial command:
 /n/sw/g16_nehalem/g16/l1.exe "/scratch/Gau-47808.inp" -scrdir="/scratch/"
 Entering Link 1 = /n/sw/g16_nehalem/g16/l1.exe PID=     50094.
  
 Copyright (c) 1988,1990,1992,1993,1995,1998,2003,2009,2016,
            Gaussian, Inc.  All Rights Reserved.
  
 This is part of the Gaussian(R) 16 program.  It is based on
 the Gaussian(R) 09 system (copyright 2009, Gaussian, Inc.),
 the Gaussian(R) 03 system (copyright 2003, Gaussian, Inc.),
 the Gaussian(R) 98 system (copyright 1998, Gaussian, Inc.),
 the Gaussian(R) 94 system (copyright 1995, Gaussian, Inc.),
 the Gaussian 92(TM) system (copyright 1992, Gaussian, Inc.),
 the Gaussian 90(TM) system (copyright 1990, Gaussian, Inc.),
 the Gaussian 88(TM) system (copyright 1988, Gaussian, Inc.),
 the Gaussian 86(TM) system (copyright 1986, Carnegie Mellon
 University), and the Gaussian 82(TM) system (copyright 1983,
 Carnegie Mellon University). Gaussian is a federally registered
 trademark of Gaussian, Inc.
  
 This software contains proprietary and confidential information,
 including trade secrets, belonging to Gaussian, Inc.
  
 This software is provided under written license and may be
 used, copied, transmitted, or stored only in accord with that
 written license.
  
 The following legend is applicable only to US Government
 contracts under FAR:
  
                    RESTRICTED RIGHTS LEGEND
  
 Use, reproduction and disclosure by the US Government is
 subject to restrictions as set forth in subparagraphs (a)
 and (c) of the Commercial Computer Software - Restricted
 Rights clause in FAR 52.227-19.
  
 Gaussian, Inc.
 340 Quinnipiac St., Bldg. 40, Wallingford CT 06492
  
  
 ---------------------------------------------------------------
 Warning -- This program may not be used in any manner that
 competes with the business of Gaussian, Inc. or will provide
 assistance to any competitor of Gaussian, Inc.  The licensee
 of this program is prohibited from giving any competitor of
 Gaussian, Inc. access to this program.  By using this program,
 the user acknowledges that Gaussian, Inc. is engaged in the
 business of creating and licensing software in the field of
 computational chemistry and represents and warrants to the
 licensee that it is not a competitor of Gaussian, Inc. and that
 it will not use this program in any manner prohibited above.
 ---------------------------------------------------------------
  

 Cite this work as:
 Gaussian 16, Revision A.03,
 M. J. Frisch, G. W. Trucks, H. B. Schlegel, G. E. Scuseria, 
 M. A. Robb, J. R. Cheeseman, G. Scalmani, V. Barone, 
 G. A. Petersson, H. Nakatsuji, X. Li, M. Caricato, A. V. Marenich, 
 J. Bloino, B. G. Janesko, R. Gomperts, B. Mennucci, H. P. Hratchian, 
 J. V. Ortiz, A. F. Izmaylov, J. L. Sonnenberg, D. Williams-Young, 
 F. Ding, F. Lipparini, F. Egidi, J. Goings, B. Peng, A. Petrone, 
 T. Henderson, D. Ranasinghe, V. G. Zakrzewski, J. Gao, N. Rega, 
 G. Zheng, W. Liang, M. Hada, M. Ehara, K. Toyota, R. Fukuda, 
 J. Hasegawa, M. Ishida, T. Nakajima, Y. Honda, O. Kitao, H. Nakai, 
 T. Vreven, K. Throssell, J. A. Montgomery, Jr., J. E. Peralta, 
 F. Ogliaro, M. J. Bearpark, J. J. Heyd, E. N. Brothers, K. N. Kudin, 
 V. N. Staroverov, T. A. Keith, R. Kobayashi, J. Normand, 
 K. Raghavachari, A. P. Rendell, J. C. Burant, S. S. Iyengar, 
 J. Tomasi, M. Cossi, J. M. Millam, M. Klene, C. Adamo, R. Cammi, 
 J. W. Ochterski, R. L. Martin, K. Morokuma, O. Farkas, 
 J. B. Foresman, and D. J. Fox, Gaussian, Inc., Wallingford CT, 2016.
 
 ******************************************
 Gaussian 16:  ES64L-G16RevA.03 25-Dec-2016
                12-Feb-2020 
 ******************************************
 %chk=checkpoint.chk
 %mem=3GB
 %nprocshared=4
 Will use up to    4 processors via shared memory.
 -------------------------------------------------------------------
 #t pop=none jul-cc-pvdz guess=read ub3lyp empiricaldispersion=gd3bj
 -------------------------------------------------------------------
 ------------------------------
 theory_abbreviation b3lyp_d3bj
 ------------------------------
 Symbolic Z-matrix:
 Charge =  0 Multiplicity = 6
 O                     0.2369    0.34132  -0.83935 
 C                     1.00772   1.31333  -0.65535 
 C                     3.11492   0.05495   0.46992 
 C                     2.57024  -0.97235  -0.21298 
 C                     2.93024  -1.24228  -1.64834 
 Fe                   -1.4672   -0.14786   0.02716 
 Cl                   -2.08964  -1.97313  -0.9775 
 C                     1.64056  -1.986     0.38662 
 Cl                   -2.65785   1.63476  -0.41959 
 Cl                   -1.11422  -0.37238   2.18192 
 H                     3.84043   0.67569  -0.05663 
 H                     2.15811  -2.9518    0.46715 
 H                     1.27388  -1.71769   1.37689 
 H                     0.77813  -2.15751  -0.26825 
 H                     3.36759  -2.24488  -1.741 
 H                     2.03309  -1.23809  -2.28116 
 H                     3.65346  -0.52299  -2.04314 
 C                     2.99918   0.31336   1.9481 
 H                     3.83518  -0.15968   2.48136 
 H                     3.05112   1.38339   2.17455 
 H                     2.07394  -0.07797   2.37873 
 C                     0.86532   2.19629   0.54381 
 H                     1.75314   2.80718   0.71075 
 H                     0.01679   2.86391   0.33088 
 H                     0.61237   1.62689   1.43845 
 C                     1.79922   1.82044  -1.82208 
 H                     1.19285   2.62059  -2.27219 
 H                     2.75076   2.25773  -1.51623 
 H                     1.94581   1.04519  -2.57183 
 
                    Distance matrix (angstroms):
                    1          2          3          4          5
     1  O    0.000000
     2  C    1.254127   0.000000
     3  C    3.174773   2.699999   0.000000
     4  C    2.750008   2.803829   1.348464   0.000000
     5  C    3.227430   3.348613   2.490762   1.504231   0.000000
     6  Fe   1.973340   2.953997   4.607917   4.127751   4.831403
     7  Cl   3.284595   4.527505   5.770233   4.827069   5.116970
     8  C    2.981554   3.517347   2.519156   1.500439   2.521395
     9  Cl   3.198242   3.687183   6.050772   5.845734   6.404206
    10  Cl   3.385699   3.923558   4.582481   4.435169   5.637835
    11  H    3.702686   2.964670   1.090379   2.086582   2.653405
    12  H    4.030217   4.557931   3.155321   2.133233   2.827359
    13  H    3.197899   3.658943   2.711873   2.182606   3.481599
    14  H    2.619776   3.499895   3.301579   2.149262   2.715486
    15  H    4.159645   4.405507   3.200192   2.142422   1.097762
    16  H    2.792783   3.194428   3.226561   2.153256   1.097884
    17  H    3.724118   3.506850   2.634294   2.173656   1.093752
    18  C    3.924392   3.426916   1.505059   2.550939   3.919071
    19  H    4.921962   4.472487   2.147261   3.085438   4.364091
    20  H    4.253164   3.491234   2.162082   3.388368   4.639311
    21  H    3.729156   3.504021   2.178276   2.786251   4.278569
    22  C    2.397705   1.495954   3.106680   3.676918   4.570900
    23  H    3.283639   2.157186   3.080130   3.975643   4.832074
    24  H    2.789505   2.087789   4.184247   4.640333   5.409822
    25  H    2.642361   2.153743   3.109952   3.649180   4.809667
    26  C    2.365252   1.498303   3.178249   3.314113   3.269498
    27  H    2.856914   2.087440   4.218534   4.364261   4.281292
    28  H    3.232696   2.161298   2.988248   3.487758   3.507097
    29  H    2.533240   2.150541   3.405817   3.166155   2.656017
                    6          7          8          9         10
     6  Fe   0.000000
     7  Cl   2.174494   0.000000
     8  C    3.628511   3.971825   0.000000
     9  Cl   2.189742   3.694727   5.677689   0.000000
    10  Cl   2.194989   3.673665   3.662739   3.630324   0.000000
    11  H    5.371787   6.559725   3.481444   6.578691   5.536970
    12  H    4.604185   4.592192   1.098691   6.709420   4.505770
    13  H    3.435056   4.113600   1.089534   5.470349   2.856733
    14  H    3.027778   2.959926   1.096377   5.119584   3.573649
    15  H    5.558694   5.517084   2.752533   7.287228   6.243572
    16  H    4.332315   4.385974   2.798300   5.807203   5.529381
    17  H    5.536065   6.018453   3.477916   6.864727   6.372173
    18  C    4.883767   6.299467   3.093723   6.273275   4.176710
    19  H    5.842801   7.096182   3.541146   7.334498   4.963002
    20  H    5.231750   6.901390   4.066839   6.275759   4.520271
    21  H    4.251400   5.673746   2.792297   5.757941   3.207765
    22  C    3.347028   5.332009   4.256434   3.695431   3.633184
    23  H    4.423810   6.361492   4.805444   4.702028   4.527214
    24  H    3.371229   5.435613   5.114810   3.037717   3.896033
    25  H    3.076695   5.108608   3.900833   3.761211   2.744253
    26  C    4.238323   5.497981   4.403693   4.676211   5.415590
    27  H    4.475172   5.792518   5.337639   4.385415   5.841193
    28  H    5.095104   6.451356   4.781489   5.553719   5.960860
    29  H    4.452723   5.285553   4.246609   5.115998   5.828500
                   11         12         13         14         15
    11  H    0.000000
    12  H    4.032766   0.000000
    13  H    3.790826   1.769895   0.000000
    14  H    4.177251   1.753869   1.773608   0.000000
    15  H    3.404466   2.615060   3.792469   2.980263   0.000000
    16  H    3.446377   3.241244   3.766661   2.544029   1.756785
    17  H    2.327663   3.799575   4.334319   3.753589   1.771413
    18  C    2.204070   3.682647   2.725449   3.993798   4.504421
    19  H    2.671933   3.829558   3.194912   4.571341   4.732336
    20  H    2.470224   4.744110   3.662175   4.865359   5.347528
    21  H    3.101525   3.452556   2.081455   3.606952   4.831280
    22  C    3.394704   5.308486   4.022454   4.429740   5.586209
    23  H    3.080407   5.778340   4.598678   5.153368   5.843017
    24  H    4.422516   6.198891   4.864707   5.114017   6.451375
    25  H    3.682447   4.929215   3.409923   4.154752   5.717587
    26  C    2.931522   5.305064   4.798724   4.391026   4.358118
    27  H    3.962459   6.283894   5.669482   5.197886   5.355791
    28  H    2.412609   5.605738   5.133739   4.994306   4.550223
    29  H    3.170542   5.025577   4.865939   4.114274   3.679170
                   16         17         18         19         20
    16  H    0.000000
    17  H    1.787068   0.000000
    18  C    4.607269   4.130083   0.000000
    19  H    5.204998   4.542696   1.098646   0.000000
    20  H    5.268953   4.667551   1.094962   1.757818   0.000000
    21  H    4.802305   4.716557   1.092998   1.766113   1.769788
    22  C    4.597726   4.675527   3.173447   4.257309   2.845671
    23  H    5.039252   4.720719   3.050045   4.033878   2.419640
    24  H    5.264459   5.507487   4.244441   5.324157   3.846845
    25  H    4.905308   5.098210   2.771633   3.829616   2.559036
    26  C    3.101618   2.996458   4.233848   5.156120   4.210862
    27  H    3.949112   3.998652   5.137804   6.108031   4.975683
    28  H    3.649784   2.970680   3.980436   4.795886   3.804807
    29  H    2.303358   2.377978   4.698395   5.527756   4.885103
                   21         22         23         24         25
    21  H    0.000000
    22  C    3.162268   0.000000
    23  H    3.348010   1.090538   0.000000
    24  H    4.132818   1.100479   1.778318   0.000000
    25  H    2.434516   1.090219   1.795547   1.763982   0.000000
    26  C    4.618040   2.571166   2.718643   2.983473   3.475222
    27  H    5.448824   2.866567   3.040839   2.866756   3.885008
    28  H    4.591768   2.793284   2.501315   3.354674   3.701463
    29  H    5.077990   3.492810   3.730557   3.931229   4.266006
                   26         27         28         29
    26  C    0.000000
    27  H    1.100242   0.000000
    28  H    1.090963   1.769252   0.000000
    29  H    1.088404   1.771618   1.797915   0.000000
 Framework group  C1[X(C8H16Cl3FeO)]
 Deg. of freedom    81
                         Standard orientation:                         
 ---------------------------------------------------------------------
 Center     Atomic      Atomic             Coordinates (Angstroms)
 Number     Number       Type             X           Y           Z
 ---------------------------------------------------------------------
      1          8           0        0.236897    0.341319   -0.839353
      2          6           0        1.007722    1.313330   -0.655345
      3          6           0        3.114916    0.054951    0.469915
      4          6           0        2.570240   -0.972345   -0.212980
      5          6           0        2.930236   -1.242275   -1.648338
      6         26           0       -1.467195   -0.147857    0.027163
      7         17           0       -2.089645   -1.973132   -0.977502
      8          6           0        1.640557   -1.985998    0.386616
      9         17           0       -2.657850    1.634760   -0.419589
     10         17           0       -1.114217   -0.372379    2.181919
     11          1           0        3.840427    0.675685   -0.056629
     12          1           0        2.158108   -2.951802    0.467151
     13          1           0        1.273879   -1.717685    1.376889
     14          1           0        0.778129   -2.157507   -0.268247
     15          1           0        3.367592   -2.244879   -1.741004
     16          1           0        2.033091   -1.238085   -2.281159
     17          1           0        3.653462   -0.522992   -2.043142
     18          6           0        2.999175    0.313360    1.948100
     19          1           0        3.835175   -0.159680    2.481355
     20          1           0        3.051125    1.383389    2.174551
     21          1           0        2.073940   -0.077970    2.378733
     22          6           0        0.865323    2.196290    0.543814
     23          1           0        1.753140    2.807180    0.710750
     24          1           0        0.016794    2.863906    0.330880
     25          1           0        0.612369    1.626891    1.438452
     26          6           0        1.799221    1.820442   -1.822083
     27          1           0        1.192845    2.620592   -2.272194
     28          1           0        2.750762    2.257734   -1.516229
     29          1           0        1.945812    1.045191   -2.571830
 ---------------------------------------------------------------------
 Rotational constants (GHZ):           0.5683239           0.3261973           0.3074018
   427 basis functions,  1056 primitive gaussians,   461 cartesian basis functions
    77 alpha electrons       72 beta electrons
       nuclear repulsion energy      1627.4731052150 Hartrees.
 NAtoms=   29 NActive=   29 NUniq=   29 SFac= 1.00D+00 NAtFMM=   60 NAOKFM=F Big=F
 Nuclear repulsion after empirical dispersion term =     1627.4050109903 Hartrees.
 Initial guess from the checkpoint file:  "checkpoint.chk"
 B after Tr=     0.000000    0.000000    0.000000
         Rot=    1.000000    0.000000    0.000000    0.000000 Ang=   0.00 deg.
 Initial guess <Sx>= 0.0000 <Sy>= 0.0000 <Sz>= 2.5000 <S**2>= 8.7621 S= 2.5020
 SCF Done:  E(UB3LYP) =  -3034.42008056     A.U. after    1 cycles
            NFock=  1  Conv=0.56D-08     -V/T= 2.0024
 <Sx>= 0.0000 <Sy>= 0.0000 <Sz>= 2.5000 <S**2>= 8.7621 S= 2.5020
 <L.S>= 0.000000000000E+00
 Annihilation of the first spin contaminant:
 S**2 before annihilation     8.7621,   after     8.7500
 1\1\GINC-HOLY7C06204\SP\UB3LYP\Jul-CC-pVDZ\C8H16Cl3Fe1O1(6)\EKWAN\12-F
 eb-2020\0\\#t pop=none jul-cc-pvdz guess=read ub3lyp empiricaldispersi
 on=gd3bj\\theory_abbreviation b3lyp_d3bj\\0,6\O,0,0.236897,0.341319,-0
 .839353\C,0,1.007722,1.31333,-0.655345\C,0,3.114916,0.054951,0.469915\
 C,0,2.57024,-0.972345,-0.21298\C,0,2.930236,-1.242275,-1.648338\Fe,0,-
 1.467195,-0.147857,0.027163\Cl,0,-2.089645,-1.973132,-0.977502\C,0,1.6
 40557,-1.985998,0.386616\Cl,0,-2.65785,1.63476,-0.419589\Cl,0,-1.11421
 7,-0.372379,2.181919\H,0,3.840427,0.675685,-0.056629\H,0,2.158108,-2.9
 51802,0.467151\H,0,1.273879,-1.717685,1.376889\H,0,0.778129,-2.157507,
 -0.268247\H,0,3.367592,-2.244879,-1.741004\H,0,2.033091,-1.238085,-2.2
 81159\H,0,3.653462,-0.522992,-2.043142\C,0,2.999175,0.31336,1.9481\H,0
 ,3.835175,-0.15968,2.481355\H,0,3.051125,1.383389,2.174551\H,0,2.07394
 ,-0.07797,2.378733\C,0,0.865323,2.19629,0.543814\H,0,1.75314,2.80718,0
 .71075\H,0,0.016794,2.863906,0.33088\H,0,0.612369,1.626891,1.438452\C,
 0,1.799221,1.820442,-1.822083\H,0,1.192845,2.620592,-2.272194\H,0,2.75
 0762,2.257734,-1.516229\H,0,1.945812,1.045191,-2.57183\\Version=ES64L-
 G16RevA.03\HF=-3034.4200806\S2=8.762144\S2-1=0.\S2A=8.750046\RMSD=5.59
 3e-09\PG=C01 [X(C8H16Cl3Fe1O1)]\\@


 IT TAKES GREATER CHARACTER TO CARRY OFF GOOD FORTUNE THAN BAD.
                     FRENCH PROVERB.
 Job cpu time:       0 days  0 hours  4 minutes 19.8 seconds.
 Elapsed time:       0 days  0 hours  1 minutes  5.5 seconds.
 File lengths (MBytes):  RWF=    170 Int=      0 D2E=      0 Chk=     13 Scr=      1
 Normal termination of Gaussian 16 at Wed Feb 12 14:25:37 2020.
 Initial command:
 /n/sw/g16_nehalem/g16/l1.exe "/scratch/Gau-47808.inp" -scrdir="/scratch/"
 Entering Link 1 = /n/sw/g16_nehalem/g16/l1.exe PID=     50177.
  
 Copyright (c) 1988,1990,1992,1993,1995,1998,2003,2009,2016,
            Gaussian, Inc.  All Rights Reserved.
  
 This is part of the Gaussian(R) 16 program.  It is based on
 the Gaussian(R) 09 system (copyright 2009, Gaussian, Inc.),
 the Gaussian(R) 03 system (copyright 2003, Gaussian, Inc.),
 the Gaussian(R) 98 system (copyright 1998, Gaussian, Inc.),
 the Gaussian(R) 94 system (copyright 1995, Gaussian, Inc.),
 the Gaussian 92(TM) system (copyright 1992, Gaussian, Inc.),
 the Gaussian 90(TM) system (copyright 1990, Gaussian, Inc.),
 the Gaussian 88(TM) system (copyright 1988, Gaussian, Inc.),
 the Gaussian 86(TM) system (copyright 1986, Carnegie Mellon
 University), and the Gaussian 82(TM) system (copyright 1983,
 Carnegie Mellon University). Gaussian is a federally registered
 trademark of Gaussian, Inc.
  
 This software contains proprietary and confidential information,
 including trade secrets, belonging to Gaussian, Inc.
  
 This software is provided under written license and may be
 used, copied, transmitted, or stored only in accord with that
 written license.
  
 The following legend is applicable only to US Government
 contracts under FAR:
  
                    RESTRICTED RIGHTS LEGEND
  
 Use, reproduction and disclosure by the US Government is
 subject to restrictions as set forth in subparagraphs (a)
 and (c) of the Commercial Computer Software - Restricted
 Rights clause in FAR 52.227-19.
  
 Gaussian, Inc.
 340 Quinnipiac St., Bldg. 40, Wallingford CT 06492
  
  
 ---------------------------------------------------------------
 Warning -- This program may not be used in any manner that
 competes with the business of Gaussian, Inc. or will provide
 assistance to any competitor of Gaussian, Inc.  The licensee
 of this program is prohibited from giving any competitor of
 Gaussian, Inc. access to this program.  By using this program,
 the user acknowledges that Gaussian, Inc. is engaged in the
 business of creating and licensing software in the field of
 computational chemistry and represents and warrants to the
 licensee that it is not a competitor of Gaussian, Inc. and that
 it will not use this program in any manner prohibited above.
 ---------------------------------------------------------------
  

 Cite this work as:
 Gaussian 16, Revision A.03,
 M. J. Frisch, G. W. Trucks, H. B. Schlegel, G. E. Scuseria, 
 M. A. Robb, J. R. Cheeseman, G. Scalmani, V. Barone, 
 G. A. Petersson, H. Nakatsuji, X. Li, M. Caricato, A. V. Marenich, 
 J. Bloino, B. G. Janesko, R. Gomperts, B. Mennucci, H. P. Hratchian, 
 J. V. Ortiz, A. F. Izmaylov, J. L. Sonnenberg, D. Williams-Young, 
 F. Ding, F. Lipparini, F. Egidi, J. Goings, B. Peng, A. Petrone, 
 T. Henderson, D. Ranasinghe, V. G. Zakrzewski, J. Gao, N. Rega, 
 G. Zheng, W. Liang, M. Hada, M. Ehara, K. Toyota, R. Fukuda, 
 J. Hasegawa, M. Ishida, T. Nakajima, Y. Honda, O. Kitao, H. Nakai, 
 T. Vreven, K. Throssell, J. A. Montgomery, Jr., J. E. Peralta, 
 F. Ogliaro, M. J. Bearpark, J. J. Heyd, E. N. Brothers, K. N. Kudin, 
 V. N. Staroverov, T. A. Keith, R. Kobayashi, J. Normand, 
 K. Raghavachari, A. P. Rendell, J. C. Burant, S. S. Iyengar, 
 J. Tomasi, M. Cossi, J. M. Millam, M. Klene, C. Adamo, R. Cammi, 
 J. W. Ochterski, R. L. Martin, K. Morokuma, O. Farkas, 
 J. B. Foresman, and D. J. Fox, Gaussian, Inc., Wallingford CT, 2016.
 
 ******************************************
 Gaussian 16:  ES64L-G16RevA.03 25-Dec-2016
                12-Feb-2020 
 ******************************************
 %chk=checkpoint.chk
 %mem=3GB
 %nprocshared=4
 Will use up to    4 processors via shared memory.
 ----------------------------------------
 #t pop=none jul-cc-pvdz guess=read ub97d
 ----------------------------------------
 ------------------------
 theory_abbreviation b97d
 ------------------------
 Symbolic Z-matrix:
 Charge =  0 Multiplicity = 6
 O                     0.2369    0.34132  -0.83935 
 C                     1.00772   1.31333  -0.65535 
 C                     3.11492   0.05495   0.46992 
 C                     2.57024  -0.97235  -0.21298 
 C                     2.93024  -1.24228  -1.64834 
 Fe                   -1.4672   -0.14786   0.02716 
 Cl                   -2.08964  -1.97313  -0.9775 
 C                     1.64056  -1.986     0.38662 
 Cl                   -2.65785   1.63476  -0.41959 
 Cl                   -1.11422  -0.37238   2.18192 
 H                     3.84043   0.67569  -0.05663 
 H                     2.15811  -2.9518    0.46715 
 H                     1.27388  -1.71769   1.37689 
 H                     0.77813  -2.15751  -0.26825 
 H                     3.36759  -2.24488  -1.741 
 H                     2.03309  -1.23809  -2.28116 
 H                     3.65346  -0.52299  -2.04314 
 C                     2.99918   0.31336   1.9481 
 H                     3.83518  -0.15968   2.48136 
 H                     3.05112   1.38339   2.17455 
 H                     2.07394  -0.07797   2.37873 
 C                     0.86532   2.19629   0.54381 
 H                     1.75314   2.80718   0.71075 
 H                     0.01679   2.86391   0.33088 
 H                     0.61237   1.62689   1.43845 
 C                     1.79922   1.82044  -1.82208 
 H                     1.19285   2.62059  -2.27219 
 H                     2.75076   2.25773  -1.51623 
 H                     1.94581   1.04519  -2.57183 
 
                    Distance matrix (angstroms):
                    1          2          3          4          5
     1  O    0.000000
     2  C    1.254127   0.000000
     3  C    3.174773   2.699999   0.000000
     4  C    2.750008   2.803829   1.348464   0.000000
     5  C    3.227430   3.348613   2.490762   1.504231   0.000000
     6  Fe   1.973340   2.953997   4.607917   4.127751   4.831403
     7  Cl   3.284595   4.527505   5.770233   4.827069   5.116970
     8  C    2.981554   3.517347   2.519156   1.500439   2.521395
     9  Cl   3.198242   3.687183   6.050772   5.845734   6.404206
    10  Cl   3.385699   3.923558   4.582481   4.435169   5.637835
    11  H    3.702686   2.964670   1.090379   2.086582   2.653405
    12  H    4.030217   4.557931   3.155321   2.133233   2.827359
    13  H    3.197899   3.658943   2.711873   2.182606   3.481599
    14  H    2.619776   3.499895   3.301579   2.149262   2.715486
    15  H    4.159645   4.405507   3.200192   2.142422   1.097762
    16  H    2.792783   3.194428   3.226561   2.153256   1.097884
    17  H    3.724118   3.506850   2.634294   2.173656   1.093752
    18  C    3.924392   3.426916   1.505059   2.550939   3.919071
    19  H    4.921962   4.472487   2.147261   3.085438   4.364091
    20  H    4.253164   3.491234   2.162082   3.388368   4.639311
    21  H    3.729156   3.504021   2.178276   2.786251   4.278569
    22  C    2.397705   1.495954   3.106680   3.676918   4.570900
    23  H    3.283639   2.157186   3.080130   3.975643   4.832074
    24  H    2.789505   2.087789   4.184247   4.640333   5.409822
    25  H    2.642361   2.153743   3.109952   3.649180   4.809667
    26  C    2.365252   1.498303   3.178249   3.314113   3.269498
    27  H    2.856914   2.087440   4.218534   4.364261   4.281292
    28  H    3.232696   2.161298   2.988248   3.487758   3.507097
    29  H    2.533240   2.150541   3.405817   3.166155   2.656017
                    6          7          8          9         10
     6  Fe   0.000000
     7  Cl   2.174494   0.000000
     8  C    3.628511   3.971825   0.000000
     9  Cl   2.189742   3.694727   5.677689   0.000000
    10  Cl   2.194989   3.673665   3.662739   3.630324   0.000000
    11  H    5.371787   6.559725   3.481444   6.578691   5.536970
    12  H    4.604185   4.592192   1.098691   6.709420   4.505770
    13  H    3.435056   4.113600   1.089534   5.470349   2.856733
    14  H    3.027778   2.959926   1.096377   5.119584   3.573649
    15  H    5.558694   5.517084   2.752533   7.287228   6.243572
    16  H    4.332315   4.385974   2.798300   5.807203   5.529381
    17  H    5.536065   6.018453   3.477916   6.864727   6.372173
    18  C    4.883767   6.299467   3.093723   6.273275   4.176710
    19  H    5.842801   7.096182   3.541146   7.334498   4.963002
    20  H    5.231750   6.901390   4.066839   6.275759   4.520271
    21  H    4.251400   5.673746   2.792297   5.757941   3.207765
    22  C    3.347028   5.332009   4.256434   3.695431   3.633184
    23  H    4.423810   6.361492   4.805444   4.702028   4.527214
    24  H    3.371229   5.435613   5.114810   3.037717   3.896033
    25  H    3.076695   5.108608   3.900833   3.761211   2.744253
    26  C    4.238323   5.497981   4.403693   4.676211   5.415590
    27  H    4.475172   5.792518   5.337639   4.385415   5.841193
    28  H    5.095104   6.451356   4.781489   5.553719   5.960860
    29  H    4.452723   5.285553   4.246609   5.115998   5.828500
                   11         12         13         14         15
    11  H    0.000000
    12  H    4.032766   0.000000
    13  H    3.790826   1.769895   0.000000
    14  H    4.177251   1.753869   1.773608   0.000000
    15  H    3.404466   2.615060   3.792469   2.980263   0.000000
    16  H    3.446377   3.241244   3.766661   2.544029   1.756785
    17  H    2.327663   3.799575   4.334319   3.753589   1.771413
    18  C    2.204070   3.682647   2.725449   3.993798   4.504421
    19  H    2.671933   3.829558   3.194912   4.571341   4.732336
    20  H    2.470224   4.744110   3.662175   4.865359   5.347528
    21  H    3.101525   3.452556   2.081455   3.606952   4.831280
    22  C    3.394704   5.308486   4.022454   4.429740   5.586209
    23  H    3.080407   5.778340   4.598678   5.153368   5.843017
    24  H    4.422516   6.198891   4.864707   5.114017   6.451375
    25  H    3.682447   4.929215   3.409923   4.154752   5.717587
    26  C    2.931522   5.305064   4.798724   4.391026   4.358118
    27  H    3.962459   6.283894   5.669482   5.197886   5.355791
    28  H    2.412609   5.605738   5.133739   4.994306   4.550223
    29  H    3.170542   5.025577   4.865939   4.114274   3.679170
                   16         17         18         19         20
    16  H    0.000000
    17  H    1.787068   0.000000
    18  C    4.607269   4.130083   0.000000
    19  H    5.204998   4.542696   1.098646   0.000000
    20  H    5.268953   4.667551   1.094962   1.757818   0.000000
    21  H    4.802305   4.716557   1.092998   1.766113   1.769788
    22  C    4.597726   4.675527   3.173447   4.257309   2.845671
    23  H    5.039252   4.720719   3.050045   4.033878   2.419640
    24  H    5.264459   5.507487   4.244441   5.324157   3.846845
    25  H    4.905308   5.098210   2.771633   3.829616   2.559036
    26  C    3.101618   2.996458   4.233848   5.156120   4.210862
    27  H    3.949112   3.998652   5.137804   6.108031   4.975683
[...]
     28          1           0        2.750762    2.257734   -1.516229
     29          1           0        1.945812    1.045191   -2.571830
 ---------------------------------------------------------------------
 Rotational constants (GHZ):           0.5683239           0.3261973           0.3074018
   427 basis functions,  1056 primitive gaussians,   461 cartesian basis functions
    77 alpha electrons       72 beta electrons
       nuclear repulsion energy      1627.4731052150 Hartrees.
 NAtoms=   29 NActive=   29 NUniq=   29 SFac= 1.00D+00 NAtFMM=   60 NAOKFM=F Big=F
 Nuclear repulsion after empirical dispersion term =     1627.4706182364 Hartrees.
 Initial guess from the checkpoint file:  "checkpoint.chk"
 B after Tr=     0.000000    0.000000    0.000000
         Rot=    1.000000    0.000000    0.000000    0.000000 Ang=   0.00 deg.
 Initial guess <Sx>= 0.0000 <Sy>= 0.0000 <Sz>= 2.5000 <S**2>= 8.7618 S= 2.5020
 SCF Done:  E(UM06L) =  -3034.22033269     A.U. after   17 cycles
            NFock= 17  Conv=0.76D-08     -V/T= 2.0020
 <Sx>= 0.0000 <Sy>= 0.0000 <Sz>= 2.5000 <S**2>= 8.7617 S= 2.5019
 <L.S>= 0.000000000000E+00
 Annihilation of the first spin contaminant:
 S**2 before annihilation     8.7617,   after     8.7500
 1\1\GINC-HOLY7C06204\SP\UM06L\Jul-CC-pVDZ\C8H16Cl3Fe1O1(6)\EKWAN\12-Fe
 b-2020\0\\#t pop=none jul-cc-pvdz guess=read um06l empiricaldispersion
 =gd3\\theory_abbreviation m06l_d3\\0,6\O,0,0.236897,0.341319,-0.839353
 \C,0,1.007722,1.31333,-0.655345\C,0,3.114916,0.054951,0.469915\C,0,2.5
 7024,-0.972345,-0.21298\C,0,2.930236,-1.242275,-1.648338\Fe,0,-1.46719
 5,-0.147857,0.027163\Cl,0,-2.089645,-1.973132,-0.977502\C,0,1.640557,-
 1.985998,0.386616\Cl,0,-2.65785,1.63476,-0.419589\Cl,0,-1.114217,-0.37
 2379,2.181919\H,0,3.840427,0.675685,-0.056629\H,0,2.158108,-2.951802,0
 .467151\H,0,1.273879,-1.717685,1.376889\H,0,0.778129,-2.157507,-0.2682
 47\H,0,3.367592,-2.244879,-1.741004\H,0,2.033091,-1.238085,-2.281159\H
 ,0,3.653462,-0.522992,-2.043142\C,0,2.999175,0.31336,1.9481\H,0,3.8351
 75,-0.15968,2.481355\H,0,3.051125,1.383389,2.174551\H,0,2.07394,-0.077
 97,2.378733\C,0,0.865323,2.19629,0.543814\H,0,1.75314,2.80718,0.71075\
 H,0,0.016794,2.863906,0.33088\H,0,0.612369,1.626891,1.438452\C,0,1.799
 221,1.820442,-1.822083\H,0,1.192845,2.620592,-2.272194\H,0,2.750762,2.
 257734,-1.516229\H,0,1.945812,1.045191,-2.57183\\Version=ES64L-G16RevA
 .03\HF=-3034.2203327\S2=8.761689\S2-1=0.\S2A=8.750044\RMSD=7.647e-09\P
 G=C01 [X(C8H16Cl3Fe1O1)]\\@


 ONLY THE DAY DAWNS TO WHICH YOU ARE AWAKE.

                                 -- THOREAU
 Job cpu time:       0 days  1 hours 11 minutes 23.9 seconds.
 Elapsed time:       0 days  0 hours 17 minutes 54.0 seconds.
 File lengths (MBytes):  RWF=    174 Int=      0 D2E=      0 Chk=     13 Scr=      1
 Normal termination of Gaussian 16 at Wed Feb 12 22:18:53 2020.
 Initial command:
 /n/sw/g16_nehalem/g16/l1.exe "/scratch/Gau-47808.inp" -scrdir="/scratch/"
 Entering Link 1 = /n/sw/g16_nehalem/g16/l1.exe PID=     90984.
  
 Copyright (c) 1988,1990,1992,1993,1995,1998,2003,2009,2016,
            Gaussian, Inc.  All Rights Reserved.
  
 This is part of the Gaussian(R) 16 program.  It is based on
 the Gaussian(R) 09 system (copyright 2009, Gaussian, Inc.),
 the Gaussian(R) 03 system (copyright 2003, Gaussian, Inc.),
 the Gaussian(R) 98 system (copyright 1998, Gaussian, Inc.),
 the Gaussian(R) 94 system (copyright 1995, Gaussian, Inc.),
 the Gaussian 92(TM) system (copyright 1992, Gaussian, Inc.),
 the Gaussian 90(TM) system (copyright 1990, Gaussian, Inc.),
 the Gaussian 88(TM) system (copyright 1988, Gaussian, Inc.),
 the Gaussian 86(TM) system (copyright 1986, Carnegie Mellon
 University), and the Gaussian 82(TM) system (copyright 1983,
 Carnegie Mellon University). Gaussian is a federally registered
 trademark of Gaussian, Inc.
  
 This software contains proprietary and confidential information,
 including trade secrets, belonging to Gaussian, Inc.
  
 This software is provided under written license and may be
 used, copied, transmitted, or stored only in accord with that
 written license.
  
 The following legend is applicable only to US Government
 contracts under FAR:
  
                    RESTRICTED RIGHTS LEGEND
  
 Use, reproduction and disclosure by the US Government is
 subject to restrictions as set forth in subparagraphs (a)
 and (c) of the Commercial Computer Software - Restricted
 Rights clause in FAR 52.227-19.
  
 Gaussian, Inc.
 340 Quinnipiac St., Bldg. 40, Wallingford CT 06492
  
  
 ---------------------------------------------------------------
 Warning -- This program may not be used in any manner that
 competes with the business of Gaussian, Inc. or will provide
 assistance to any competitor of Gaussian, Inc.  The licensee
 of this program is prohibited from giving any competitor of
 Gaussian, Inc. access to this program.  By using this program,
 the user acknowledges that Gaussian, Inc. is engaged in the
 business of creating and licensing software in the field of
 computational chemistry and represents and warrants to the
 licensee that it is not a competitor of Gaussian, Inc. and that
 it will not use this program in any manner prohibited above.
 ---------------------------------------------------------------
  

 Cite this work as:
 Gaussian 16, Revision A.03,
 M. J. Frisch, G. W. Trucks, H. B. Schlegel, G. E. Scuseria, 
 M. A. Robb, J. R. Cheeseman, G. Scalmani, V. Barone, 
 G. A. Petersson, H. Nakatsuji, X. Li, M. Caricato, A. V. Marenich, 
 J. Bloino, B. G. Janesko, R. Gomperts, B. Mennucci, H. P. Hratchian, 
 J. V. Ortiz, A. F. Izmaylov, J. L. Sonnenberg, D. Williams-Young, 
 F. Ding, F. Lipparini, F. Egidi, J. Goings, B. Peng, A. Petrone, 
 T. Henderson, D. Ranasinghe, V. G. Zakrzewski, J. Gao, N. Rega, 
 G. Zheng, W. Liang, M. Hada, M. Ehara, K. Toyota, R. Fukuda, 
 J. Hasegawa, M. Ishida, T. Nakajima, Y. Honda, O. Kitao, H. Nakai, 
 T. Vreven, K. Throssell, J. A. Montgomery, Jr., J. E. Peralta, 
 F. Ogliaro, M. J. Bearpark, J. J. Heyd, E. N. Brothers, K. N. Kudin, 
 V. N. Staroverov, T. A. Keith, R. Kobayashi, J. Normand, 
 K. Raghavachari, A. P. Rendell, J. C. Burant, S. S. Iyengar, 
 J. Tomasi, M. Cossi, J. M. Millam, M. Klene, C. Adamo, R. Cammi, 
 J. W. Ochterski, R. L. Martin, K. Morokuma, O. Farkas, 
 J. B. Foresman, and D. J. Fox, Gaussian, Inc., Wallingford CT, 2016.
 
 ******************************************
 Gaussian 16:  ES64L-G16RevA.03 25-Dec-2016
                12-Feb-2020 
 ******************************************
 %chk=checkpoint.chk
 %mem=3GB
 %nprocshared=4
 Will use up to    4 processors via shared memory.
 -------------------------------------------------------------------
 #t pop=none jul-cc-pvdz guess=read ub97d3 empiricaldispersion=gd3bj
 -------------------------------------------------------------------
 ------------------------------
 theory_abbreviation b97d3_d3bj
 ------------------------------
 Symbolic Z-matrix:
 Charge =  0 Multiplicity = 6
 O                     0.2369    0.34132  -0.83935 
 C                     1.00772   1.31333  -0.65535 
 C                     3.11492   0.05495   0.46992 
 C                     2.57024  -0.97235  -0.21298 
 C                     2.93024  -1.24228  -1.64834 
 Fe                   -1.4672   -0.14786   0.02716 
 Cl                   -2.08964  -1.97313  -0.9775 
 C                     1.64056  -1.986     0.38662 
 Cl                   -2.65785   1.63476  -0.41959 
 Cl                   -1.11422  -0.37238   2.18192 
 H                     3.84043   0.67569  -0.05663 
 H                     2.15811  -2.9518    0.46715 
 H                     1.27388  -1.71769   1.37689 
 H                     0.77813  -2.15751  -0.26825 
 H                     3.36759  -2.24488  -1.741 
 H                     2.03309  -1.23809  -2.28116 
 H                     3.65346  -0.52299  -2.04314 
 C                     2.99918   0.31336   1.9481 
 H                     3.83518  -0.15968   2.48136 
 H                     3.05112   1.38339   2.17455 
 H                     2.07394  -0.07797   2.37873 
 C                     0.86532   2.19629   0.54381 
 H                     1.75314   2.80718   0.71075 
 H                     0.01679   2.86391   0.33088 
 H                     0.61237   1.62689   1.43845 
 C                     1.79922   1.82044  -1.82208 
 H                     1.19285   2.62059  -2.27219 
 H                     2.75076   2.25773  -1.51623 
 H                     1.94581   1.04519  -2.57183 
 
                    Distance matrix (angstroms):
                    1          2          3          4          5
     1  O    0.000000
     2  C    1.254127   0.000000
     3  C    3.174773   2.699999   0.000000
     4  C    2.750008   2.803829   1.348464   0.000000
     5  C    3.227430   3.348613   2.490762   1.504231   0.000000
     6  Fe   1.973340   2.953997   4.607917   4.127751   4.831403
     7  Cl   3.284595   4.527505   5.770233   4.827069   5.116970
     8  C    2.981554   3.517347   2.519156   1.500439   2.521395
     9  Cl   3.198242   3.687183   6.050772   5.845734   6.404206
    10  Cl   3.385699   3.923558   4.582481   4.435169   5.637835
    11  H    3.702686   2.964670   1.090379   2.086582   2.653405
    12  H    4.030217   4.557931   3.155321   2.133233   2.827359
    13  H    3.197899   3.658943   2.711873   2.182606   3.481599
    14  H    2.619776   3.499895   3.301579   2.149262   2.715486
    15  H    4.159645   4.405507   3.200192   2.142422   1.097762
    16  H    2.792783   3.194428   3.226561   2.153256   1.097884
    17  H    3.724118   3.506850   2.634294   2.173656   1.093752
    18  C    3.924392   3.426916   1.505059   2.550939   3.919071
    19  H    4.921962   4.472487   2.147261   3.085438   4.364091
    20  H    4.253164   3.491234   2.162082   3.388368   4.639311
    21  H    3.729156   3.504021   2.178276   2.786251   4.278569
    22  C    2.397705   1.495954   3.106680   3.676918   4.570900
    23  H    3.283639   2.157186   3.080130   3.975643   4.832074
    24  H    2.789505   2.087789   4.184247   4.640333   5.409822
    25  H    2.642361   2.153743   3.109952   3.649180   4.809667
    26  C    2.365252   1.498303   3.178249   3.314113   3.269498
    27  H    2.856914   2.087440   4.218534   4.364261   4.281292
    28  H    3.232696   2.161298   2.988248   3.487758   3.507097
    29  H    2.533240   2.150541   3.405817   3.166155   2.656017
                    6          7          8          9         10
     6  Fe   0.000000
     7  Cl   2.174494   0.000000
     8  C    3.628511   3.971825   0.000000
     9  Cl   2.189742   3.694727   5.677689   0.000000
    10  Cl   2.194989   3.673665   3.662739   3.630324   0.000000
    11  H    5.371787   6.559725   3.481444   6.578691   5.536970
    12  H    4.604185   4.592192   1.098691   6.709420   4.505770
    13  H    3.435056   4.113600   1.089534   5.470349   2.856733
    14  H    3.027778   2.959926   1.096377   5.119584   3.573649
    15  H    5.558694   5.517084   2.752533   7.287228   6.243572
    16  H    4.332315   4.385974   2.798300   5.807203   5.529381
    17  H    5.536065   6.018453   3.477916   6.864727   6.372173
    18  C    4.883767   6.299467   3.093723   6.273275   4.176710
    19  H    5.842801   7.096182   3.541146   7.334498   4.963002
    20  H    5.231750   6.901390   4.066839   6.275759   4.520271
    21  H    4.251400   5.673746   2.792297   5.757941   3.207765
    22  C    3.347028   5.332009   4.256434   3.695431   3.633184
    23  H    4.423810   6.361492   4.805444   4.702028   4.527214
    24  H    3.371229   5.435613   5.114810   3.037717   3.896033
    25  H    3.076695   5.108608   3.900833   3.761211   2.744253
    26  C    4.238323   5.497981   4.403693   4.676211   5.415590
    27  H    4.475172   5.792518   5.337639   4.385415   5.841193
    28  H    5.095104   6.451356   4.781489   5.553719   5.960860
    29  H    4.452723   5.285553   4.246609   5.115998   5.828500
                   11         12         13         14         15
    11  H    0.000000
    12  H    4.032766   0.000000
    13  H    3.790826   1.769895   0.000000
    14  H    4.177251   1.753869   1.773608   0.000000
    15  H    3.404466   2.615060   3.792469   2.980263   0.000000
    16  H    3.446377   3.241244   3.766661   2.544029   1.756785
    17  H    2.327663   3.799575   4.334319   3.753589   1.771413
    18  C    2.204070   3.682647   2.725449   3.993798   4.504421
    19  H    2.671933   3.829558   3.194912   4.571341   4.732336
    20  H    2.470224   4.744110   3.662175   4.865359   5.347528
    21  H    3.101525   3.452556   2.081455   3.606952   4.831280
    22  C    3.394704   5.308486   4.022454   4.429740   5.586209
    23  H    3.080407   5.778340   4.598678   5.153368   5.843017
    24  H    4.422516   6.198891   4.864707   5.114017   6.451375
    25  H    3.682447   4.929215   3.409923   4.154752   5.717587
    26  C    2.931522   5.305064   4.798724   4.391026   4.358118
    27  H    3.962459   6.283894   5.669482   5.197886   5.355791
    28  H    2.412609   5.605738   5.133739   4.994306   4.550223
    29  H    3.170542   5.025577   4.865939   4.114274   3.679170
                   16         17         18         19         20
    16  H    0.000000
    17  H    1.787068   0.000000
    18  C    4.607269   4.130083   0.000000
    19  H    5.204998   4.542696   1.098646   0.000000
    20  H    5.268953   4.667551   1.094962   1.757818   0.000000
    21  H    4.802305   4.716557   1.092998   1.766113   1.769788
    22  C    4.597726   4.675527   3.173447   4.257309   2.845671
    23  H    5.039252   4.720719   3.050045   4.033878   2.419640
    24  H    5.264459   5.507487   4.244441   5.324157   3.846845
    25  H    4.905308   5.098210   2.771633   3.829616   2.559036
    26  C    3.101618   2.996458   4.233848   5.156120   4.210862
    27  H    3.949112   3.998652   5.137804   6.108031   4.975683
    28  H    3.649784   2.970680   3.980436   4.795886   3.804807
    29  H    2.303358   2.377978   4.698395   5.527756   4.885103
                   21         22         23         24         25
    21  H    0.000000
    22  C    3.162268   0.000000
    23  H    3.348010   1.090538   0.000000
    24  H    4.132818   1.100479   1.778318   0.000000
    25  H    2.434516   1.090219   1.795547   1.763982   0.000000
    26  C    4.618040   2.571166   2.718643   2.983473   3.475222
    27  H    5.448824   2.866567   3.040839   2.866756   3.885008
    28  H    4.591768   2.793284   2.501315   3.354674   3.701463
    29  H    5.077990   3.492810   3.730557   3.931229   4.266006
                   26         27         28         29
    26  C    0.000000
    27  H    1.100242   0.000000
    28  H    1.090963   1.769252   0.000000
    29  H    1.088404   1.771618   1.797915   0.000000
 Framework group  C1[X(C8H16Cl3FeO)]
 Deg. of freedom    81
                         Standard orientation:                         
 ---------------------------------------------------------------------
 Center     Atomic      Atomic             Coordinates (Angstroms)
 Number     Number       Type             X           Y           Z
 ---------------------------------------------------------------------
      1          8           0        0.236897    0.341319   -0.839353
      2          6           0        1.007722    1.313330   -0.655345
      3          6           0        3.114916    0.054951    0.469915
      4          6           0        2.570240   -0.972345   -0.212980
      5          6           0        2.930236   -1.242275   -1.648338
      6         26           0       -1.467195   -0.147857    0.027163
      7         17           0       -2.089645   -1.973132   -0.977502
      8          6           0        1.640557   -1.985998    0.386616
      9         17           0       -2.657850    1.634760   -0.419589
     10         17           0       -1.114217   -0.372379    2.181919
     11          1           0        3.840427    0.675685   -0.056629
     12          1           0        2.158108   -2.951802    0.467151
     13          1           0        1.273879   -1.717685    1.376889
     14          1           0        0.778129   -2.157507   -0.268247
     15          1           0        3.367592   -2.244879   -1.741004
     16          1           0        2.033091   -1.238085   -2.281159
     17          1           0        3.653462   -0.522992   -2.043142
     18          6           0        2.999175    0.313360    1.948100
     19          1           0        3.835175   -0.159680    2.481355
     20          1           0        3.051125    1.383389    2.174551
     21          1           0        2.073940   -0.077970    2.378733
     22          6           0        0.865323    2.196290    0.543814
     23          1           0        1.753140    2.807180    0.710750
     24          1           0        0.016794    2.863906    0.330880
     25          1           0        0.612369    1.626891    1.438452
     26          6           0        1.799221    1.820442   -1.822083
     27          1           0        1.192845    2.620592   -2.272194
     28          1           0        2.750762    2.257734   -1.516229
     29          1           0        1.945812    1.045191   -2.571830
 ---------------------------------------------------------------------
 Rotational constants (GHZ):           0.5683239           0.3261973           0.3074018
   427 basis functions,  1056 primitive gaussians,   461 cartesian basis functions
    77 alpha electrons       72 beta electrons
       nuclear repulsion energy      1627.4731052150 Hartrees.
 NAtoms=   29 NActive=   29 NUniq=   29 SFac= 1.00D+00 NAtFMM=   60 NAOKFM=F Big=F
 Nuclear repulsion after empirical dispersion term =     1627.3735662691 Hartrees.
 Initial guess from the checkpoint file:  "checkpoint.chk"
 B after Tr=     0.000000    0.000000    0.000000
         Rot=    1.000000    0.000000    0.000000    0.000000 Ang=   0.00 deg.
 Initial guess <Sx>= 0.0000 <Sy>= 0.0000 <Sz>= 2.5000 <S**2>= 8.7617 S= 2.5019
 SCF Done:  E(UB97D3) =  -3034.63942758     A.U. after   16 cycles
            NFock= 16  Conv=0.56D-08     -V/T= 2.0019
 <Sx>= 0.0000 <Sy>= 0.0000 <Sz>= 2.5000 <S**2>= 8.7599 S= 2.5016
 <L.S>= 0.000000000000E+00
 Annihilation of the first spin contaminant:
 S**2 before annihilation     8.7599,   after     8.7500
 1\1\GINC-HOLY7C06204\SP\UB97D3\Jul-CC-pVDZ\C8H16Cl3Fe1O1(6)\EKWAN\12-F
 eb-2020\0\\#t pop=none jul-cc-pvdz guess=read ub97d3 empiricaldispersi
 on=gd3bj\\theory_abbreviation b97d3_d3bj\\0,6\O,0,0.236897,0.341319,-0
 .839353\C,0,1.007722,1.31333,-0.655345\C,0,3.114916,0.054951,0.469915\
 C,0,2.57024,-0.972345,-0.21298\C,0,2.930236,-1.242275,-1.648338\Fe,0,-
 1.467195,-0.147857,0.027163\Cl,0,-2.089645,-1.973132,-0.977502\C,0,1.6
 40557,-1.985998,0.386616\Cl,0,-2.65785,1.63476,-0.419589\Cl,0,-1.11421
 7,-0.372379,2.181919\H,0,3.840427,0.675685,-0.056629\H,0,2.158108,-2.9
 51802,0.467151\H,0,1.273879,-1.717685,1.376889\H,0,0.778129,-2.157507,
 -0.268247\H,0,3.367592,-2.244879,-1.741004\H,0,2.033091,-1.238085,-2.2
 81159\H,0,3.653462,-0.522992,-2.043142\C,0,2.999175,0.31336,1.9481\H,0
 ,3.835175,-0.15968,2.481355\H,0,3.051125,1.383389,2.174551\H,0,2.07394
 ,-0.07797,2.378733\C,0,0.865323,2.19629,0.543814\H,0,1.75314,2.80718,0
 .71075\H,0,0.016794,2.863906,0.33088\H,0,0.612369,1.626891,1.438452\C,
 0,1.799221,1.820442,-1.822083\H,0,1.192845,2.620592,-2.272194\H,0,2.75
 0762,2.257734,-1.516229\H,0,1.945812,1.045191,-2.57183\\Version=ES64L-
 G16RevA.03\HF=-3034.6394276\S2=8.759869\S2-1=0.\S2A=8.750031\RMSD=5.59
 2e-09\PG=C01 [X(C8H16Cl3Fe1O1)]\\@


 NECESSARY EVIL: ONE WE LIKE TOO MUCH TO RELINQUISH.
 Job cpu time:       0 days  0 hours 48 minutes 41.2 seconds.
 Elapsed time:       0 days  0 hours 12 minutes 12.7 seconds.
 File lengths (MBytes):  RWF=    174 Int=      0 D2E=      0 Chk=     13 Scr=      1
 Normal termination of Gaussian 16 at Wed Feb 12 22:31:06 2020.
