 Entering Gaussian System, Link 0=g16
 Input=simple-grid-270-295-b3lyp_d3bj-631gd-gas-singlepoint-DFT-juldz2-gas.gjf
 Output=simple-grid-270-295-b3lyp_d3bj-631gd-gas-singlepoint-DFT-juldz2-gas.out
 Initial command:
 /n/sw/g16_nehalem/g16/l1.exe "/scratch/Gau-361177.inp" -scrdir="/scratch/"
 Entering Link 1 = /n/sw/g16_nehalem/g16/l1.exe PID=    361188.
  
 Copyright (c) 1988,1990,1992,1993,1995,1998,2003,2009,2016,
            Gaussian, Inc.  All Rights Reserved.
  
 This is part of the Gaussian(R) 16 program.  It is based on
 the Gaussian(R) 09 system (copyright 2009, Gaussian, Inc.),
 the Gaussian(R) 03 system (copyright 2003, Gaussian, Inc.),
 the Gaussian(R) 98 system (copyright 1998, Gaussian, Inc.),
 the Gaussian(R) 94 system (copyright 1995, Gaussian, Inc.),
 the Gaussian 92(TM) system (copyright 1992, Gaussian, Inc.),
 the Gaussian 90(TM) system (copyright 1990, Gaussian, Inc.),
 the Gaussian 88(TM) system (copyright 1988, Gaussian, Inc.),
 the Gaussian 86(TM) system (copyright 1986, Carnegie Mellon
 University), and the Gaussian 82(TM) system (copyright 1983,
 Carnegie Mellon University). Gaussian is a federally registered
 trademark of Gaussian, Inc.
  
 This software contains proprietary and confidential information,
 including trade secrets, belonging to Gaussian, Inc.
  
 This software is provided under written license and may be
 used, copied, transmitted, or stored only in accord with that
 written license.
  
 The following legend is applicable only to US Government
 contracts under FAR:
  
                    RESTRICTED RIGHTS LEGEND
  
 Use, reproduction and disclosure by the US Government is
 subject to restrictions as set forth in subparagraphs (a)
 and (c) of the Commercial Computer Software - Restricted
 Rights clause in FAR 52.227-19.
  
 Gaussian, Inc.
 340 Quinnipiac St., Bldg. 40, Wallingford CT 06492
  
  
 ---------------------------------------------------------------
 Warning -- This program may not be used in any manner that
 competes with the business of Gaussian, Inc. or will provide
 assistance to any competitor of Gaussian, Inc.  The licensee
 of this program is prohibited from giving any competitor of
 Gaussian, Inc. access to this program.  By using this program,
 the user acknowledges that Gaussian, Inc. is engaged in the
 business of creating and licensing software in the field of
 computational chemistry and represents and warrants to the
 licensee that it is not a competitor of Gaussian, Inc. and that
 it will not use this program in any manner prohibited above.
 ---------------------------------------------------------------
  

 Cite this work as:
 Gaussian 16, Revision A.03,
 M. J. Frisch, G. W. Trucks, H. B. Schlegel, G. E. Scuseria, 
 M. A. Robb, J. R. Cheeseman, G. Scalmani, V. Barone, 
 G. A. Petersson, H. Nakatsuji, X. Li, M. Caricato, A. V. Marenich, 
 J. Bloino, B. G. Janesko, R. Gomperts, B. Mennucci, H. P. Hratchian, 
 J. V. Ortiz, A. F. Izmaylov, J. L. Sonnenberg, D. Williams-Young, 
 F. Ding, F. Lipparini, F. Egidi, J. Goings, B. Peng, A. Petrone, 
 T. Henderson, D. Ranasinghe, V. G. Zakrzewski, J. Gao, N. Rega, 
 G. Zheng, W. Liang, M. Hada, M. Ehara, K. Toyota, R. Fukuda, 
 J. Hasegawa, M. Ishida, T. Nakajima, Y. Honda, O. Kitao, H. Nakai, 
 T. Vreven, K. Throssell, J. A. Montgomery, Jr., J. E. Peralta, 
 F. Ogliaro, M. J. Bearpark, J. J. Heyd, E. N. Brothers, K. N. Kudin, 
 V. N. Staroverov, T. A. Keith, R. Kobayashi, J. Normand, 
 K. Raghavachari, A. P. Rendell, J. C. Burant, S. S. Iyengar, 
 J. Tomasi, M. Cossi, J. M. Millam, M. Klene, C. Adamo, R. Cammi, 
 J. W. Ochterski, R. L. Martin, K. Morokuma, O. Farkas, 
 J. B. Foresman, and D. J. Fox, Gaussian, Inc., Wallingford CT, 2016.
 
 ******************************************
 Gaussian 16:  ES64L-G16RevA.03 25-Dec-2016
                11-Feb-2020 
 ******************************************
 %chk=checkpoint.chk
 %mem=3GB
 %nprocshared=4
 Will use up to    4 processors via shared memory.
 --------------------------------
 #t pop=none jul-cc-pvdz upbe1pbe
 --------------------------------
 ------------------------
 theory_abbreviation pbe0
 ------------------------
 Symbolic Z-matrix:
 Charge =  0 Multiplicity = 6
 O                     0.17045   0.39667  -0.8866 
 C                     0.96868   1.34299  -0.68439 
 C                     3.04591   0.16004   0.5709 
 C                     2.70441  -0.92485  -0.15511 
 C                     3.23596  -1.13959  -1.54606 
 Fe                   -1.49318  -0.17102   0.00586 
 Cl                   -2.04864  -2.00872  -1.01477 
 C                     1.78737  -2.00845   0.33163 
 Cl                   -2.76644   1.56691  -0.37299 
 Cl                   -1.06609  -0.43271   2.14279 
 H                     3.75903   0.85304   0.12336 
 H                     2.31501  -2.97139   0.34124 
 H                     1.38633  -1.82878   1.32875 
 H                     0.94299  -2.12993  -0.36003 
 H                     3.79599  -2.08273  -1.59194 
 H                     2.41449  -1.23556  -2.26898 
 H                     3.90439  -0.33631  -1.86873 
 C                     2.76971   0.37753   2.03595 
 H                     3.55811  -0.09225   2.6397 
 H                     2.77422   1.4414    2.29143 
 H                     1.81454  -0.04263   2.35977 
 C                     0.79106   2.25751   0.48683 
 H                     1.67861   2.8616    0.67718 
 H                    -0.03957   2.92851   0.22072 
 H                     0.4924    1.71473   1.38394 
 C                     1.81038   1.80511  -1.83536 
 H                     1.2284    2.59091  -2.33947 
 H                     2.7527    2.24669  -1.50908 
 H                     1.98049   1.00093  -2.5492 
 
                    Distance matrix (angstroms):
                    1          2          3          4          5
     1  O    0.000000
     2  C    1.254423   0.000000
     3  C    3.232427   2.700001   0.000000
     4  C    2.949991   2.904474   1.349335   0.000000
     5  C    3.491753   3.470764   2.491321   1.504460   0.000000
     6  Fe   1.971398   2.971431   4.586086   4.267775   5.070635
     7  Cl   3.275165   4.521873   5.759541   4.950278   5.381886
     8  C    3.143743   3.596481   2.518636   1.500688   2.525679
     9  Cl   3.202899   3.754763   6.054223   6.015521   6.688050
    10  Cl   3.375514   3.909773   4.441925   4.442879   5.710946
    11  H    3.755819   2.945933   1.090452   2.085824   2.651624
    12  H    4.177386   4.634474   3.223787   2.141568   2.786675
    13  H    3.367313   3.779853   2.698879   2.180887   3.487215
    14  H    2.694036   3.488130   3.245440   2.144017   2.764991
    15  H    4.448534   4.533524   3.204765   2.143992   1.097841
    16  H    3.100139   3.354131   3.226660   2.156163   1.098474
    17  H    3.929903   3.583445   2.633471   2.173206   1.093690
    18  C    3.911245   3.402363   1.506637   2.549747   3.917887
    19  H    4.914276   4.451362   2.146140   3.038585   4.326808
    20  H    4.239217   3.482119   2.162384   3.404346   4.647688
    21  H    3.665370   3.449973   2.181138   2.809763   4.298745
    22  C    2.394614   1.496549   3.080715   3.768343   4.653006
    23  H    3.285698   2.159638   3.029723   4.010256   4.835037
    24  H    2.771360   2.085581   4.160193   4.745418   5.513615
    25  H    2.645051   2.154771   3.098151   3.772146   4.925363
    26  C    2.360769   1.498916   3.165894   3.327944   3.284390
    27  H    2.836327   2.089029   4.205086   4.394382   4.310036
    28  H    3.236980   2.163213   2.960811   3.448801   3.420787
    29  H    2.530926   2.149013   3.402536   3.156635   2.676624
                    6          7          8          9         10
     6  Fe   0.000000
     7  Cl   2.174253   0.000000
     8  C    3.774158   4.065432   0.000000
     9  Cl   2.187486   3.703001   5.832395   0.000000
    10  Cl   2.194846   3.663244   3.729004   3.635767   0.000000
    11  H    5.352396   6.573736   3.481228   6.583136   5.386370
    12  H    4.738865   4.669786   1.098064   6.850354   4.595896
    13  H    3.576281   4.162146   1.089665   5.627798   2.937009
    14  H    3.147403   3.064837   1.098236   5.237047   3.630572
    15  H    5.846611   5.873523   2.782115   7.607307   6.349056
    16  H    4.645212   4.700036   2.784563   6.187940   5.676501
    17  H    5.716215   6.242175   3.481292   7.096436   6.388051
    18  C    4.753354   6.182034   3.092346   6.153582   3.921892
    19  H    5.697267   6.961585   3.483470   7.199241   4.663269
    20  H    5.102392   6.789276   4.088542   6.149294   4.275789
    21  H    4.061820   5.493375   2.824629   5.571714   2.915011
    22  C    3.368497   5.340353   4.383505   3.724513   3.664482
    23  H    4.439332   6.362004   4.883504   4.747375   4.531432
    24  H    3.430187   5.471655   5.265314   3.105202   4.005731
    25  H    3.065560   5.106346   4.080003   3.705222   2.759752
    26  C    4.267163   5.487329   4.386299   4.810673   5.395144
    27  H    4.531640   5.800898   5.348019   4.568844   5.873461
    28  H    5.115445   6.434727   4.735638   5.675707   5.924390
    29  H    4.468570   5.257981   4.170470   5.252572   5.775090
                   11         12         13         14         15
    11  H    0.000000
    12  H    4.093766   0.000000
    13  H    3.778206   1.772899   0.000000
    14  H    4.130600   1.755636   1.771785   0.000000
    15  H    3.400347   2.592333   3.794912   3.107959   0.000000
    16  H    3.448670   3.136278   3.788493   2.570854   1.756309
    17  H    2.324674   3.788632   4.334971   3.776656   1.771537
    18  C    2.205195   3.780745   2.698457   3.919820   4.501967
    19  H    2.695536   3.888144   3.074212   4.470950   4.682451
    20  H    2.452863   4.846320   3.680637   4.810204   5.342662
    21  H    3.095927   3.592008   2.106345   3.537474   4.868683
    22  C    3.303557   5.448391   4.214372   4.471005   5.673497
    23  H    2.944340   5.877209   4.744434   5.150954   5.837682
    24  H    4.329704   6.353526   5.088488   5.185604   6.565795
    25  H    3.605893   5.135064   3.654951   4.245696   5.847248
    26  C    2.922364   5.273252   4.837003   4.291102   4.372322
    27  H    3.935706   6.269456   5.745820   5.126986   5.384629
    28  H    2.370611   5.553701   5.150698   4.873415   4.454123
    29  H    3.213661   4.924008   4.837228   3.958682   3.704234
                   16         17         18         19         20
    16  H    0.000000
    17  H    1.785679   0.000000
    18  C    4.610930   4.128392   0.000000
    19  H    5.168188   4.528291   1.098536   0.000000
    20  H    5.300269   4.663096   1.094128   1.757231   0.000000
    21  H    4.817499   4.725874   1.092578   1.766595   1.768617
    22  C    4.736197   4.687155   3.138338   4.220521   2.802774
    23  H    5.099809   4.654282   3.034367   4.013633   2.413118
    24  H    5.436949   5.529882   4.206496   5.283914   3.796938
    25  H    5.073707   5.140852   2.720183   3.773691   2.470825
    26  C    3.130283   2.995274   4.236195   5.165334   4.253425
    27  H    4.006702   3.993888   5.139942   6.117109   5.015590
    28  H    3.580213   2.850903   4.007654   4.830287   3.884943
    29  H    2.295382   2.439803   4.694156   5.532503   4.925005
                   21         22         23         24         25
    21  H    0.000000
    22  C    3.137841   0.000000
    23  H    3.359189   1.090374   0.000000
    24  H    4.103770   1.100450   1.779036   0.000000
    25  H    2.405961   1.090230   1.794974   1.763326   0.000000
    26  C    4.584020   2.576094   2.728798   2.985257   3.479819
    27  H    5.418663   2.879306   3.062041   2.876845   3.895273
    28  H    4.592283   2.798536   2.512261   3.354665   3.709647
    29  H    5.021402   3.494454   3.736667   3.933011   4.265384
                   26         27         28         29
    26  C    0.000000
    27  H    1.100142   0.000000
    28  H    1.090597   1.769612   0.000000
    29  H    1.088674   1.771344   1.797241   0.000000
 Framework group  C1[X(C8H16Cl3FeO)]
 Deg. of freedom    81
                         Standard orientation:                         
 ---------------------------------------------------------------------
 Center     Atomic      Atomic             Coordinates (Angstroms)
 Number     Number       Type             X           Y           Z
 ---------------------------------------------------------------------
      1          8           0        0.170449    0.396673   -0.886602
      2          6           0        0.968682    1.342988   -0.684390
      3          6           0        3.045909    0.160038    0.570903
      4          6           0        2.704407   -0.924851   -0.155112
      5          6           0        3.235961   -1.139586   -1.546061
      6         26           0       -1.493178   -0.171015    0.005859
      7         17           0       -2.048642   -2.008720   -1.014767
      8          6           0        1.787367   -2.008451    0.331625
      9         17           0       -2.766440    1.566907   -0.372991
     10         17           0       -1.066089   -0.432711    2.142786
     11          1           0        3.759026    0.853040    0.123357
     12          1           0        2.315006   -2.971389    0.341238
     13          1           0        1.386328   -1.828783    1.328749
     14          1           0        0.942989   -2.129933   -0.360032
     15          1           0        3.795985   -2.082731   -1.591940
     16          1           0        2.414486   -1.235561   -2.268981
     17          1           0        3.904386   -0.336312   -1.868733
     18          6           0        2.769708    0.377525    2.035952
     19          1           0        3.558113   -0.092252    2.639698
     20          1           0        2.774222    1.441399    2.291428
     21          1           0        1.814544   -0.042634    2.359765
     22          6           0        0.791055    2.257506    0.486834
     23          1           0        1.678613    2.861598    0.677175
     24          1           0       -0.039566    2.928506    0.220716
     25          1           0        0.492395    1.714733    1.383941
     26          6           0        1.810384    1.805114   -1.835357
     27          1           0        1.228397    2.590911   -2.339467
     28          1           0        2.752696    2.246691   -1.509075
     29          1           0        1.980487    1.000932   -2.549197
 ---------------------------------------------------------------------
 Rotational constants (GHZ):           0.5685421           0.3201977           0.3012417
   427 basis functions,  1056 primitive gaussians,   461 cartesian basis functions
    77 alpha electrons       72 beta electrons
       nuclear repulsion energy      1619.5981134906 Hartrees.
 NAtoms=   29 NActive=   29 NUniq=   29 SFac= 1.00D+00 NAtFMM=   60 NAOKFM=F Big=F
 ExpMin= 1.40D-02 ExpMax= 4.32D+06 ExpMxC= 4.91D+03 IAcc=3 IRadAn=         5 AccDes= 0.00D+00
 Harris functional with IExCor= 1009 and IRadAn=       5 diagonalized for initial guess.
 HarFok:  IExCor= 1009 AccDes= 0.00D+00 IRadAn=         5 IDoV= 1 UseB2=F ITyADJ=14
 ICtDFT=  3500011 ScaDFX=  1.000000  1.000000  1.000000  1.000000
 FoFCou: FMM=F IPFlag=           0 FMFlag=      100000 FMFlg1=           0
         NFxFlg=           0 DoJE=T BraDBF=F KetDBF=T FulRan=T
         wScrn=  0.000000 ICntrl=       500 IOpCl=  0 I1Cent=   200000004 NGrid=           0
         NMat0=    1 NMatS0=      1 NMatT0=    0 NMatD0=    1 NMtDS0=    0 NMtDT0=    0
 Petite list used in FoFCou.
 Initial guess <Sx>= 0.0000 <Sy>= 0.0000 <Sz>= 2.5000 <S**2>= 8.7500 S= 2.5000
 EnCoef did   100 forward-backward iterations
 SCF Done:  E(UPBE1PBE) =  -3033.13634246     A.U. after   19 cycles
            NFock= 19  Conv=0.99D-08     -V/T= 2.0021
 <Sx>= 0.0000 <Sy>= 0.0000 <Sz>= 2.5000 <S**2>= 8.7629 S= 2.5021
 <L.S>= 0.000000000000E+00
 Annihilation of the first spin contaminant:
 S**2 before annihilation     8.7629,   after     8.7501
 1\1\GINC-HOLY7C04211\SP\UPBE1PBE\Jul-CC-pVDZ\C8H16Cl3Fe1O1(6)\EKWAN\11
 -Feb-2020\0\\#t pop=none jul-cc-pvdz upbe1pbe\\theory_abbreviation pbe
 0\\0,6\O,0,0.170449,0.396673,-0.886602\C,0,0.968682,1.342988,-0.68439\
 C,0,3.045909,0.160038,0.570903\C,0,2.704407,-0.924851,-0.155112\C,0,3.
 235961,-1.139586,-1.546061\Fe,0,-1.493178,-0.171015,0.005859\Cl,0,-2.0
 48642,-2.00872,-1.014767\C,0,1.787367,-2.008451,0.331625\Cl,0,-2.76644
 ,1.566907,-0.372991\Cl,0,-1.066089,-0.432711,2.142786\H,0,3.759026,0.8
 5304,0.123357\H,0,2.315006,-2.971389,0.341238\H,0,1.386328,-1.828783,1
 .328749\H,0,0.942989,-2.129933,-0.360032\H,0,3.795985,-2.082731,-1.591
 94\H,0,2.414486,-1.235561,-2.268981\H,0,3.904386,-0.336312,-1.868733\C
 ,0,2.769708,0.377525,2.035952\H,0,3.558113,-0.092252,2.639698\H,0,2.77
 4222,1.441399,2.291428\H,0,1.814544,-0.042634,2.359765\C,0,0.791055,2.
 257506,0.486834\H,0,1.678613,2.861598,0.677175\H,0,-0.039566,2.928506,
 0.220716\H,0,0.492395,1.714733,1.383941\C,0,1.810384,1.805114,-1.83535
 7\H,0,1.228397,2.590911,-2.339467\H,0,2.752696,2.246691,-1.509075\H,0,
 1.980487,1.000932,-2.549197\\Version=ES64L-G16RevA.03\HF=-3033.1363425
 \S2=8.762878\S2-1=0.\S2A=8.750051\RMSD=9.881e-09\PG=C01 [X(C8H16Cl3Fe1
 O1)]\\@


 STEINBACH'S GUIDELINES FOR SYSTEMS PROGRAMMING:
 NEVER TEST FOR AN ERROR CONDITION YOU DON'T KNOW HOW
 TO HANDLE.
 Job cpu time:       0 days  1 hours 20 minutes 23.0 seconds.
 Elapsed time:       0 days  0 hours 20 minutes 11.2 seconds.
 File lengths (MBytes):  RWF=    173 Int=      0 D2E=      0 Chk=     13 Scr=      1
 Normal termination of Gaussian 16 at Tue Feb 11 13:58:01 2020.
 Initial command:
 /n/sw/g16_nehalem/g16/l1.exe "/scratch/Gau-361177.inp" -scrdir="/scratch/"
 Entering Link 1 = /n/sw/g16_nehalem/g16/l1.exe PID=    362756.
  
 Copyright (c) 1988,1990,1992,1993,1995,1998,2003,2009,2016,
            Gaussian, Inc.  All Rights Reserved.
  
 This is part of the Gaussian(R) 16 program.  It is based on
 the Gaussian(R) 09 system (copyright 2009, Gaussian, Inc.),
 the Gaussian(R) 03 system (copyright 2003, Gaussian, Inc.),
 the Gaussian(R) 98 system (copyright 1998, Gaussian, Inc.),
 the Gaussian(R) 94 system (copyright 1995, Gaussian, Inc.),
 the Gaussian 92(TM) system (copyright 1992, Gaussian, Inc.),
 the Gaussian 90(TM) system (copyright 1990, Gaussian, Inc.),
 the Gaussian 88(TM) system (copyright 1988, Gaussian, Inc.),
 the Gaussian 86(TM) system (copyright 1986, Carnegie Mellon
 University), and the Gaussian 82(TM) system (copyright 1983,
 Carnegie Mellon University). Gaussian is a federally registered
 trademark of Gaussian, Inc.
  
 This software contains proprietary and confidential information,
 including trade secrets, belonging to Gaussian, Inc.
  
 This software is provided under written license and may be
 used, copied, transmitted, or stored only in accord with that
 written license.
  
 The following legend is applicable only to US Government
 contracts under FAR:
  
                    RESTRICTED RIGHTS LEGEND
  
 Use, reproduction and disclosure by the US Government is
 subject to restrictions as set forth in subparagraphs (a)
 and (c) of the Commercial Computer Software - Restricted
 Rights clause in FAR 52.227-19.
  
 Gaussian, Inc.
 340 Quinnipiac St., Bldg. 40, Wallingford CT 06492
  
  
 ---------------------------------------------------------------
 Warning -- This program may not be used in any manner that
 competes with the business of Gaussian, Inc. or will provide
 assistance to any competitor of Gaussian, Inc.  The licensee
 of this program is prohibited from giving any competitor of
 Gaussian, Inc. access to this program.  By using this program,
 the user acknowledges that Gaussian, Inc. is engaged in the
 business of creating and licensing software in the field of
 computational chemistry and represents and warrants to the
 licensee that it is not a competitor of Gaussian, Inc. and that
 it will not use this program in any manner prohibited above.
 ---------------------------------------------------------------
  

 Cite this work as:
 Gaussian 16, Revision A.03,
 M. J. Frisch, G. W. Trucks, H. B. Schlegel, G. E. Scuseria, 
 M. A. Robb, J. R. Cheeseman, G. Scalmani, V. Barone, 
 G. A. Petersson, H. Nakatsuji, X. Li, M. Caricato, A. V. Marenich, 
 J. Bloino, B. G. Janesko, R. Gomperts, B. Mennucci, H. P. Hratchian, 
 J. V. Ortiz, A. F. Izmaylov, J. L. Sonnenberg, D. Williams-Young, 
 F. Ding, F. Lipparini, F. Egidi, J. Goings, B. Peng, A. Petrone, 
 T. Henderson, D. Ranasinghe, V. G. Zakrzewski, J. Gao, N. Rega, 
 G. Zheng, W. Liang, M. Hada, M. Ehara, K. Toyota, R. Fukuda, 
 J. Hasegawa, M. Ishida, T. Nakajima, Y. Honda, O. Kitao, H. Nakai, 
 T. Vreven, K. Throssell, J. A. Montgomery, Jr., J. E. Peralta, 
 F. Ogliaro, M. J. Bearpark, J. J. Heyd, E. N. Brothers, K. N. Kudin, 
 V. N. Staroverov, T. A. Keith, R. Kobayashi, J. Normand, 
 K. Raghavachari, A. P. Rendell, J. C. Burant, S. S. Iyengar, 
 J. Tomasi, M. Cossi, J. M. Millam, M. Klene, C. Adamo, R. Cammi, 
 J. W. Ochterski, R. L. Martin, K. Morokuma, O. Farkas, 
 J. B. Foresman, and D. J. Fox, Gaussian, Inc., Wallingford CT, 2016.
 
 ******************************************
 Gaussian 16:  ES64L-G16RevA.03 25-Dec-2016
                11-Feb-2020 
 ******************************************
 %chk=checkpoint.chk
 %mem=3GB
 %nprocshared=4
 Will use up to    4 processors via shared memory.
 ---------------------------------------------------------------------
 #t pop=none jul-cc-pvdz guess=read upbe1pbe empiricaldispersion=gd3bj
 ---------------------------------------------------------------------
 -----------------------------
 theory_abbreviation pbe0_d3bj
 -----------------------------
 Symbolic Z-matrix:
 Charge =  0 Multiplicity = 6
 O                     0.17045   0.39667  -0.8866 
 C                     0.96868   1.34299  -0.68439 
 C                     3.04591   0.16004   0.5709 
 C                     2.70441  -0.92485  -0.15511 
 C                     3.23596  -1.13959  -1.54606 
 Fe                   -1.49318  -0.17102   0.00586 
 Cl                   -2.04864  -2.00872  -1.01477 
 C                     1.78737  -2.00845   0.33163 
 Cl                   -2.76644   1.56691  -0.37299 
 Cl                   -1.06609  -0.43271   2.14279 
 H                     3.75903   0.85304   0.12336 
 H                     2.31501  -2.97139   0.34124 
 H                     1.38633  -1.82878   1.32875 
 H                     0.94299  -2.12993  -0.36003 
 H                     3.79599  -2.08273  -1.59194 
 H                     2.41449  -1.23556  -2.26898 
 H                     3.90439  -0.33631  -1.86873 
 C                     2.76971   0.37753   2.03595 
 H                     3.55811  -0.09225   2.6397 
 H                     2.77422   1.4414    2.29143 
 H                     1.81454  -0.04263   2.35977 
 C                     0.79106   2.25751   0.48683 
 H                     1.67861   2.8616    0.67718 
 H                    -0.03957   2.92851   0.22072 
 H                     0.4924    1.71473   1.38394 
 C                     1.81038   1.80511  -1.83536 
 H                     1.2284    2.59091  -2.33947 
 H                     2.7527    2.24669  -1.50908 
 H                     1.98049   1.00093  -2.5492 
 
                    Distance matrix (angstroms):
                    1          2          3          4          5
     1  O    0.000000
     2  C    1.254423   0.000000
     3  C    3.232427   2.700001   0.000000
     4  C    2.949991   2.904474   1.349335   0.000000
     5  C    3.491753   3.470764   2.491321   1.504460   0.000000
     6  Fe   1.971398   2.971431   4.586086   4.267775   5.070635
     7  Cl   3.275165   4.521873   5.759541   4.950278   5.381886
     8  C    3.143743   3.596481   2.518636   1.500688   2.525679
     9  Cl   3.202899   3.754763   6.054223   6.015521   6.688050
    10  Cl   3.375514   3.909773   4.441925   4.442879   5.710946
    11  H    3.755819   2.945933   1.090452   2.085824   2.651624
    12  H    4.177386   4.634474   3.223787   2.141568   2.786675
    13  H    3.367313   3.779853   2.698879   2.180887   3.487215
    14  H    2.694036   3.488130   3.245440   2.144017   2.764991
    15  H    4.448534   4.533524   3.204765   2.143992   1.097841
    16  H    3.100139   3.354131   3.226660   2.156163   1.098474
    17  H    3.929903   3.583445   2.633471   2.173206   1.093690
    18  C    3.911245   3.402363   1.506637   2.549747   3.917887
    19  H    4.914276   4.451362   2.146140   3.038585   4.326808
    20  H    4.239217   3.482119   2.162384   3.404346   4.647688
    21  H    3.665370   3.449973   2.181138   2.809763   4.298745
    22  C    2.394614   1.496549   3.080715   3.768343   4.653006
    23  H    3.285698   2.159638   3.029723   4.010256   4.835037
    24  H    2.771360   2.085581   4.160193   4.745418   5.513615
    25  H    2.645051   2.154771   3.098151   3.772146   4.925363
    26  C    2.360769   1.498916   3.165894   3.327944   3.284390
    27  H    2.836327   2.089029   4.205086   4.394382   4.310036
    28  H    3.236980   2.163213   2.960811   3.448801   3.420787
    29  H    2.530926   2.149013   3.402536   3.156635   2.676624
                    6          7          8          9         10
     6  Fe   0.000000
     7  Cl   2.174253   0.000000
     8  C    3.774158   4.065432   0.000000
     9  Cl   2.187486   3.703001   5.832395   0.000000
    10  Cl   2.194846   3.663244   3.729004   3.635767   0.000000
    11  H    5.352396   6.573736   3.481228   6.583136   5.386370
    12  H    4.738865   4.669786   1.098064   6.850354   4.595896
    13  H    3.576281   4.162146   1.089665   5.627798   2.937009
    14  H    3.147403   3.064837   1.098236   5.237047   3.630572
    15  H    5.846611   5.873523   2.782115   7.607307   6.349056
    16  H    4.645212   4.700036   2.784563   6.187940   5.676501
    17  H    5.716215   6.242175   3.481292   7.096436   6.388051
    18  C    4.753354   6.182034   3.092346   6.153582   3.921892
    19  H    5.697267   6.961585   3.483470   7.199241   4.663269
    20  H    5.102392   6.789276   4.088542   6.149294   4.275789
    21  H    4.061820   5.493375   2.824629   5.571714   2.915011
    22  C    3.368497   5.340353   4.383505   3.724513   3.664482
    23  H    4.439332   6.362004   4.883504   4.747375   4.531432
    24  H    3.430187   5.471655   5.265314   3.105202   4.005731
    25  H    3.065560   5.106346   4.080003   3.705222   2.759752
    26  C    4.267163   5.487329   4.386299   4.810673   5.395144
    27  H    4.531640   5.800898   5.348019   4.568844   5.873461
    28  H    5.115445   6.434727   4.735638   5.675707   5.924390
    29  H    4.468570   5.257981   4.170470   5.252572   5.775090
                   11         12         13         14         15
    11  H    0.000000
    12  H    4.093766   0.000000
    13  H    3.778206   1.772899   0.000000
    14  H    4.130600   1.755636   1.771785   0.000000
    15  H    3.400347   2.592333   3.794912   3.107959   0.000000
    16  H    3.448670   3.136278   3.788493   2.570854   1.756309
    17  H    2.324674   3.788632   4.334971   3.776656   1.771537
    18  C    2.205195   3.780745   2.698457   3.919820   4.501967
    19  H    2.695536   3.888144   3.074212   4.470950   4.682451
    20  H    2.452863   4.846320   3.680637   4.810204   5.342662
    21  H    3.095927   3.592008   2.106345   3.537474   4.868683
    22  C    3.303557   5.448391   4.214372   4.471005   5.673497
    23  H    2.944340   5.877209   4.744434   5.150954   5.837682
    24  H    4.329704   6.353526   5.088488   5.185604   6.565795
    25  H    3.605893   5.135064   3.654951   4.245696   5.847248
    26  C    2.922364   5.273252   4.837003   4.291102   4.372322
    27  H    3.935706   6.269456   5.745820   5.126986   5.384629
    28  H    2.370611   5.553701   5.150698   4.873415   4.454123
    29  H    3.213661   4.924008   4.837228   3.958682   3.704234
                   16         17         18         19         20
    16  H    0.000000
    17  H    1.785679   0.000000
    18  C    4.610930   4.128392   0.000000
    19  H    5.168188   4.528291   1.098536   0.000000
    20  H    5.300269   4.663096   1.094128   1.757231   0.000000
    21  H    4.817499   4.725874   1.092578   1.766595   1.768617
    22  C    4.736197   4.687155   3.138338   4.220521   2.802774
    23  H    5.099809   4.654282   3.034367   4.013633   2.413118
    24  H    5.436949   5.529882   4.206496   5.283914   3.796938
    25  H    5.073707   5.140852   2.720183   3.773691   2.470825
    26  C    3.130283   2.995274   4.236195   5.165334   4.253425
    27  H    4.006702   3.993888   5.139942   6.117109   5.015590
    28  H    3.580213   2.850903   4.007654   4.830287   3.884943
    29  H    2.295382   2.439803   4.694156   5.532503   4.925005
                   21         22         23         24         25
    21  H    0.000000
    22  C    3.137841   0.000000
    23  H    3.359189   1.090374   0.000000
    24  H    4.103770   1.100450   1.779036   0.000000
    25  H    2.405961   1.090230   1.794974   1.763326   0.000000
    26  C    4.584020   2.576094   2.728798   2.985257   3.479819
    27  H    5.418663   2.879306   3.062041   2.876845   3.895273
    28  H    4.592283   2.798536   2.512261   3.354665   3.709647
    29  H    5.021402   3.494454   3.736667   3.933011   4.265384
                   26         27         28         29
    26  C    0.000000
    27  H    1.100142   0.000000
    28  H    1.090597   1.769612   0.000000
    29  H    1.088674   1.771344   1.797241   0.000000
 Framework group  C1[X(C8H16Cl3FeO)]
 Deg. of freedom    81
                         Standard orientation:                         
 ---------------------------------------------------------------------
 Center     Atomic      Atomic             Coordinates (Angstroms)
 Number     Number       Type             X           Y           Z
 ---------------------------------------------------------------------
      1          8           0        0.170449    0.396673   -0.886602
      2          6           0        0.968682    1.342988   -0.684390
      3          6           0        3.045909    0.160038    0.570903
      4          6           0        2.704407   -0.924851   -0.155112
      5          6           0        3.235961   -1.139586   -1.546061
      6         26           0       -1.493178   -0.171015    0.005859
      7         17           0       -2.048642   -2.008720   -1.014767
      8          6           0        1.787367   -2.008451    0.331625
      9         17           0       -2.766440    1.566907   -0.372991
     10         17           0       -1.066089   -0.432711    2.142786
     11          1           0        3.759026    0.853040    0.123357
     12          1           0        2.315006   -2.971389    0.341238
     13          1           0        1.386328   -1.828783    1.328749
     14          1           0        0.942989   -2.129933   -0.360032
     15          1           0        3.795985   -2.082731   -1.591940
     16          1           0        2.414486   -1.235561   -2.268981
     17          1           0        3.904386   -0.336312   -1.868733
     18          6           0        2.769708    0.377525    2.035952
     19          1           0        3.558113   -0.092252    2.639698
     20          1           0        2.774222    1.441399    2.291428
     21          1           0        1.814544   -0.042634    2.359765
     22          6           0        0.791055    2.257506    0.486834
     23          1           0        1.678613    2.861598    0.677175
     24          1           0       -0.039566    2.928506    0.220716
     25          1           0        0.492395    1.714733    1.383941
     26          6           0        1.810384    1.805114   -1.835357
     27          1           0        1.228397    2.590911   -2.339467
     28          1           0        2.752696    2.246691   -1.509075
     29          1           0        1.980487    1.000932   -2.549197
 ---------------------------------------------------------------------
 Rotational constants (GHZ):           0.5685421           0.3201977           0.3012417
   427 basis functions,  1056 primitive gaussians,   461 cartesian basis functions
    77 alpha electrons       72 beta electrons
       nuclear repulsion energy      1619.5981134906 Hartrees.
 NAtoms=   29 NActive=   29 NUniq=   29 SFac= 1.00D+00 NAtFMM=   60 NAOKFM=F Big=F
 Nuclear repulsion after empirical dispersion term =     1619.5617903894 Hartrees.
 Initial guess from the checkpoint file:  "checkpoint.chk"
 B after Tr=     0.000000    0.000000    0.000000
         Rot=    1.000000    0.000000    0.000000    0.000000 Ang=   0.00 deg.
 Initial guess <Sx>= 0.0000 <Sy>= 0.0000 <Sz>= 2.5000 <S**2>= 8.7629 S= 2.5021
 SCF Done:  E(UPBE1PBE) =  -3033.17266556     A.U. after    1 cycles
            NFock=  1  Conv=0.63D-08     -V/T= 2.0021
 <Sx>= 0.0000 <Sy>= 0.0000 <Sz>= 2.5000 <S**2>= 8.7629 S= 2.5021
 <L.S>= 0.000000000000E+00
 Annihilation of the first spin contaminant:
 S**2 before annihilation     8.7629,   after     8.7501
 1\1\GINC-HOLY7C04211\SP\UPBE1PBE\Jul-CC-pVDZ\C8H16Cl3Fe1O1(6)\EKWAN\11
 -Feb-2020\0\\#t pop=none jul-cc-pvdz guess=read upbe1pbe empiricaldisp
 ersion=gd3bj\\theory_abbreviation pbe0_d3bj\\0,6\O,0,0.170449,0.396673
 ,-0.886602\C,0,0.968682,1.342988,-0.68439\C,0,3.045909,0.160038,0.5709
 03\C,0,2.704407,-0.924851,-0.155112\C,0,3.235961,-1.139586,-1.546061\F
 e,0,-1.493178,-0.171015,0.005859\Cl,0,-2.048642,-2.00872,-1.014767\C,0
 ,1.787367,-2.008451,0.331625\Cl,0,-2.76644,1.566907,-0.372991\Cl,0,-1.
 066089,-0.432711,2.142786\H,0,3.759026,0.85304,0.123357\H,0,2.315006,-
 2.971389,0.341238\H,0,1.386328,-1.828783,1.328749\H,0,0.942989,-2.1299
 33,-0.360032\H,0,3.795985,-2.082731,-1.59194\H,0,2.414486,-1.235561,-2
 .268981\H,0,3.904386,-0.336312,-1.868733\C,0,2.769708,0.377525,2.03595
 2\H,0,3.558113,-0.092252,2.639698\H,0,2.774222,1.441399,2.291428\H,0,1
 .814544,-0.042634,2.359765\C,0,0.791055,2.257506,0.486834\H,0,1.678613
 ,2.861598,0.677175\H,0,-0.039566,2.928506,0.220716\H,0,0.492395,1.7147
 33,1.383941\C,0,1.810384,1.805114,-1.835357\H,0,1.228397,2.590911,-2.3
 39467\H,0,2.752696,2.246691,-1.509075\H,0,1.980487,1.000932,-2.549197\
 \Version=ES64L-G16RevA.03\HF=-3033.1726656\S2=8.762878\S2-1=0.\S2A=8.7
 50051\RMSD=6.300e-09\PG=C01 [X(C8H16Cl3Fe1O1)]\\@


 HONESTY IN A LAWYER IS LIKE A HEN'S HIND LEGS.
  -- MAGNUS OLESON, LAKE WOBEGON PATRIARCH, C.1875
 Job cpu time:       0 days  0 hours  4 minutes 34.2 seconds.
 Elapsed time:       0 days  0 hours  1 minutes  9.1 seconds.
 File lengths (MBytes):  RWF=    170 Int=      0 D2E=      0 Chk=     13 Scr=      1
 Normal termination of Gaussian 16 at Tue Feb 11 13:59:11 2020.
 Initial command:
 /n/sw/g16_nehalem/g16/l1.exe "/scratch/Gau-361177.inp" -scrdir="/scratch/"
 Entering Link 1 = /n/sw/g16_nehalem/g16/l1.exe PID=    363052.
  
 Copyright (c) 1988,1990,1992,1993,1995,1998,2003,2009,2016,
            Gaussian, Inc.  All Rights Reserved.
  
 This is part of the Gaussian(R) 16 program.  It is based on
 the Gaussian(R) 09 system (copyright 2009, Gaussian, Inc.),
 the Gaussian(R) 03 system (copyright 2003, Gaussian, Inc.),
 the Gaussian(R) 98 system (copyright 1998, Gaussian, Inc.),
 the Gaussian(R) 94 system (copyright 1995, Gaussian, Inc.),
 the Gaussian 92(TM) system (copyright 1992, Gaussian, Inc.),
 the Gaussian 90(TM) system (copyright 1990, Gaussian, Inc.),
 the Gaussian 88(TM) system (copyright 1988, Gaussian, Inc.),
 the Gaussian 86(TM) system (copyright 1986, Carnegie Mellon
 University), and the Gaussian 82(TM) system (copyright 1983,
 Carnegie Mellon University). Gaussian is a federally registered
 trademark of Gaussian, Inc.
  
 This software contains proprietary and confidential information,
 including trade secrets, belonging to Gaussian, Inc.
  
 This software is provided under written license and may be
 used, copied, transmitted, or stored only in accord with that
 written license.
  
 The following legend is applicable only to US Government
 contracts under FAR:
  
                    RESTRICTED RIGHTS LEGEND
  
 Use, reproduction and disclosure by the US Government is
 subject to restrictions as set forth in subparagraphs (a)
 and (c) of the Commercial Computer Software - Restricted
 Rights clause in FAR 52.227-19.
  
 Gaussian, Inc.
 340 Quinnipiac St., Bldg. 40, Wallingford CT 06492
  
  
 ---------------------------------------------------------------
 Warning -- This program may not be used in any manner that
 competes with the business of Gaussian, Inc. or will provide
 assistance to any competitor of Gaussian, Inc.  The licensee
 of this program is prohibited from giving any competitor of
 Gaussian, Inc. access to this program.  By using this program,
 the user acknowledges that Gaussian, Inc. is engaged in the
 business of creating and licensing software in the field of
 computational chemistry and represents and warrants to the
 licensee that it is not a competitor of Gaussian, Inc. and that
 it will not use this program in any manner prohibited above.
 ---------------------------------------------------------------
  

 Cite this work as:
 Gaussian 16, Revision A.03,
 M. J. Frisch, G. W. Trucks, H. B. Schlegel, G. E. Scuseria, 
 M. A. Robb, J. R. Cheeseman, G. Scalmani, V. Barone, 
 G. A. Petersson, H. Nakatsuji, X. Li, M. Caricato, A. V. Marenich, 
 J. Bloino, B. G. Janesko, R. Gomperts, B. Mennucci, H. P. Hratchian, 
 J. V. Ortiz, A. F. Izmaylov, J. L. Sonnenberg, D. Williams-Young, 
 F. Ding, F. Lipparini, F. Egidi, J. Goings, B. Peng, A. Petrone, 
 T. Henderson, D. Ranasinghe, V. G. Zakrzewski, J. Gao, N. Rega, 
 G. Zheng, W. Liang, M. Hada, M. Ehara, K. Toyota, R. Fukuda, 
 J. Hasegawa, M. Ishida, T. Nakajima, Y. Honda, O. Kitao, H. Nakai, 
 T. Vreven, K. Throssell, J. A. Montgomery, Jr., J. E. Peralta, 
 F. Ogliaro, M. J. Bearpark, J. J. Heyd, E. N. Brothers, K. N. Kudin, 
 V. N. Staroverov, T. A. Keith, R. Kobayashi, J. Normand, 
 K. Raghavachari, A. P. Rendell, J. C. Burant, S. S. Iyengar, 
 J. Tomasi, M. Cossi, J. M. Millam, M. Klene, C. Adamo, R. Cammi, 
 J. W. Ochterski, R. L. Martin, K. Morokuma, O. Farkas, 
 J. B. Foresman, and D. J. Fox, Gaussian, Inc., Wallingford CT, 2016.
 
 ******************************************
 Gaussian 16:  ES64L-G16RevA.03 25-Dec-2016
                11-Feb-2020 
 ******************************************
 %chk=checkpoint.chk
 %mem=3GB
 %nprocshared=4
 Will use up to    4 processors via shared memory.
 -----------------------------------------
 #t pop=none jul-cc-pvdz guess=read ub3lyp
 -----------------------------------------
 -------------------------
 theory_abbreviation b3lyp
 -------------------------
 Symbolic Z-matrix:
 Charge =  0 Multiplicity = 6
 O                     0.17045   0.39667  -0.8866 
 C                     0.96868   1.34299  -0.68439 
 C                     3.04591   0.16004   0.5709 
 C                     2.70441  -0.92485  -0.15511 
 C                     3.23596  -1.13959  -1.54606 
 Fe                   -1.49318  -0.17102   0.00586 
 Cl                   -2.04864  -2.00872  -1.01477 
 C                     1.78737  -2.00845   0.33163 
 Cl                   -2.76644   1.56691  -0.37299 
 Cl                   -1.06609  -0.43271   2.14279 
 H                     3.75903   0.85304   0.12336 
 H                     2.31501  -2.97139   0.34124 
 H                     1.38633  -1.82878   1.32875 
 H                     0.94299  -2.12993  -0.36003 
 H                     3.79599  -2.08273  -1.59194 
 H                     2.41449  -1.23556  -2.26898 
 H                     3.90439  -0.33631  -1.86873 
 C                     2.76971   0.37753   2.03595 
 H                     3.55811  -0.09225   2.6397 
 H                     2.77422   1.4414    2.29143 
 H                     1.81454  -0.04263   2.35977 
 C                     0.79106   2.25751   0.48683 
 H                     1.67861   2.8616    0.67718 
 H                    -0.03957   2.92851   0.22072 
 H                     0.4924    1.71473   1.38394 
 C                     1.81038   1.80511  -1.83536 
 H                     1.2284    2.59091  -2.33947 
 H                     2.7527    2.24669  -1.50908 
 H                     1.98049   1.00093  -2.5492 
 
                    Distance matrix (angstroms):
                    1          2          3          4          5
     1  O    0.000000
     2  C    1.254423   0.000000
     3  C    3.232427   2.700001   0.000000
     4  C    2.949991   2.904474   1.349335   0.000000
     5  C    3.491753   3.470764   2.491321   1.504460   0.000000
     6  Fe   1.971398   2.971431   4.586086   4.267775   5.070635
     7  Cl   3.275165   4.521873   5.759541   4.950278   5.381886
     8  C    3.143743   3.596481   2.518636   1.500688   2.525679
     9  Cl   3.202899   3.754763   6.054223   6.015521   6.688050
    10  Cl   3.375514   3.909773   4.441925   4.442879   5.710946
    11  H    3.755819   2.945933   1.090452   2.085824   2.651624
    12  H    4.177386   4.634474   3.223787   2.141568   2.786675
    13  H    3.367313   3.779853   2.698879   2.180887   3.487215
    14  H    2.694036   3.488130   3.245440   2.144017   2.764991
    15  H    4.448534   4.533524   3.204765   2.143992   1.097841
    16  H    3.100139   3.354131   3.226660   2.156163   1.098474
    17  H    3.929903   3.583445   2.633471   2.173206   1.093690
    18  C    3.911245   3.402363   1.506637   2.549747   3.917887
    19  H    4.914276   4.451362   2.146140   3.038585   4.326808
    20  H    4.239217   3.482119   2.162384   3.404346   4.647688
    21  H    3.665370   3.449973   2.181138   2.809763   4.298745
    22  C    2.394614   1.496549   3.080715   3.768343   4.653006
    23  H    3.285698   2.159638   3.029723   4.010256   4.835037
    24  H    2.771360   2.085581   4.160193   4.745418   5.513615
    25  H    2.645051   2.154771   3.098151   3.772146   4.925363
    26  C    2.360769   1.498916   3.165894   3.327944   3.284390
    27  H    2.836327   2.089029   4.205086   4.394382   4.310036
    28  H    3.236980   2.163213   2.960811   3.448801   3.420787
    29  H    2.530926   2.149013   3.402536   3.156635   2.676624
                    6          7          8          9         10
     6  Fe   0.000000
     7  Cl   2.174253   0.000000
     8  C    3.774158   4.065432   0.000000
     9  Cl   2.187486   3.703001   5.832395   0.000000
    10  Cl   2.194846   3.663244   3.729004   3.635767   0.000000
    11  H    5.352396   6.573736   3.481228   6.583136   5.386370
    12  H    4.738865   4.669786   1.098064   6.850354   4.595896
    13  H    3.576281   4.162146   1.089665   5.627798   2.937009
    14  H    3.147403   3.064837   1.098236   5.237047   3.630572
    15  H    5.846611   5.873523   2.782115   7.607307   6.349056
    16  H    4.645212   4.700036   2.784563   6.187940   5.676501
    17  H    5.716215   6.242175   3.481292   7.096436   6.388051
    18  C    4.753354   6.182034   3.092346   6.153582   3.921892
    19  H    5.697267   6.961585   3.483470   7.199241   4.663269
    20  H    5.102392   6.789276   4.088542   6.149294   4.275789
    21  H    4.061820   5.493375   2.824629   5.571714   2.915011
    22  C    3.368497   5.340353   4.383505   3.724513   3.664482
    23  H    4.439332   6.362004   4.883504   4.747375   4.531432
    24  H    3.430187   5.471655   5.265314   3.105202   4.005731
    25  H    3.065560   5.106346   4.080003   3.705222   2.759752
    26  C    4.267163   5.487329   4.386299   4.810673   5.395144
    27  H    4.531640   5.800898   5.348019   4.568844   5.873461
    28  H    5.115445   6.434727   4.735638   5.675707   5.924390
    29  H    4.468570   5.257981   4.170470   5.252572   5.775090
                   11         12         13         14         15
    11  H    0.000000
    12  H    4.093766   0.000000
    13  H    3.778206   1.772899   0.000000
    14  H    4.130600   1.755636   1.771785   0.000000
    15  H    3.400347   2.592333   3.794912   3.107959   0.000000
    16  H    3.448670   3.136278   3.788493   2.570854   1.756309
    17  H    2.324674   3.788632   4.334971   3.776656   1.771537
    18  C    2.205195   3.780745   2.698457   3.919820   4.501967
    19  H    2.695536   3.888144   3.074212   4.470950   4.682451
    20  H    2.452863   4.846320   3.680637   4.810204   5.342662
    21  H    3.095927   3.592008   2.106345   3.537474   4.868683
    22  C    3.303557   5.448391   4.214372   4.471005   5.673497
    23  H    2.944340   5.877209   4.744434   5.150954   5.837682
    24  H    4.329704   6.353526   5.088488   5.185604   6.565795
    25  H    3.605893   5.135064   3.654951   4.245696   5.847248
    26  C    2.922364   5.273252   4.837003   4.291102   4.372322
    27  H    3.935706   6.269456   5.745820   5.126986   5.384629
    28  H    2.370611   5.553701   5.150698   4.873415   4.454123
    29  H    3.213661   4.924008   4.837228   3.958682   3.704234
                   16         17         18         19         20
    16  H    0.000000
    17  H    1.785679   0.000000
    18  C    4.610930   4.128392   0.000000
    19  H    5.168188   4.528291   1.098536   0.000000
    20  H    5.300269   4.663096   1.094128   1.757231   0.000000
    21  H    4.817499   4.725874   1.092578   1.766595   1.768617
    22  C    4.736197   4.687155   3.138338   4.220521   2.802774
    23  H    5.099809   4.654282   3.034367   4.013633   2.413118
    24  H    5.436949   5.529882   4.206496   5.283914   3.796938
    25  H    5.073707   5.140852   2.720183   3.773691   2.470825
    26  C    3.130283   2.995274   4.236195   5.165334   4.253425
    27  H    4.006702   3.993888   5.139942   6.117109   5.015590
    28  H    3.580213   2.850903   4.007654   4.830287   3.884943
    29  H    2.295382   2.439803   4.694156   5.532503   4.925005
                   21         22         23         24         25
    21  H    0.000000
    22  C    3.137841   0.000000
    23  H    3.359189   1.090374   0.000000
    24  H    4.103770   1.100450   1.779036   0.000000
    25  H    2.405961   1.090230   1.794974   1.763326   0.000000
    26  C    4.584020   2.576094   2.728798   2.985257   3.479819
    27  H    5.418663   2.879306   3.062041   2.876845   3.895273
    28  H    4.592283   2.798536   2.512261   3.354665   3.709647
    29  H    5.021402   3.494454   3.736667   3.933011   4.265384
                   26         27         28         29
    26  C    0.000000
    27  H    1.100142   0.000000
    28  H    1.090597   1.769612   0.000000
    29  H    1.088674   1.771344   1.797241   0.000000
 Framework group  C1[X(C8H16Cl3FeO)]
 Deg. of freedom    81
                         Standard orientation:                         
 ---------------------------------------------------------------------
 Center     Atomic      Atomic             Coordinates (Angstroms)
 Number     Number       Type             X           Y           Z
 ---------------------------------------------------------------------
      1          8           0        0.170449    0.396673   -0.886602
      2          6           0        0.968682    1.342988   -0.684390
      3          6           0        3.045909    0.160038    0.570903
      4          6           0        2.704407   -0.924851   -0.155112
      5          6           0        3.235961   -1.139586   -1.546061
      6         26           0       -1.493178   -0.171015    0.005859
      7         17           0       -2.048642   -2.008720   -1.014767
      8          6           0        1.787367   -2.008451    0.331625
      9         17           0       -2.766440    1.566907   -0.372991
     10         17           0       -1.066089   -0.432711    2.142786
     11          1           0        3.759026    0.853040    0.123357
     12          1           0        2.315006   -2.971389    0.341238
     13          1           0        1.386328   -1.828783    1.328749
     14          1           0        0.942989   -2.129933   -0.360032
     15          1           0        3.795985   -2.082731   -1.591940
     16          1           0        2.414486   -1.235561   -2.268981
     17          1           0        3.904386   -0.336312   -1.868733
     18          6           0        2.769708    0.377525    2.035952
     19          1           0        3.558113   -0.092252    2.639698
     20          1           0        2.774222    1.441399    2.291428
     21          1           0        1.814544   -0.042634    2.359765
     22          6           0        0.791055    2.257506    0.486834
     23          1           0        1.678613    2.861598    0.677175
     24          1           0       -0.039566    2.928506    0.220716
     25          1           0        0.492395    1.714733    1.383941
     26          6           0        1.810384    1.805114   -1.835357
     27          1           0        1.228397    2.590911   -2.339467
     28          1           0        2.752696    2.246691   -1.509075
     29          1           0        1.980487    1.000932   -2.549197
 ---------------------------------------------------------------------
 Rotational constants (GHZ):           0.5685421           0.3201977           0.3012417
   427 basis functions,  1056 primitive gaussians,   461 cartesian basis functions
    77 alpha electrons       72 beta electrons
       nuclear repulsion energy      1619.5981134906 Hartrees.
 NAtoms=   29 NActive=   29 NUniq=   29 SFac= 1.00D+00 NAtFMM=   60 NAOKFM=F Big=F
 Initial guess from the checkpoint file:  "checkpoint.chk"
 B after Tr=     0.000000    0.000000    0.000000
         Rot=    1.000000    0.000000    0.000000    0.000000 Ang=   0.00 deg.
 Initial guess <Sx>= 0.0000 <Sy>= 0.0000 <Sz>= 2.5000 <S**2>= 8.7629 S= 2.5021
 SCF Done:  E(UB3LYP) =  -3034.35474517     A.U. after   13 cycles
            NFock= 13  Conv=0.70D-08     -V/T= 2.0024
 <Sx>= 0.0000 <Sy>= 0.0000 <Sz>= 2.5000 <S**2>= 8.7622 S= 2.5020
 <L.S>= 0.000000000000E+00
 Annihilation of the first spin contaminant:
 S**2 before annihilation     8.7622,   after     8.7500
 1\1\GINC-HOLY7C04211\SP\UB3LYP\Jul-CC-pVDZ\C8H16Cl3Fe1O1(6)\EKWAN\11-F
 eb-2020\0\\#t pop=none jul-cc-pvdz guess=read ub3lyp\\theory_abbreviat
 ion b3lyp\\0,6\O,0,0.170449,0.396673,-0.886602\C,0,0.968682,1.342988,-
 0.68439\C,0,3.045909,0.160038,0.570903\C,0,2.704407,-0.924851,-0.15511
 2\C,0,3.235961,-1.139586,-1.546061\Fe,0,-1.493178,-0.171015,0.005859\C
 l,0,-2.048642,-2.00872,-1.014767\C,0,1.787367,-2.008451,0.331625\Cl,0,
 -2.76644,1.566907,-0.372991\Cl,0,-1.066089,-0.432711,2.142786\H,0,3.75
 9026,0.85304,0.123357\H,0,2.315006,-2.971389,0.341238\H,0,1.386328,-1.
 828783,1.328749\H,0,0.942989,-2.129933,-0.360032\H,0,3.795985,-2.08273
 1,-1.59194\H,0,2.414486,-1.235561,-2.268981\H,0,3.904386,-0.336312,-1.
 868733\C,0,2.769708,0.377525,2.035952\H,0,3.558113,-0.092252,2.639698\
 H,0,2.774222,1.441399,2.291428\H,0,1.814544,-0.042634,2.359765\C,0,0.7
 91055,2.257506,0.486834\H,0,1.678613,2.861598,0.677175\H,0,-0.039566,2
 .928506,0.220716\H,0,0.492395,1.714733,1.383941\C,0,1.810384,1.805114,
 -1.835357\H,0,1.228397,2.590911,-2.339467\H,0,2.752696,2.246691,-1.509
 075\H,0,1.980487,1.000932,-2.549197\\Version=ES64L-G16RevA.03\HF=-3034
 .3547452\S2=8.762168\S2-1=0.\S2A=8.750046\RMSD=6.964e-09\PG=C01 [X(C8H
 16Cl3Fe1O1)]\\@


 YOU CANNOT THROW TO THE GROUND THE LETTERS OF
 THE GREEK ALPHABET AND PICK UP THE ILIAD.
        - RUFUS CHOATE, 1799-1859
 Job cpu time:       0 days  0 hours 53 minutes 59.4 seconds.
 Elapsed time:       0 days  0 hours 13 minutes 32.5 seconds.
 File lengths (MBytes):  RWF=    174 Int=      0 D2E=      0 Chk=     13 Scr=      1
 Normal termination of Gaussian 16 at Tue Feb 11 14:12:44 2020.
 Initial command:
 /n/sw/g16_nehalem/g16/l1.exe "/scratch/Gau-361177.inp" -scrdir="/scratch/"
 Entering Link 1 = /n/sw/g16_nehalem/g16/l1.exe PID=    364279.
  
 Copyright (c) 1988,1990,1992,1993,1995,1998,2003,2009,2016,
            Gaussian, Inc.  All Rights Reserved.
  
 This is part of the Gaussian(R) 16 program.  It is based on
 the Gaussian(R) 09 system (copyright 2009, Gaussian, Inc.),
 the Gaussian(R) 03 system (copyright 2003, Gaussian, Inc.),
 the Gaussian(R) 98 system (copyright 1998, Gaussian, Inc.),
 the Gaussian(R) 94 system (copyright 1995, Gaussian, Inc.),
 the Gaussian 92(TM) system (copyright 1992, Gaussian, Inc.),
 the Gaussian 90(TM) system (copyright 1990, Gaussian, Inc.),
 the Gaussian 88(TM) system (copyright 1988, Gaussian, Inc.),
 the Gaussian 86(TM) system (copyright 1986, Carnegie Mellon
 University), and the Gaussian 82(TM) system (copyright 1983,
 Carnegie Mellon University). Gaussian is a federally registered
 trademark of Gaussian, Inc.
  
 This software contains proprietary and confidential information,
 including trade secrets, belonging to Gaussian, Inc.
  
 This software is provided under written license and may be
 used, copied, transmitted, or stored only in accord with that
 written license.
  
 The following legend is applicable only to US Government
 contracts under FAR:
  
                    RESTRICTED RIGHTS LEGEND
  
 Use, reproduction and disclosure by the US Government is
 subject to restrictions as set forth in subparagraphs (a)
 and (c) of the Commercial Computer Software - Restricted
 Rights clause in FAR 52.227-19.
  
 Gaussian, Inc.
 340 Quinnipiac St., Bldg. 40, Wallingford CT 06492
  
  
 ---------------------------------------------------------------
 Warning -- This program may not be used in any manner that
 competes with the business of Gaussian, Inc. or will provide
 assistance to any competitor of Gaussian, Inc.  The licensee
 of this program is prohibited from giving any competitor of
 Gaussian, Inc. access to this program.  By using this program,
 the user acknowledges that Gaussian, Inc. is engaged in the
 business of creating and licensing software in the field of
 computational chemistry and represents and warrants to the
 licensee that it is not a competitor of Gaussian, Inc. and that
 it will not use this program in any manner prohibited above.
 ---------------------------------------------------------------
  

 Cite this work as:
 Gaussian 16, Revision A.03,
 M. J. Frisch, G. W. Trucks, H. B. Schlegel, G. E. Scuseria, 
 M. A. Robb, J. R. Cheeseman, G. Scalmani, V. Barone, 
 G. A. Petersson, H. Nakatsuji, X. Li, M. Caricato, A. V. Marenich, 
 J. Bloino, B. G. Janesko, R. Gomperts, B. Mennucci, H. P. Hratchian, 
 J. V. Ortiz, A. F. Izmaylov, J. L. Sonnenberg, D. Williams-Young, 
 F. Ding, F. Lipparini, F. Egidi, J. Goings, B. Peng, A. Petrone, 
 T. Henderson, D. Ranasinghe, V. G. Zakrzewski, J. Gao, N. Rega, 
 G. Zheng, W. Liang, M. Hada, M. Ehara, K. Toyota, R. Fukuda, 
 J. Hasegawa, M. Ishida, T. Nakajima, Y. Honda, O. Kitao, H. Nakai, 
 T. Vreven, K. Throssell, J. A. Montgomery, Jr., J. E. Peralta, 
 F. Ogliaro, M. J. Bearpark, J. J. Heyd, E. N. Brothers, K. N. Kudin, 
 V. N. Staroverov, T. A. Keith, R. Kobayashi, J. Normand, 
 K. Raghavachari, A. P. Rendell, J. C. Burant, S. S. Iyengar, 
 J. Tomasi, M. Cossi, J. M. Millam, M. Klene, C. Adamo, R. Cammi, 
 J. W. Ochterski, R. L. Martin, K. Morokuma, O. Farkas, 
 J. B. Foresman, and D. J. Fox, Gaussian, Inc., Wallingford CT, 2016.
 
 ******************************************
 Gaussian 16:  ES64L-G16RevA.03 25-Dec-2016
                11-Feb-2020 
 ******************************************
 %chk=checkpoint.chk
 %mem=3GB
 %nprocshared=4
 Will use up to    4 processors via shared memory.
 -------------------------------------------------------------------
 #t pop=none jul-cc-pvdz guess=read ub3lyp empiricaldispersion=gd3bj
 -------------------------------------------------------------------
 ------------------------------
 theory_abbreviation b3lyp_d3bj
 ------------------------------
 Symbolic Z-matrix:
 Charge =  0 Multiplicity = 6
 O                     0.17045   0.39667  -0.8866 
 C                     0.96868   1.34299  -0.68439 
 C                     3.04591   0.16004   0.5709 
 C                     2.70441  -0.92485  -0.15511 
 C                     3.23596  -1.13959  -1.54606 
 Fe                   -1.49318  -0.17102   0.00586 
 Cl                   -2.04864  -2.00872  -1.01477 
 C                     1.78737  -2.00845   0.33163 
 Cl                   -2.76644   1.56691  -0.37299 
 Cl                   -1.06609  -0.43271   2.14279 
 H                     3.75903   0.85304   0.12336 
 H                     2.31501  -2.97139   0.34124 
 H                     1.38633  -1.82878   1.32875 
 H                     0.94299  -2.12993  -0.36003 
 H                     3.79599  -2.08273  -1.59194 
 H                     2.41449  -1.23556  -2.26898 
 H                     3.90439  -0.33631  -1.86873 
 C                     2.76971   0.37753   2.03595 
 H                     3.55811  -0.09225   2.6397 
 H                     2.77422   1.4414    2.29143 
 H                     1.81454  -0.04263   2.35977 
 C                     0.79106   2.25751   0.48683 
 H                     1.67861   2.8616    0.67718 
 H                    -0.03957   2.92851   0.22072 
 H                     0.4924    1.71473   1.38394 
 C                     1.81038   1.80511  -1.83536 
 H                     1.2284    2.59091  -2.33947 
 H                     2.7527    2.24669  -1.50908 
 H                     1.98049   1.00093  -2.5492 
 
                    Distance matrix (angstroms):
                    1          2          3          4          5
     1  O    0.000000
     2  C    1.254423   0.000000
     3  C    3.232427   2.700001   0.000000
     4  C    2.949991   2.904474   1.349335   0.000000
     5  C    3.491753   3.470764   2.491321   1.504460   0.000000
     6  Fe   1.971398   2.971431   4.586086   4.267775   5.070635
     7  Cl   3.275165   4.521873   5.759541   4.950278   5.381886
     8  C    3.143743   3.596481   2.518636   1.500688   2.525679
     9  Cl   3.202899   3.754763   6.054223   6.015521   6.688050
    10  Cl   3.375514   3.909773   4.441925   4.442879   5.710946
    11  H    3.755819   2.945933   1.090452   2.085824   2.651624
    12  H    4.177386   4.634474   3.223787   2.141568   2.786675
    13  H    3.367313   3.779853   2.698879   2.180887   3.487215
    14  H    2.694036   3.488130   3.245440   2.144017   2.764991
    15  H    4.448534   4.533524   3.204765   2.143992   1.097841
    16  H    3.100139   3.354131   3.226660   2.156163   1.098474
    17  H    3.929903   3.583445   2.633471   2.173206   1.093690
    18  C    3.911245   3.402363   1.506637   2.549747   3.917887
    19  H    4.914276   4.451362   2.146140   3.038585   4.326808
    20  H    4.239217   3.482119   2.162384   3.404346   4.647688
    21  H    3.665370   3.449973   2.181138   2.809763   4.298745
    22  C    2.394614   1.496549   3.080715   3.768343   4.653006
    23  H    3.285698   2.159638   3.029723   4.010256   4.835037
    24  H    2.771360   2.085581   4.160193   4.745418   5.513615
    25  H    2.645051   2.154771   3.098151   3.772146   4.925363
    26  C    2.360769   1.498916   3.165894   3.327944   3.284390
    27  H    2.836327   2.089029   4.205086   4.394382   4.310036
    28  H    3.236980   2.163213   2.960811   3.448801   3.420787
    29  H    2.530926   2.149013   3.402536   3.156635   2.676624
                    6          7          8          9         10
     6  Fe   0.000000
     7  Cl   2.174253   0.000000
     8  C    3.774158   4.065432   0.000000
     9  Cl   2.187486   3.703001   5.832395   0.000000
    10  Cl   2.194846   3.663244   3.729004   3.635767   0.000000
    11  H    5.352396   6.573736   3.481228   6.583136   5.386370
    12  H    4.738865   4.669786   1.098064   6.850354   4.595896
    13  H    3.576281   4.162146   1.089665   5.627798   2.937009
    14  H    3.147403   3.064837   1.098236   5.237047   3.630572
    15  H    5.846611   5.873523   2.782115   7.607307   6.349056
    16  H    4.645212   4.700036   2.784563   6.187940   5.676501
    17  H    5.716215   6.242175   3.481292   7.096436   6.388051
    18  C    4.753354   6.182034   3.092346   6.153582   3.921892
    19  H    5.697267   6.961585   3.483470   7.199241   4.663269
    20  H    5.102392   6.789276   4.088542   6.149294   4.275789
    21  H    4.061820   5.493375   2.824629   5.571714   2.915011
    22  C    3.368497   5.340353   4.383505   3.724513   3.664482
    23  H    4.439332   6.362004   4.883504   4.747375   4.531432
    24  H    3.430187   5.471655   5.265314   3.105202   4.005731
    25  H    3.065560   5.106346   4.080003   3.705222   2.759752
    26  C    4.267163   5.487329   4.386299   4.810673   5.395144
    27  H    4.531640   5.800898   5.348019   4.568844   5.873461
    28  H    5.115445   6.434727   4.735638   5.675707   5.924390
    29  H    4.468570   5.257981   4.170470   5.252572   5.775090
                   11         12         13         14         15
    11  H    0.000000
    12  H    4.093766   0.000000
    13  H    3.778206   1.772899   0.000000
    14  H    4.130600   1.755636   1.771785   0.000000
    15  H    3.400347   2.592333   3.794912   3.107959   0.000000
    16  H    3.448670   3.136278   3.788493   2.570854   1.756309
    17  H    2.324674   3.788632   4.334971   3.776656   1.771537
    18  C    2.205195   3.780745   2.698457   3.919820   4.501967
    19  H    2.695536   3.888144   3.074212   4.470950   4.682451
    20  H    2.452863   4.846320   3.680637   4.810204   5.342662
    21  H    3.095927   3.592008   2.106345   3.537474   4.868683
    22  C    3.303557   5.448391   4.214372   4.471005   5.673497
    23  H    2.944340   5.877209   4.744434   5.150954   5.837682
    24  H    4.329704   6.353526   5.088488   5.185604   6.565795
    25  H    3.605893   5.135064   3.654951   4.245696   5.847248
    26  C    2.922364   5.273252   4.837003   4.291102   4.372322
    27  H    3.935706   6.269456   5.745820   5.126986   5.384629
    28  H    2.370611   5.553701   5.150698   4.873415   4.454123
    29  H    3.213661   4.924008   4.837228   3.958682   3.704234
                   16         17         18         19         20
    16  H    0.000000
    17  H    1.785679   0.000000
    18  C    4.610930   4.128392   0.000000
    19  H    5.168188   4.528291   1.098536   0.000000
    20  H    5.300269   4.663096   1.094128   1.757231   0.000000
    21  H    4.817499   4.725874   1.092578   1.766595   1.768617
    22  C    4.736197   4.687155   3.138338   4.220521   2.802774
    23  H    5.099809   4.654282   3.034367   4.013633   2.413118
    24  H    5.436949   5.529882   4.206496   5.283914   3.796938
    25  H    5.073707   5.140852   2.720183   3.773691   2.470825
    26  C    3.130283   2.995274   4.236195   5.165334   4.253425
    27  H    4.006702   3.993888   5.139942   6.117109   5.015590
    28  H    3.580213   2.850903   4.007654   4.830287   3.884943
    29  H    2.295382   2.439803   4.694156   5.532503   4.925005
                   21         22         23         24         25
    21  H    0.000000
    22  C    3.137841   0.000000
    23  H    3.359189   1.090374   0.000000
    24  H    4.103770   1.100450   1.779036   0.000000
    25  H    2.405961   1.090230   1.794974   1.763326   0.000000
    26  C    4.584020   2.576094   2.728798   2.985257   3.479819
    27  H    5.418663   2.879306   3.062041   2.876845   3.895273
    28  H    4.592283   2.798536   2.512261   3.354665   3.709647
    29  H    5.021402   3.494454   3.736667   3.933011   4.265384
                   26         27         28         29
    26  C    0.000000
    27  H    1.100142   0.000000
    28  H    1.090597   1.769612   0.000000
    29  H    1.088674   1.771344   1.797241   0.000000
 Framework group  C1[X(C8H16Cl3FeO)]
 Deg. of freedom    81
                         Standard orientation:                         
 ---------------------------------------------------------------------
 Center     Atomic      Atomic             Coordinates (Angstroms)
 Number     Number       Type             X           Y           Z
 ---------------------------------------------------------------------
      1          8           0        0.170449    0.396673   -0.886602
      2          6           0        0.968682    1.342988   -0.684390
      3          6           0        3.045909    0.160038    0.570903
      4          6           0        2.704407   -0.924851   -0.155112
      5          6           0        3.235961   -1.139586   -1.546061
      6         26           0       -1.493178   -0.171015    0.005859
      7         17           0       -2.048642   -2.008720   -1.014767
      8          6           0        1.787367   -2.008451    0.331625
      9         17           0       -2.766440    1.566907   -0.372991
     10         17           0       -1.066089   -0.432711    2.142786
     11          1           0        3.759026    0.853040    0.123357
     12          1           0        2.315006   -2.971389    0.341238
     13          1           0        1.386328   -1.828783    1.328749
     14          1           0        0.942989   -2.129933   -0.360032
     15          1           0        3.795985   -2.082731   -1.591940
     16          1           0        2.414486   -1.235561   -2.268981
     17          1           0        3.904386   -0.336312   -1.868733
     18          6           0        2.769708    0.377525    2.035952
     19          1           0        3.558113   -0.092252    2.639698
     20          1           0        2.774222    1.441399    2.291428
     21          1           0        1.814544   -0.042634    2.359765
     22          6           0        0.791055    2.257506    0.486834
     23          1           0        1.678613    2.861598    0.677175
     24          1           0       -0.039566    2.928506    0.220716
     25          1           0        0.492395    1.714733    1.383941
     26          6           0        1.810384    1.805114   -1.835357
     27          1           0        1.228397    2.590911   -2.339467
     28          1           0        2.752696    2.246691   -1.509075
     29          1           0        1.980487    1.000932   -2.549197
 ---------------------------------------------------------------------
 Rotational constants (GHZ):           0.5685421           0.3201977           0.3012417
   427 basis functions,  1056 primitive gaussians,   461 cartesian basis functions
    77 alpha electrons       72 beta electrons
       nuclear repulsion energy      1619.5981134906 Hartrees.
 NAtoms=   29 NActive=   29 NUniq=   29 SFac= 1.00D+00 NAtFMM=   60 NAOKFM=F Big=F
 Nuclear repulsion after empirical dispersion term =     1619.5308638325 Hartrees.
 Initial guess from the checkpoint file:  "checkpoint.chk"
 B after Tr=     0.000000    0.000000    0.000000
         Rot=    1.000000    0.000000    0.000000    0.000000 Ang=   0.00 deg.
 Initial guess <Sx>= 0.0000 <Sy>= 0.0000 <Sz>= 2.5000 <S**2>= 8.7622 S= 2.5020
 SCF Done:  E(UB3LYP) =  -3034.42199483     A.U. after    1 cycles
            NFock=  1  Conv=0.51D-08     -V/T= 2.0024
 <Sx>= 0.0000 <Sy>= 0.0000 <Sz>= 2.5000 <S**2>= 8.7622 S= 2.5020
 <L.S>= 0.000000000000E+00
 Annihilation of the first spin contaminant:
 S**2 before annihilation     8.7622,   after     8.7500
 1\1\GINC-HOLY7C04211\SP\UB3LYP\Jul-CC-pVDZ\C8H16Cl3Fe1O1(6)\EKWAN\11-F
 eb-2020\0\\#t pop=none jul-cc-pvdz guess=read ub3lyp empiricaldispersi
 on=gd3bj\\theory_abbreviation b3lyp_d3bj\\0,6\O,0,0.170449,0.396673,-0
 .886602\C,0,0.968682,1.342988,-0.68439\C,0,3.045909,0.160038,0.570903\
 C,0,2.704407,-0.924851,-0.155112\C,0,3.235961,-1.139586,-1.546061\Fe,0
 ,-1.493178,-0.171015,0.005859\Cl,0,-2.048642,-2.00872,-1.014767\C,0,1.
 787367,-2.008451,0.331625\Cl,0,-2.76644,1.566907,-0.372991\Cl,0,-1.066
 089,-0.432711,2.142786\H,0,3.759026,0.85304,0.123357\H,0,2.315006,-2.9
 71389,0.341238\H,0,1.386328,-1.828783,1.328749\H,0,0.942989,-2.129933,
 -0.360032\H,0,3.795985,-2.082731,-1.59194\H,0,2.414486,-1.235561,-2.26
 8981\H,0,3.904386,-0.336312,-1.868733\C,0,2.769708,0.377525,2.035952\H
 ,0,3.558113,-0.092252,2.639698\H,0,2.774222,1.441399,2.291428\H,0,1.81
 4544,-0.042634,2.359765\C,0,0.791055,2.257506,0.486834\H,0,1.678613,2.
 861598,0.677175\H,0,-0.039566,2.928506,0.220716\H,0,0.492395,1.714733,
 1.383941\C,0,1.810384,1.805114,-1.835357\H,0,1.228397,2.590911,-2.3394
 67\H,0,2.752696,2.246691,-1.509075\H,0,1.980487,1.000932,-2.549197\\Ve
 rsion=ES64L-G16RevA.03\HF=-3034.4219948\S2=8.762168\S2-1=0.\S2A=8.7500
 46\RMSD=5.118e-09\PG=C01 [X(C8H16Cl3Fe1O1)]\\@


 IF GOD HAD MEANT MAN TO SEE THE SUN RISE, HE
 WOULD HAVE SCHEDULED IT FOR A LATER HOUR.
 Job cpu time:       0 days  0 hours  4 minutes 33.5 seconds.
 Elapsed time:       0 days  0 hours  1 minutes  8.8 seconds.
 File lengths (MBytes):  RWF=    170 Int=      0 D2E=      0 Chk=     13 Scr=      1
 Normal termination of Gaussian 16 at Tue Feb 11 14:13:54 2020.
 Initial command:
 /n/sw/g16_nehalem/g16/l1.exe "/scratch/Gau-361177.inp" -scrdir="/scratch/"
 Entering Link 1 = /n/sw/g16_nehalem/g16/l1.exe PID=    364487.
  
 Copyright (c) 1988,1990,1992,1993,1995,1998,2003,2009,2016,
            Gaussian, Inc.  All Rights Reserved.
  
 This is part of the Gaussian(R) 16 program.  It is based on
 the Gaussian(R) 09 system (copyright 2009, Gaussian, Inc.),
 the Gaussian(R) 03 system (copyright 2003, Gaussian, Inc.),
 the Gaussian(R) 98 system (copyright 1998, Gaussian, Inc.),
 the Gaussian(R) 94 system (copyright 1995, Gaussian, Inc.),
 the Gaussian 92(TM) system (copyright 1992, Gaussian, Inc.),
 the Gaussian 90(TM) system (copyright 1990, Gaussian, Inc.),
 the Gaussian 88(TM) system (copyright 1988, Gaussian, Inc.),
 the Gaussian 86(TM) system (copyright 1986, Carnegie Mellon
 University), and the Gaussian 82(TM) system (copyright 1983,
 Carnegie Mellon University). Gaussian is a federally registered
 trademark of Gaussian, Inc.
  
 This software contains proprietary and confidential information,
 including trade secrets, belonging to Gaussian, Inc.
  
 This software is provided under written license and may be
 used, copied, transmitted, or stored only in accord with that
 written license.
  
 The following legend is applicable only to US Government
 contracts under FAR:
  
                    RESTRICTED RIGHTS LEGEND
  
 Use, reproduction and disclosure by the US Government is
 subject to restrictions as set forth in subparagraphs (a)
 and (c) of the Commercial Computer Software - Restricted
 Rights clause in FAR 52.227-19.
  
 Gaussian, Inc.
 340 Quinnipiac St., Bldg. 40, Wallingford CT 06492
  
  
 ---------------------------------------------------------------
 Warning -- This program may not be used in any manner that
 competes with the business of Gaussian, Inc. or will provide
 assistance to any competitor of Gaussian, Inc.  The licensee
 of this program is prohibited from giving any competitor of
 Gaussian, Inc. access to this program.  By using this program,
 the user acknowledges that Gaussian, Inc. is engaged in the
 business of creating and licensing software in the field of
 computational chemistry and represents and warrants to the
 licensee that it is not a competitor of Gaussian, Inc. and that
 it will not use this program in any manner prohibited above.
 ---------------------------------------------------------------
  

 Cite this work as:
 Gaussian 16, Revision A.03,
 M. J. Frisch, G. W. Trucks, H. B. Schlegel, G. E. Scuseria, 
 M. A. Robb, J. R. Cheeseman, G. Scalmani, V. Barone, 
 G. A. Petersson, H. Nakatsuji, X. Li, M. Caricato, A. V. Marenich, 
 J. Bloino, B. G. Janesko, R. Gomperts, B. Mennucci, H. P. Hratchian, 
 J. V. Ortiz, A. F. Izmaylov, J. L. Sonnenberg, D. Williams-Young, 
 F. Ding, F. Lipparini, F. Egidi, J. Goings, B. Peng, A. Petrone, 
 T. Henderson, D. Ranasinghe, V. G. Zakrzewski, J. Gao, N. Rega, 
 G. Zheng, W. Liang, M. Hada, M. Ehara, K. Toyota, R. Fukuda, 
 J. Hasegawa, M. Ishida, T. Nakajima, Y. Honda, O. Kitao, H. Nakai, 
 T. Vreven, K. Throssell, J. A. Montgomery, Jr., J. E. Peralta, 
 F. Ogliaro, M. J. Bearpark, J. J. Heyd, E. N. Brothers, K. N. Kudin, 
 V. N. Staroverov, T. A. Keith, R. Kobayashi, J. Normand, 
 K. Raghavachari, A. P. Rendell, J. C. Burant, S. S. Iyengar, 
 J. Tomasi, M. Cossi, J. M. Millam, M. Klene, C. Adamo, R. Cammi, 
 J. W. Ochterski, R. L. Martin, K. Morokuma, O. Farkas, 
 J. B. Foresman, and D. J. Fox, Gaussian, Inc., Wallingford CT, 2016.
 
 ******************************************
 Gaussian 16:  ES64L-G16RevA.03 25-Dec-2016
                11-Feb-2020 
 ******************************************
 %chk=checkpoint.chk
 %mem=3GB
 %nprocshared=4
 Will use up to    4 processors via shared memory.
 ----------------------------------------
 #t pop=none jul-cc-pvdz guess=read ub97d
 ----------------------------------------
 ------------------------
 theory_abbreviation b97d
 ------------------------
 Symbolic Z-matrix:
 Charge =  0 Multiplicity = 6
 O                     0.17045   0.39667  -0.8866 
 C                     0.96868   1.34299  -0.68439 
 C                     3.04591   0.16004   0.5709 
 C                     2.70441  -0.92485  -0.15511 
 C                     3.23596  -1.13959  -1.54606 
 Fe                   -1.49318  -0.17102   0.00586 
 Cl                   -2.04864  -2.00872  -1.01477 
 C                     1.78737  -2.00845   0.33163 
 Cl                   -2.76644   1.56691  -0.37299 
 Cl                   -1.06609  -0.43271   2.14279 
 H                     3.75903   0.85304   0.12336 
 H                     2.31501  -2.97139   0.34124 
 H                     1.38633  -1.82878   1.32875 
 H                     0.94299  -2.12993  -0.36003 
 H                     3.79599  -2.08273  -1.59194 
 H                     2.41449  -1.23556  -2.26898 
 H                     3.90439  -0.33631  -1.86873 
 C                     2.76971   0.37753   2.03595 
 H                     3.55811  -0.09225   2.6397 
 H                     2.77422   1.4414    2.29143 
 H                     1.81454  -0.04263   2.35977 
 C                     0.79106   2.25751   0.48683 
 H                     1.67861   2.8616    0.67718 
 H                    -0.03957   2.92851   0.22072 
 H                     0.4924    1.71473   1.38394 
 C                     1.81038   1.80511  -1.83536 
 H                     1.2284    2.59091  -2.33947 
 H                     2.7527    2.24669  -1.50908 
 H                     1.98049   1.00093  -2.5492 
 
                    Distance matrix (angstroms):
                    1          2          3          4          5
     1  O    0.000000
     2  C    1.254423   0.000000
     3  C    3.232427   2.700001   0.000000
     4  C    2.949991   2.904474   1.349335   0.000000
     5  C    3.491753   3.470764   2.491321   1.504460   0.000000
     6  Fe   1.971398   2.971431   4.586086   4.267775   5.070635
     7  Cl   3.275165   4.521873   5.759541   4.950278   5.381886
     8  C    3.143743   3.596481   2.518636   1.500688   2.525679
     9  Cl   3.202899   3.754763   6.054223   6.015521   6.688050
    10  Cl   3.375514   3.909773   4.441925   4.442879   5.710946
    11  H    3.755819   2.945933   1.090452   2.085824   2.651624
    12  H    4.177386   4.634474   3.223787   2.141568   2.786675
    13  H    3.367313   3.779853   2.698879   2.180887   3.487215
    14  H    2.694036   3.488130   3.245440   2.144017   2.764991
    15  H    4.448534   4.533524   3.204765   2.143992   1.097841
    16  H    3.100139   3.354131   3.226660   2.156163   1.098474
    17  H    3.929903   3.583445   2.633471   2.173206   1.093690
    18  C    3.911245   3.402363   1.506637   2.549747   3.917887
    19  H    4.914276   4.451362   2.146140   3.038585   4.326808
    20  H    4.239217   3.482119   2.162384   3.404346   4.647688
    21  H    3.665370   3.449973   2.181138   2.809763   4.298745
    22  C    2.394614   1.496549   3.080715   3.768343   4.653006
    23  H    3.285698   2.159638   3.029723   4.010256   4.835037
    24  H    2.771360   2.085581   4.160193   4.745418   5.513615
    25  H    2.645051   2.154771   3.098151   3.772146   4.925363
    26  C    2.360769   1.498916   3.165894   3.327944   3.284390
    27  H    2.836327   2.089029   4.205086   4.394382   4.310036
    28  H    3.236980   2.163213   2.960811   3.448801   3.420787
    29  H    2.530926   2.149013   3.402536   3.156635   2.676624
                    6          7          8          9         10
     6  Fe   0.000000
     7  Cl   2.174253   0.000000
     8  C    3.774158   4.065432   0.000000
     9  Cl   2.187486   3.703001   5.832395   0.000000
    10  Cl   2.194846   3.663244   3.729004   3.635767   0.000000
    11  H    5.352396   6.573736   3.481228   6.583136   5.386370
    12  H    4.738865   4.669786   1.098064   6.850354   4.595896
    13  H    3.576281   4.162146   1.089665   5.627798   2.937009
    14  H    3.147403   3.064837   1.098236   5.237047   3.630572
    15  H    5.846611   5.873523   2.782115   7.607307   6.349056
    16  H    4.645212   4.700036   2.784563   6.187940   5.676501
    17  H    5.716215   6.242175   3.481292   7.096436   6.388051
    18  C    4.753354   6.182034   3.092346   6.153582   3.921892
    19  H    5.697267   6.961585   3.483470   7.199241   4.663269
    20  H    5.102392   6.789276   4.088542   6.149294   4.275789
    21  H    4.061820   5.493375   2.824629   5.571714   2.915011
    22  C    3.368497   5.340353   4.383505   3.724513   3.664482
    23  H    4.439332   6.362004   4.883504   4.747375   4.531432
    24  H    3.430187   5.471655   5.265314   3.105202   4.005731
    25  H    3.065560   5.106346   4.080003   3.705222   2.759752
    26  C    4.267163   5.487329   4.386299   4.810673   5.395144
    27  H    4.531640   5.800898   5.348019   4.568844   5.873461
    28  H    5.115445   6.434727   4.735638   5.675707   5.924390
    29  H    4.468570   5.257981   4.170470   5.252572   5.775090
                   11         12         13         14         15
    11  H    0.000000
    12  H    4.093766   0.000000
    13  H    3.778206   1.772899   0.000000
    14  H    4.130600   1.755636   1.771785   0.000000
    15  H    3.400347   2.592333   3.794912   3.107959   0.000000
    16  H    3.448670   3.136278   3.788493   2.570854   1.756309
    17  H    2.324674   3.788632   4.334971   3.776656   1.771537
    18  C    2.205195   3.780745   2.698457   3.919820   4.501967
    19  H    2.695536   3.888144   3.074212   4.470950   4.682451
    20  H    2.452863   4.846320   3.680637   4.810204   5.342662
    21  H    3.095927   3.592008   2.106345   3.537474   4.868683
    22  C    3.303557   5.448391   4.214372   4.471005   5.673497
    23  H    2.944340   5.877209   4.744434   5.150954   5.837682
    24  H    4.329704   6.353526   5.088488   5.185604   6.565795
    25  H    3.605893   5.135064   3.654951   4.245696   5.847248
    26  C    2.922364   5.273252   4.837003   4.291102   4.372322
    27  H    3.935706   6.269456   5.745820   5.126986   5.384629
    28  H    2.370611   5.553701   5.150698   4.873415   4.454123
    29  H    3.213661   4.924008   4.837228   3.958682   3.704234
                   16         17         18         19         20
    16  H    0.000000
    17  H    1.785679   0.000000
    18  C    4.610930   4.128392   0.000000
    19  H    5.168188   4.528291   1.098536   0.000000
    20  H    5.300269   4.663096   1.094128   1.757231   0.000000
    21  H    4.817499   4.725874   1.092578   1.766595   1.768617
    22  C    4.736197   4.687155   3.138338   4.220521   2.802774
    23  H    5.099809   4.654282   3.034367   4.013633   2.413118
    24  H    5.436949   5.529882   4.206496   5.283914   3.796938
    25  H    5.073707   5.140852   2.720183   3.773691   2.470825
    26  C    3.130283   2.995274   4.236195   5.165334   4.253425
    27  H    4.006702   3.993888   5.139942   6.117109   5.015590
    28  H    3.580213   2.850903   4.007654   4.830287   3.884943
[...]
   427 basis functions,  1056 primitive gaussians,   461 cartesian basis functions
    77 alpha electrons       72 beta electrons
       nuclear repulsion energy      1619.5981134906 Hartrees.
 NAtoms=   29 NActive=   29 NUniq=   29 SFac= 1.00D+00 NAtFMM=   60 NAOKFM=F Big=F
 Nuclear repulsion after empirical dispersion term =     1619.5956290027 Hartrees.
 Initial guess from the checkpoint file:  "checkpoint.chk"
 B after Tr=     0.000000    0.000000    0.000000
         Rot=    1.000000    0.000000    0.000000    0.000000 Ang=   0.00 deg.
 Initial guess <Sx>= 0.0000 <Sy>= 0.0000 <Sz>= 2.5000 <S**2>= 8.7618 S= 2.5020
 SCF Done:  E(UM06L) =  -3034.22199879     A.U. after   17 cycles
            NFock= 17  Conv=0.99D-08     -V/T= 2.0020
 <Sx>= 0.0000 <Sy>= 0.0000 <Sz>= 2.5000 <S**2>= 8.7618 S= 2.5020
 <L.S>= 0.000000000000E+00
 Annihilation of the first spin contaminant:
 S**2 before annihilation     8.7618,   after     8.7500
 1\1\GINC-HOLY7C04211\SP\UM06L\Jul-CC-pVDZ\C8H16Cl3Fe1O1(6)\EKWAN\11-Fe
 b-2020\0\\#t pop=none jul-cc-pvdz guess=read um06l empiricaldispersion
 =gd3\\theory_abbreviation m06l_d3\\0,6\O,0,0.170449,0.396673,-0.886602
 \C,0,0.968682,1.342988,-0.68439\C,0,3.045909,0.160038,0.570903\C,0,2.7
 04407,-0.924851,-0.155112\C,0,3.235961,-1.139586,-1.546061\Fe,0,-1.493
 178,-0.171015,0.005859\Cl,0,-2.048642,-2.00872,-1.014767\C,0,1.787367,
 -2.008451,0.331625\Cl,0,-2.76644,1.566907,-0.372991\Cl,0,-1.066089,-0.
 432711,2.142786\H,0,3.759026,0.85304,0.123357\H,0,2.315006,-2.971389,0
 .341238\H,0,1.386328,-1.828783,1.328749\H,0,0.942989,-2.129933,-0.3600
 32\H,0,3.795985,-2.082731,-1.59194\H,0,2.414486,-1.235561,-2.268981\H,
 0,3.904386,-0.336312,-1.868733\C,0,2.769708,0.377525,2.035952\H,0,3.55
 8113,-0.092252,2.639698\H,0,2.774222,1.441399,2.291428\H,0,1.814544,-0
 .042634,2.359765\C,0,0.791055,2.257506,0.486834\H,0,1.678613,2.861598,
 0.677175\H,0,-0.039566,2.928506,0.220716\H,0,0.492395,1.714733,1.38394
 1\C,0,1.810384,1.805114,-1.835357\H,0,1.228397,2.590911,-2.339467\H,0,
 2.752696,2.246691,-1.509075\H,0,1.980487,1.000932,-2.549197\\Version=E
 S64L-G16RevA.03\HF=-3034.2219988\S2=8.761786\S2-1=0.\S2A=8.750044\RMSD
 =9.887e-09\PG=C01 [X(C8H16Cl3Fe1O1)]\\@


 SCIENCE IS A VERY HUMAN FORM OF KNOWLEDGE.
 WE ARE ALWAYS AT THE BRINK OF THE KNOWN,
 WE ALWAYS FEEL FORWARD FOR WHAT IS HOPED.
 EVERY JUDGEMENT IN SCIENCE STANDS ON THE EDGE OF ERROR, AND IS PERSONAL.
 SCIENCE IS A TRIBUTE TO WHAT WE CAN KNOW ALTHOUGH WE ARE FALLIBLE.

                     -- J. BRONOWSKI
 Job cpu time:       0 days  1 hours 12 minutes 52.3 seconds.
 Elapsed time:       0 days  0 hours 18 minutes 16.1 seconds.
 File lengths (MBytes):  RWF=    174 Int=      0 D2E=      0 Chk=     13 Scr=      1
 Normal termination of Gaussian 16 at Tue Feb 11 23:39:06 2020.
 Initial command:
 /n/sw/g16_nehalem/g16/l1.exe "/scratch/Gau-361177.inp" -scrdir="/scratch/"
 Entering Link 1 = /n/sw/g16_nehalem/g16/l1.exe PID=    419613.
  
 Copyright (c) 1988,1990,1992,1993,1995,1998,2003,2009,2016,
            Gaussian, Inc.  All Rights Reserved.
  
 This is part of the Gaussian(R) 16 program.  It is based on
 the Gaussian(R) 09 system (copyright 2009, Gaussian, Inc.),
 the Gaussian(R) 03 system (copyright 2003, Gaussian, Inc.),
 the Gaussian(R) 98 system (copyright 1998, Gaussian, Inc.),
 the Gaussian(R) 94 system (copyright 1995, Gaussian, Inc.),
 the Gaussian 92(TM) system (copyright 1992, Gaussian, Inc.),
 the Gaussian 90(TM) system (copyright 1990, Gaussian, Inc.),
 the Gaussian 88(TM) system (copyright 1988, Gaussian, Inc.),
 the Gaussian 86(TM) system (copyright 1986, Carnegie Mellon
 University), and the Gaussian 82(TM) system (copyright 1983,
 Carnegie Mellon University). Gaussian is a federally registered
 trademark of Gaussian, Inc.
  
 This software contains proprietary and confidential information,
 including trade secrets, belonging to Gaussian, Inc.
  
 This software is provided under written license and may be
 used, copied, transmitted, or stored only in accord with that
 written license.
  
 The following legend is applicable only to US Government
 contracts under FAR:
  
                    RESTRICTED RIGHTS LEGEND
  
 Use, reproduction and disclosure by the US Government is
 subject to restrictions as set forth in subparagraphs (a)
 and (c) of the Commercial Computer Software - Restricted
 Rights clause in FAR 52.227-19.
  
 Gaussian, Inc.
 340 Quinnipiac St., Bldg. 40, Wallingford CT 06492
  
  
 ---------------------------------------------------------------
 Warning -- This program may not be used in any manner that
 competes with the business of Gaussian, Inc. or will provide
 assistance to any competitor of Gaussian, Inc.  The licensee
 of this program is prohibited from giving any competitor of
 Gaussian, Inc. access to this program.  By using this program,
 the user acknowledges that Gaussian, Inc. is engaged in the
 business of creating and licensing software in the field of
 computational chemistry and represents and warrants to the
 licensee that it is not a competitor of Gaussian, Inc. and that
 it will not use this program in any manner prohibited above.
 ---------------------------------------------------------------
  

 Cite this work as:
 Gaussian 16, Revision A.03,
 M. J. Frisch, G. W. Trucks, H. B. Schlegel, G. E. Scuseria, 
 M. A. Robb, J. R. Cheeseman, G. Scalmani, V. Barone, 
 G. A. Petersson, H. Nakatsuji, X. Li, M. Caricato, A. V. Marenich, 
 J. Bloino, B. G. Janesko, R. Gomperts, B. Mennucci, H. P. Hratchian, 
 J. V. Ortiz, A. F. Izmaylov, J. L. Sonnenberg, D. Williams-Young, 
 F. Ding, F. Lipparini, F. Egidi, J. Goings, B. Peng, A. Petrone, 
 T. Henderson, D. Ranasinghe, V. G. Zakrzewski, J. Gao, N. Rega, 
 G. Zheng, W. Liang, M. Hada, M. Ehara, K. Toyota, R. Fukuda, 
 J. Hasegawa, M. Ishida, T. Nakajima, Y. Honda, O. Kitao, H. Nakai, 
 T. Vreven, K. Throssell, J. A. Montgomery, Jr., J. E. Peralta, 
 F. Ogliaro, M. J. Bearpark, J. J. Heyd, E. N. Brothers, K. N. Kudin, 
 V. N. Staroverov, T. A. Keith, R. Kobayashi, J. Normand, 
 K. Raghavachari, A. P. Rendell, J. C. Burant, S. S. Iyengar, 
 J. Tomasi, M. Cossi, J. M. Millam, M. Klene, C. Adamo, R. Cammi, 
 J. W. Ochterski, R. L. Martin, K. Morokuma, O. Farkas, 
 J. B. Foresman, and D. J. Fox, Gaussian, Inc., Wallingford CT, 2016.
 
 ******************************************
 Gaussian 16:  ES64L-G16RevA.03 25-Dec-2016
                11-Feb-2020 
 ******************************************
 %chk=checkpoint.chk
 %mem=3GB
 %nprocshared=4
 Will use up to    4 processors via shared memory.
 -------------------------------------------------------------------
 #t pop=none jul-cc-pvdz guess=read ub97d3 empiricaldispersion=gd3bj
 -------------------------------------------------------------------
 ------------------------------
 theory_abbreviation b97d3_d3bj
 ------------------------------
 Symbolic Z-matrix:
 Charge =  0 Multiplicity = 6
 O                     0.17045   0.39667  -0.8866 
 C                     0.96868   1.34299  -0.68439 
 C                     3.04591   0.16004   0.5709 
 C                     2.70441  -0.92485  -0.15511 
 C                     3.23596  -1.13959  -1.54606 
 Fe                   -1.49318  -0.17102   0.00586 
 Cl                   -2.04864  -2.00872  -1.01477 
 C                     1.78737  -2.00845   0.33163 
 Cl                   -2.76644   1.56691  -0.37299 
 Cl                   -1.06609  -0.43271   2.14279 
 H                     3.75903   0.85304   0.12336 
 H                     2.31501  -2.97139   0.34124 
 H                     1.38633  -1.82878   1.32875 
 H                     0.94299  -2.12993  -0.36003 
 H                     3.79599  -2.08273  -1.59194 
 H                     2.41449  -1.23556  -2.26898 
 H                     3.90439  -0.33631  -1.86873 
 C                     2.76971   0.37753   2.03595 
 H                     3.55811  -0.09225   2.6397 
 H                     2.77422   1.4414    2.29143 
 H                     1.81454  -0.04263   2.35977 
 C                     0.79106   2.25751   0.48683 
 H                     1.67861   2.8616    0.67718 
 H                    -0.03957   2.92851   0.22072 
 H                     0.4924    1.71473   1.38394 
 C                     1.81038   1.80511  -1.83536 
 H                     1.2284    2.59091  -2.33947 
 H                     2.7527    2.24669  -1.50908 
 H                     1.98049   1.00093  -2.5492 
 
                    Distance matrix (angstroms):
                    1          2          3          4          5
     1  O    0.000000
     2  C    1.254423   0.000000
     3  C    3.232427   2.700001   0.000000
     4  C    2.949991   2.904474   1.349335   0.000000
     5  C    3.491753   3.470764   2.491321   1.504460   0.000000
     6  Fe   1.971398   2.971431   4.586086   4.267775   5.070635
     7  Cl   3.275165   4.521873   5.759541   4.950278   5.381886
     8  C    3.143743   3.596481   2.518636   1.500688   2.525679
     9  Cl   3.202899   3.754763   6.054223   6.015521   6.688050
    10  Cl   3.375514   3.909773   4.441925   4.442879   5.710946
    11  H    3.755819   2.945933   1.090452   2.085824   2.651624
    12  H    4.177386   4.634474   3.223787   2.141568   2.786675
    13  H    3.367313   3.779853   2.698879   2.180887   3.487215
    14  H    2.694036   3.488130   3.245440   2.144017   2.764991
    15  H    4.448534   4.533524   3.204765   2.143992   1.097841
    16  H    3.100139   3.354131   3.226660   2.156163   1.098474
    17  H    3.929903   3.583445   2.633471   2.173206   1.093690
    18  C    3.911245   3.402363   1.506637   2.549747   3.917887
    19  H    4.914276   4.451362   2.146140   3.038585   4.326808
    20  H    4.239217   3.482119   2.162384   3.404346   4.647688
    21  H    3.665370   3.449973   2.181138   2.809763   4.298745
    22  C    2.394614   1.496549   3.080715   3.768343   4.653006
    23  H    3.285698   2.159638   3.029723   4.010256   4.835037
    24  H    2.771360   2.085581   4.160193   4.745418   5.513615
    25  H    2.645051   2.154771   3.098151   3.772146   4.925363
    26  C    2.360769   1.498916   3.165894   3.327944   3.284390
    27  H    2.836327   2.089029   4.205086   4.394382   4.310036
    28  H    3.236980   2.163213   2.960811   3.448801   3.420787
    29  H    2.530926   2.149013   3.402536   3.156635   2.676624
                    6          7          8          9         10
     6  Fe   0.000000
     7  Cl   2.174253   0.000000
     8  C    3.774158   4.065432   0.000000
     9  Cl   2.187486   3.703001   5.832395   0.000000
    10  Cl   2.194846   3.663244   3.729004   3.635767   0.000000
    11  H    5.352396   6.573736   3.481228   6.583136   5.386370
    12  H    4.738865   4.669786   1.098064   6.850354   4.595896
    13  H    3.576281   4.162146   1.089665   5.627798   2.937009
    14  H    3.147403   3.064837   1.098236   5.237047   3.630572
    15  H    5.846611   5.873523   2.782115   7.607307   6.349056
    16  H    4.645212   4.700036   2.784563   6.187940   5.676501
    17  H    5.716215   6.242175   3.481292   7.096436   6.388051
    18  C    4.753354   6.182034   3.092346   6.153582   3.921892
    19  H    5.697267   6.961585   3.483470   7.199241   4.663269
    20  H    5.102392   6.789276   4.088542   6.149294   4.275789
    21  H    4.061820   5.493375   2.824629   5.571714   2.915011
    22  C    3.368497   5.340353   4.383505   3.724513   3.664482
    23  H    4.439332   6.362004   4.883504   4.747375   4.531432
    24  H    3.430187   5.471655   5.265314   3.105202   4.005731
    25  H    3.065560   5.106346   4.080003   3.705222   2.759752
    26  C    4.267163   5.487329   4.386299   4.810673   5.395144
    27  H    4.531640   5.800898   5.348019   4.568844   5.873461
    28  H    5.115445   6.434727   4.735638   5.675707   5.924390
    29  H    4.468570   5.257981   4.170470   5.252572   5.775090
                   11         12         13         14         15
    11  H    0.000000
    12  H    4.093766   0.000000
    13  H    3.778206   1.772899   0.000000
    14  H    4.130600   1.755636   1.771785   0.000000
    15  H    3.400347   2.592333   3.794912   3.107959   0.000000
    16  H    3.448670   3.136278   3.788493   2.570854   1.756309
    17  H    2.324674   3.788632   4.334971   3.776656   1.771537
    18  C    2.205195   3.780745   2.698457   3.919820   4.501967
    19  H    2.695536   3.888144   3.074212   4.470950   4.682451
    20  H    2.452863   4.846320   3.680637   4.810204   5.342662
    21  H    3.095927   3.592008   2.106345   3.537474   4.868683
    22  C    3.303557   5.448391   4.214372   4.471005   5.673497
    23  H    2.944340   5.877209   4.744434   5.150954   5.837682
    24  H    4.329704   6.353526   5.088488   5.185604   6.565795
    25  H    3.605893   5.135064   3.654951   4.245696   5.847248
    26  C    2.922364   5.273252   4.837003   4.291102   4.372322
    27  H    3.935706   6.269456   5.745820   5.126986   5.384629
    28  H    2.370611   5.553701   5.150698   4.873415   4.454123
    29  H    3.213661   4.924008   4.837228   3.958682   3.704234
                   16         17         18         19         20
    16  H    0.000000
    17  H    1.785679   0.000000
    18  C    4.610930   4.128392   0.000000
    19  H    5.168188   4.528291   1.098536   0.000000
    20  H    5.300269   4.663096   1.094128   1.757231   0.000000
    21  H    4.817499   4.725874   1.092578   1.766595   1.768617
    22  C    4.736197   4.687155   3.138338   4.220521   2.802774
    23  H    5.099809   4.654282   3.034367   4.013633   2.413118
    24  H    5.436949   5.529882   4.206496   5.283914   3.796938
    25  H    5.073707   5.140852   2.720183   3.773691   2.470825
    26  C    3.130283   2.995274   4.236195   5.165334   4.253425
    27  H    4.006702   3.993888   5.139942   6.117109   5.015590
    28  H    3.580213   2.850903   4.007654   4.830287   3.884943
    29  H    2.295382   2.439803   4.694156   5.532503   4.925005
                   21         22         23         24         25
    21  H    0.000000
    22  C    3.137841   0.000000
    23  H    3.359189   1.090374   0.000000
    24  H    4.103770   1.100450   1.779036   0.000000
    25  H    2.405961   1.090230   1.794974   1.763326   0.000000
    26  C    4.584020   2.576094   2.728798   2.985257   3.479819
    27  H    5.418663   2.879306   3.062041   2.876845   3.895273
    28  H    4.592283   2.798536   2.512261   3.354665   3.709647
    29  H    5.021402   3.494454   3.736667   3.933011   4.265384
                   26         27         28         29
    26  C    0.000000
    27  H    1.100142   0.000000
    28  H    1.090597   1.769612   0.000000
    29  H    1.088674   1.771344   1.797241   0.000000
 Framework group  C1[X(C8H16Cl3FeO)]
 Deg. of freedom    81
                         Standard orientation:                         
 ---------------------------------------------------------------------
 Center     Atomic      Atomic             Coordinates (Angstroms)
 Number     Number       Type             X           Y           Z
 ---------------------------------------------------------------------
      1          8           0        0.170449    0.396673   -0.886602
      2          6           0        0.968682    1.342988   -0.684390
      3          6           0        3.045909    0.160038    0.570903
      4          6           0        2.704407   -0.924851   -0.155112
      5          6           0        3.235961   -1.139586   -1.546061
      6         26           0       -1.493178   -0.171015    0.005859
      7         17           0       -2.048642   -2.008720   -1.014767
      8          6           0        1.787367   -2.008451    0.331625
      9         17           0       -2.766440    1.566907   -0.372991
     10         17           0       -1.066089   -0.432711    2.142786
     11          1           0        3.759026    0.853040    0.123357
     12          1           0        2.315006   -2.971389    0.341238
     13          1           0        1.386328   -1.828783    1.328749
     14          1           0        0.942989   -2.129933   -0.360032
     15          1           0        3.795985   -2.082731   -1.591940
     16          1           0        2.414486   -1.235561   -2.268981
     17          1           0        3.904386   -0.336312   -1.868733
     18          6           0        2.769708    0.377525    2.035952
     19          1           0        3.558113   -0.092252    2.639698
     20          1           0        2.774222    1.441399    2.291428
     21          1           0        1.814544   -0.042634    2.359765
     22          6           0        0.791055    2.257506    0.486834
     23          1           0        1.678613    2.861598    0.677175
     24          1           0       -0.039566    2.928506    0.220716
     25          1           0        0.492395    1.714733    1.383941
     26          6           0        1.810384    1.805114   -1.835357
     27          1           0        1.228397    2.590911   -2.339467
     28          1           0        2.752696    2.246691   -1.509075
     29          1           0        1.980487    1.000932   -2.549197
 ---------------------------------------------------------------------
 Rotational constants (GHZ):           0.5685421           0.3201977           0.3012417
   427 basis functions,  1056 primitive gaussians,   461 cartesian basis functions
    77 alpha electrons       72 beta electrons
       nuclear repulsion energy      1619.5981134906 Hartrees.
 NAtoms=   29 NActive=   29 NUniq=   29 SFac= 1.00D+00 NAtFMM=   60 NAOKFM=F Big=F
 Nuclear repulsion after empirical dispersion term =     1619.4997914629 Hartrees.
 Initial guess from the checkpoint file:  "checkpoint.chk"
 B after Tr=     0.000000    0.000000    0.000000
         Rot=    1.000000    0.000000    0.000000    0.000000 Ang=   0.00 deg.
 Initial guess <Sx>= 0.0000 <Sy>= 0.0000 <Sz>= 2.5000 <S**2>= 8.7618 S= 2.5020
 SCF Done:  E(UB97D3) =  -3034.64147435     A.U. after   16 cycles
            NFock= 16  Conv=0.52D-08     -V/T= 2.0019
 <Sx>= 0.0000 <Sy>= 0.0000 <Sz>= 2.5000 <S**2>= 8.7599 S= 2.5016
 <L.S>= 0.000000000000E+00
 Annihilation of the first spin contaminant:
 S**2 before annihilation     8.7599,   after     8.7500
 1\1\GINC-HOLY7C04211\SP\UB97D3\Jul-CC-pVDZ\C8H16Cl3Fe1O1(6)\EKWAN\11-F
 eb-2020\0\\#t pop=none jul-cc-pvdz guess=read ub97d3 empiricaldispersi
 on=gd3bj\\theory_abbreviation b97d3_d3bj\\0,6\O,0,0.170449,0.396673,-0
 .886602\C,0,0.968682,1.342988,-0.68439\C,0,3.045909,0.160038,0.570903\
 C,0,2.704407,-0.924851,-0.155112\C,0,3.235961,-1.139586,-1.546061\Fe,0
 ,-1.493178,-0.171015,0.005859\Cl,0,-2.048642,-2.00872,-1.014767\C,0,1.
 787367,-2.008451,0.331625\Cl,0,-2.76644,1.566907,-0.372991\Cl,0,-1.066
 089,-0.432711,2.142786\H,0,3.759026,0.85304,0.123357\H,0,2.315006,-2.9
 71389,0.341238\H,0,1.386328,-1.828783,1.328749\H,0,0.942989,-2.129933,
 -0.360032\H,0,3.795985,-2.082731,-1.59194\H,0,2.414486,-1.235561,-2.26
 8981\H,0,3.904386,-0.336312,-1.868733\C,0,2.769708,0.377525,2.035952\H
 ,0,3.558113,-0.092252,2.639698\H,0,2.774222,1.441399,2.291428\H,0,1.81
 4544,-0.042634,2.359765\C,0,0.791055,2.257506,0.486834\H,0,1.678613,2.
 861598,0.677175\H,0,-0.039566,2.928506,0.220716\H,0,0.492395,1.714733,
 1.383941\C,0,1.810384,1.805114,-1.835357\H,0,1.228397,2.590911,-2.3394
 67\H,0,2.752696,2.246691,-1.509075\H,0,1.980487,1.000932,-2.549197\\Ve
 rsion=ES64L-G16RevA.03\HF=-3034.6414744\S2=8.759901\S2-1=0.\S2A=8.7500
 31\RMSD=5.234e-09\PG=C01 [X(C8H16Cl3Fe1O1)]\\@


 Time has a wonderful way of weeding out the trivial.
                                -- Richard Ben Sapir
 Job cpu time:       0 days  0 hours 49 minutes 29.6 seconds.
 Elapsed time:       0 days  0 hours 12 minutes 24.6 seconds.
 File lengths (MBytes):  RWF=    174 Int=      0 D2E=      0 Chk=     13 Scr=      1
 Normal termination of Gaussian 16 at Tue Feb 11 23:51:31 2020.
