 Entering Gaussian System, Link 0=g16
 Input=simple-grid-195-290-b3lyp_d3bj-631gd-gas-singlepoint-DFT-juldz2-gas.gjf
 Output=simple-grid-195-290-b3lyp_d3bj-631gd-gas-singlepoint-DFT-juldz2-gas.out
 Initial command:
 /n/sw/g16_nehalem/g16/l1.exe "/scratch/Gau-98687.inp" -scrdir="/scratch/"
 Entering Link 1 = /n/sw/g16_nehalem/g16/l1.exe PID=     98696.
  
 Copyright (c) 1988,1990,1992,1993,1995,1998,2003,2009,2016,
            Gaussian, Inc.  All Rights Reserved.
  
 This is part of the Gaussian(R) 16 program.  It is based on
 the Gaussian(R) 09 system (copyright 2009, Gaussian, Inc.),
 the Gaussian(R) 03 system (copyright 2003, Gaussian, Inc.),
 the Gaussian(R) 98 system (copyright 1998, Gaussian, Inc.),
 the Gaussian(R) 94 system (copyright 1995, Gaussian, Inc.),
 the Gaussian 92(TM) system (copyright 1992, Gaussian, Inc.),
 the Gaussian 90(TM) system (copyright 1990, Gaussian, Inc.),
 the Gaussian 88(TM) system (copyright 1988, Gaussian, Inc.),
 the Gaussian 86(TM) system (copyright 1986, Carnegie Mellon
 University), and the Gaussian 82(TM) system (copyright 1983,
 Carnegie Mellon University). Gaussian is a federally registered
 trademark of Gaussian, Inc.
  
 This software contains proprietary and confidential information,
 including trade secrets, belonging to Gaussian, Inc.
  
 This software is provided under written license and may be
 used, copied, transmitted, or stored only in accord with that
 written license.
  
 The following legend is applicable only to US Government
 contracts under FAR:
  
                    RESTRICTED RIGHTS LEGEND
  
 Use, reproduction and disclosure by the US Government is
 subject to restrictions as set forth in subparagraphs (a)
 and (c) of the Commercial Computer Software - Restricted
 Rights clause in FAR 52.227-19.
  
 Gaussian, Inc.
 340 Quinnipiac St., Bldg. 40, Wallingford CT 06492
  
  
 ---------------------------------------------------------------
 Warning -- This program may not be used in any manner that
 competes with the business of Gaussian, Inc. or will provide
 assistance to any competitor of Gaussian, Inc.  The licensee
 of this program is prohibited from giving any competitor of
 Gaussian, Inc. access to this program.  By using this program,
 the user acknowledges that Gaussian, Inc. is engaged in the
 business of creating and licensing software in the field of
 computational chemistry and represents and warrants to the
 licensee that it is not a competitor of Gaussian, Inc. and that
 it will not use this program in any manner prohibited above.
 ---------------------------------------------------------------
  

 Cite this work as:
 Gaussian 16, Revision A.03,
 M. J. Frisch, G. W. Trucks, H. B. Schlegel, G. E. Scuseria, 
 M. A. Robb, J. R. Cheeseman, G. Scalmani, V. Barone, 
 G. A. Petersson, H. Nakatsuji, X. Li, M. Caricato, A. V. Marenich, 
 J. Bloino, B. G. Janesko, R. Gomperts, B. Mennucci, H. P. Hratchian, 
 J. V. Ortiz, A. F. Izmaylov, J. L. Sonnenberg, D. Williams-Young, 
 F. Ding, F. Lipparini, F. Egidi, J. Goings, B. Peng, A. Petrone, 
 T. Henderson, D. Ranasinghe, V. G. Zakrzewski, J. Gao, N. Rega, 
 G. Zheng, W. Liang, M. Hada, M. Ehara, K. Toyota, R. Fukuda, 
 J. Hasegawa, M. Ishida, T. Nakajima, Y. Honda, O. Kitao, H. Nakai, 
 T. Vreven, K. Throssell, J. A. Montgomery, Jr., J. E. Peralta, 
 F. Ogliaro, M. J. Bearpark, J. J. Heyd, E. N. Brothers, K. N. Kudin, 
 V. N. Staroverov, T. A. Keith, R. Kobayashi, J. Normand, 
 K. Raghavachari, A. P. Rendell, J. C. Burant, S. S. Iyengar, 
 J. Tomasi, M. Cossi, J. M. Millam, M. Klene, C. Adamo, R. Cammi, 
 J. W. Ochterski, R. L. Martin, K. Morokuma, O. Farkas, 
 J. B. Foresman, and D. J. Fox, Gaussian, Inc., Wallingford CT, 2016.
 
 ******************************************
 Gaussian 16:  ES64L-G16RevA.03 25-Dec-2016
                11-Feb-2020 
 ******************************************
 %chk=checkpoint.chk
 %mem=3GB
 %nprocshared=4
 Will use up to    4 processors via shared memory.
 --------------------------------
 #t pop=none jul-cc-pvdz upbe1pbe
 --------------------------------
 ------------------------
 theory_abbreviation pbe0
 ------------------------
 Symbolic Z-matrix:
 Charge =  0 Multiplicity = 6
 O                    -0.30712  -0.14389  -0.43987 
 C                    -1.18284  -1.08803  -0.21118 
 C                    -2.60567  -0.274     0.84495 
 C                    -3.06533   0.67169  -0.06968 
 C                    -4.18491   0.38194  -1.00972 
 Fe                    1.5317    0.17283  -0.09954 
 Cl                    1.86531   2.13548  -1.02102 
 C                    -2.36005   1.9639   -0.21228 
 Cl                    2.53025  -1.53854  -1.0532 
 Cl                    1.83893   0.2042    2.08594 
 H                    -3.24987  -1.14677   0.95307 
 H                    -2.83712   2.63906  -0.92518 
 H                    -2.21619   2.47005   0.74781 
 H                    -1.33983   1.71662  -0.56905 
 H                    -5.01708   1.05806  -0.76428 
 H                    -3.90513   0.61147  -2.04546 
 H                    -4.54663  -0.64573  -0.94328 
 C                    -1.91935   0.18987   2.12155 
 H                    -2.53988   0.93494   2.63183 
 H                    -1.77465  -0.64391   2.80981 
 H                    -0.9419    0.63586   1.92665 
 C                    -0.7468   -2.17471   0.76809 
 H                    -1.57014  -2.83247   1.05691 
 H                     0.00525  -2.76961   0.2344 
 H                    -0.26479  -1.75853   1.65205 
 C                    -1.82096  -1.64473  -1.47488 
 H                    -1.0647   -2.2766   -1.95495 
 H                    -2.70038  -2.26019  -1.26666 
 H                    -2.07509  -0.8495   -2.17707 
 
                    Distance matrix (angstroms):
                    1          2          3          4          5
     1  O    0.000000
     2  C    1.307885   0.000000
     3  C    2.636478   1.950000   0.000000
     4  C    2.899990   2.580778   1.393618   0.000000
     5  C    3.954555   3.436703   2.522708   1.490333   0.000000
     6  Fe   1.896681   2.995151   4.267267   4.624119   5.792395
     7  Cl   3.201984   4.509766   5.410827   5.230572   6.299218
     8  C    2.951117   3.271095   2.487218   1.479037   2.543349
     9  Cl   3.220539   3.833922   5.619581   6.096141   6.984519
    10  Cl   3.332629   4.009701   4.639314   5.377458   6.775058
    11  H    3.406729   2.373091   1.090136   2.094487   2.657785
    12  H    3.792261   4.139759   3.416554   2.157427   2.630263
    13  H    3.447868   3.827185   2.773252   2.150209   3.365255
    14  H    2.131824   2.831739   2.750333   2.078126   3.173336
    15  H    4.871717   4.428654   3.190430   2.107380   1.099943
    16  H    4.011756   3.696450   3.290455   2.147692   1.097136
    17  H    4.298692   3.470839   2.665195   2.166341   1.091499
    18  C    3.044923   2.759912   1.521820   2.519313   3.869696
    19  H    3.947710   3.743884   2.158428   2.764696   4.033956
    20  H    3.600561   3.110283   2.165207   3.418794   4.631476
    21  H    2.571256   2.756836   2.183131   2.914718   4.382222
    22  C    2.403484   1.526436   2.659702   3.765566   4.638721
    23  H    3.326266   2.191157   2.768215   3.972905   4.630384
    24  H    2.728847   2.106614   3.663022   4.622066   5.388653
    25  H    2.642908   2.182665   2.887036   4.088200   5.199425
    26  C    2.369702   1.521201   2.806465   2.981417   3.148337
    27  H    2.723576   2.113621   3.771525   4.031028   4.206782
    28  H    3.300001   2.188824   2.900483   3.187771   3.041498
    29  H    2.577103   2.172026   3.121740   2.781307   2.707488
                    6          7          8          9         10
     6  Fe   0.000000
     7  Cl   2.193724   0.000000
     8  C    4.285601   4.305475   0.000000
     9  Cl   2.198939   3.733845   6.073649   0.000000
    10  Cl   2.207195   3.658381   5.099981   3.656403   0.000000
    11  H    5.070772   6.390240   3.438903   6.130935   5.385570
    12  H    5.084346   4.730280   1.091633   6.802745   6.071312
    13  H    4.476820   4.460861   1.094827   6.468466   4.834117
    14  H    3.293845   3.263829   1.108733   5.080150   4.409186
    15  H    6.641688   6.970937   2.860953   7.986733   7.473799
    16  H    5.791216   6.055579   2.752614   6.857203   7.087214
    17  H    6.190970   6.989575   3.482194   7.133825   7.118567
    18  C    4.104060   5.290064   2.964486   5.732834   3.758477
    19  H    4.961753   5.847242   3.029857   6.738232   4.472805
    20  H    4.479207   5.970718   4.034400   5.852804   3.781693
    21  H    3.230875   4.337973   2.889612   5.065898   2.818639
    22  C    3.384571   5.348066   4.548826   3.802749   3.752593
    23  H    4.471090   6.387539   5.023939   4.789579   4.679962
    24  H    3.331591   5.394051   5.310391   3.090158   3.953999
    25  H    3.166318   5.181302   4.660720   3.896024   2.909671
    26  C    4.054065   5.299488   3.860955   4.372886   5.430728
    27  H    4.022882   5.378074   4.764102   3.779097   5.560061
    28  H    5.019191   6.342535   4.366974   5.284490   6.157802
    29  H    4.286050   5.076740   3.443371   4.790301   5.882438
                   11         12         13         14         15
    11  H    0.000000
    12  H    4.246254   0.000000
    13  H    3.767220   1.792482   0.000000
    14  H    3.763523   1.794326   1.752081   0.000000
    15  H    3.306592   2.697721   3.482108   3.740855   0.000000
    16  H    3.537224   2.550846   3.756215   3.159418   1.754221
    17  H    2.351338   3.703058   4.242499   4.000545   1.776583
    18  C    2.218605   4.015397   2.678527   3.147409   4.321766
    19  H    2.766910   3.955332   2.451704   3.506678   4.205372
    20  H    2.424171   5.084966   3.760790   4.144621   5.117043
    21  H    3.074460   3.967063   2.525417   2.748623   4.901672
    22  C    2.712238   5.514439   4.871685   4.157177   5.570837
    23  H    2.381987   5.955802   5.350664   4.836429   5.507657
    24  H    3.707546   6.219115   5.714224   4.751948   6.393133
    25  H    3.126264   5.709447   4.744099   4.262119   6.029596
    26  C    2.860888   4.436848   4.693391   3.514354   4.245605
    27  H    3.808945   5.325940   5.582247   4.235826   5.306497
    28  H    2.543398   4.913041   5.164073   4.260607   4.078017
    29  H    3.356520   3.783911   4.426531   3.116294   3.780217
                   16         17         18         19         20
    16  H    0.000000
    17  H    1.790776   0.000000
    18  C    4.635197   4.122382   0.000000
    19  H    4.883188   4.393967   1.095708   0.000000
    20  H    5.448721   4.665788   1.090790   1.763531   0.000000
    21  H    4.955701   4.782578   1.091926   1.772082   1.763871
    22  C    5.064974   4.439068   2.966136   4.044576   2.751074
    23  H    5.190146   4.200250   3.223342   4.196921   2.811450
    24  H    5.649828   5.159210   4.002989   5.094020   3.784089
    25  H    5.704434   5.129158   2.598896   3.659345   2.205096
    26  C    3.124063   2.951251   4.038532   4.902711   4.400263
    27  H    4.051814   3.975810   4.840636   5.790395   5.086512
    28  H    3.210043   2.473804   4.253562   5.043098   4.481847
    29  H    2.345382   2.769888   4.425229   5.150311   5.000143
                   21         22         23         24         25
    21  H    0.000000
    22  C    3.046247   0.000000
    23  H    3.630486   1.092681   0.000000
    24  H    3.918927   1.097410   1.778298   0.000000
    25  H    2.503392   1.089460   1.792064   1.762080   0.000000
    26  C    4.188582   2.542761   2.807776   2.742635   3.494611
    27  H    4.854308   2.743431   3.104154   2.486185   3.730778
    28  H    4.655811   2.822060   2.646498   3.135785   3.834405
    29  H    4.508977   3.492063   3.826976   3.718844   4.331932
                   26         27         28         29
    26  C    0.000000
    27  H    1.096202   0.000000
    28  H    1.093397   1.774668   0.000000
    29  H    1.090887   1.762621   1.791607   0.000000
 Framework group  C1[X(C8H16Cl3FeO)]
 Deg. of freedom    81
                         Standard orientation:                         
 ---------------------------------------------------------------------
 Center     Atomic      Atomic             Coordinates (Angstroms)
 Number     Number       Type             X           Y           Z
 ---------------------------------------------------------------------
      1          8           0       -0.307119   -0.143892   -0.439868
      2          6           0       -1.182836   -1.088025   -0.211184
      3          6           0       -2.605671   -0.274002    0.844945
      4          6           0       -3.065330    0.671693   -0.069683
      5          6           0       -4.184911    0.381943   -1.009723
      6         26           0        1.531703    0.172826   -0.099540
      7         17           0        1.865306    2.135481   -1.021016
      8          6           0       -2.360048    1.963898   -0.212280
      9         17           0        2.530249   -1.538538   -1.053203
     10         17           0        1.838931    0.204196    2.085943
     11          1           0       -3.249867   -1.146766    0.953072
     12          1           0       -2.837116    2.639062   -0.925177
     13          1           0       -2.216190    2.470045    0.747807
     14          1           0       -1.339825    1.716619   -0.569054
     15          1           0       -5.017077    1.058056   -0.764275
     16          1           0       -3.905132    0.611471   -2.045458
     17          1           0       -4.546634   -0.645730   -0.943279
     18          6           0       -1.919350    0.189866    2.121552
     19          1           0       -2.539883    0.934940    2.631826
     20          1           0       -1.774645   -0.643913    2.809807
     21          1           0       -0.941900    0.635856    1.926649
     22          6           0       -0.746801   -2.174715    0.768094
     23          1           0       -1.570143   -2.832472    1.056912
     24          1           0        0.005251   -2.769609    0.234401
     25          1           0       -0.264787   -1.758530    1.652048
     26          6           0       -1.820963   -1.644731   -1.474879
     27          1           0       -1.064704   -2.276603   -1.954950
     28          1           0       -2.700381   -2.260189   -1.266664
     29          1           0       -2.075090   -0.849502   -2.177065
 ---------------------------------------------------------------------
 Rotational constants (GHZ):           0.6044136           0.3041198           0.2912221
   427 basis functions,  1056 primitive gaussians,   461 cartesian basis functions
    77 alpha electrons       72 beta electrons
       nuclear repulsion energy      1624.9817780468 Hartrees.
 NAtoms=   29 NActive=   29 NUniq=   29 SFac= 1.00D+00 NAtFMM=   60 NAOKFM=F Big=F
 ExpMin= 1.40D-02 ExpMax= 4.32D+06 ExpMxC= 4.91D+03 IAcc=3 IRadAn=         5 AccDes= 0.00D+00
 Harris functional with IExCor= 1009 and IRadAn=       5 diagonalized for initial guess.
 HarFok:  IExCor= 1009 AccDes= 0.00D+00 IRadAn=         5 IDoV= 1 UseB2=F ITyADJ=14
 ICtDFT=  3500011 ScaDFX=  1.000000  1.000000  1.000000  1.000000
 FoFCou: FMM=F IPFlag=           0 FMFlag=      100000 FMFlg1=           0
         NFxFlg=           0 DoJE=T BraDBF=F KetDBF=T FulRan=T
         wScrn=  0.000000 ICntrl=       500 IOpCl=  0 I1Cent=   200000004 NGrid=           0
         NMat0=    1 NMatS0=      1 NMatT0=    0 NMatD0=    1 NMtDS0=    0 NMtDT0=    0
 Petite list used in FoFCou.
 Initial guess <Sx>= 0.0000 <Sy>= 0.0000 <Sz>= 2.5000 <S**2>= 8.7500 S= 2.5000
 EnCoef did   100 forward-backward iterations
 Restarting incremental Fock formation.
 SCF Done:  E(UPBE1PBE) =  -3033.11523589     A.U. after   21 cycles
            NFock= 21  Conv=0.68D-08     -V/T= 2.0021
 <Sx>= 0.0000 <Sy>= 0.0000 <Sz>= 2.5000 <S**2>= 8.7629 S= 2.5022
 <L.S>= 0.000000000000E+00
 Annihilation of the first spin contaminant:
 S**2 before annihilation     8.7629,   after     8.7501
 1\1\GINC-HOLY7C08607\SP\UPBE1PBE\Jul-CC-pVDZ\C8H16Cl3Fe1O1(6)\EKWAN\11
 -Feb-2020\0\\#t pop=none jul-cc-pvdz upbe1pbe\\theory_abbreviation pbe
 0\\0,6\O,0,-0.307119,-0.143892,-0.439868\C,0,-1.182836,-1.088025,-0.21
 1184\C,0,-2.605671,-0.274002,0.844945\C,0,-3.06533,0.671693,-0.069683\
 C,0,-4.184911,0.381943,-1.009723\Fe,0,1.531703,0.172826,-0.09954\Cl,0,
 1.865306,2.135481,-1.021016\C,0,-2.360048,1.963898,-0.21228\Cl,0,2.530
 249,-1.538538,-1.053203\Cl,0,1.838931,0.204196,2.085943\H,0,-3.249867,
 -1.146766,0.953072\H,0,-2.837116,2.639062,-0.925177\H,0,-2.21619,2.470
 045,0.747807\H,0,-1.339825,1.716619,-0.569054\H,0,-5.017077,1.058056,-
 0.764275\H,0,-3.905132,0.611471,-2.045458\H,0,-4.546634,-0.64573,-0.94
 3279\C,0,-1.91935,0.189866,2.121552\H,0,-2.539883,0.93494,2.631826\H,0
 ,-1.774645,-0.643913,2.809807\H,0,-0.9419,0.635856,1.926649\C,0,-0.746
 801,-2.174715,0.768094\H,0,-1.570143,-2.832472,1.056912\H,0,0.005251,-
 2.769609,0.234401\H,0,-0.264787,-1.75853,1.652048\C,0,-1.820963,-1.644
 731,-1.474879\H,0,-1.064704,-2.276603,-1.95495\H,0,-2.700381,-2.260189
 ,-1.266664\H,0,-2.07509,-0.849502,-2.177065\\Version=ES64L-G16RevA.03\
 HF=-3033.1152359\S2=8.762923\S2-1=0.\S2A=8.750052\RMSD=6.822e-09\PG=C0
 1 [X(C8H16Cl3Fe1O1)]\\@


 THIS CURIOUS WORLD WHICH WE INHABIT IS MORE WONDERFUL THAN IT IS CONVENIENT;
 MORE BEAUTIFUL THAN IT IS USEFUL;
 IT IS MORE TO BE ADMIRED THAN IT IS TO BE USED.

                                                                 -- THOREAU
 Job cpu time:       0 days  1 hours 30 minutes 47.7 seconds.
 Elapsed time:       0 days  0 hours 22 minutes 46.1 seconds.
 File lengths (MBytes):  RWF=    173 Int=      0 D2E=      0 Chk=     13 Scr=      1
 Normal termination of Gaussian 16 at Tue Feb 11 13:59:06 2020.
 Initial command:
 /n/sw/g16_nehalem/g16/l1.exe "/scratch/Gau-98687.inp" -scrdir="/scratch/"
 Entering Link 1 = /n/sw/g16_nehalem/g16/l1.exe PID=    100747.
  
 Copyright (c) 1988,1990,1992,1993,1995,1998,2003,2009,2016,
            Gaussian, Inc.  All Rights Reserved.
  
 This is part of the Gaussian(R) 16 program.  It is based on
 the Gaussian(R) 09 system (copyright 2009, Gaussian, Inc.),
 the Gaussian(R) 03 system (copyright 2003, Gaussian, Inc.),
 the Gaussian(R) 98 system (copyright 1998, Gaussian, Inc.),
 the Gaussian(R) 94 system (copyright 1995, Gaussian, Inc.),
 the Gaussian 92(TM) system (copyright 1992, Gaussian, Inc.),
 the Gaussian 90(TM) system (copyright 1990, Gaussian, Inc.),
 the Gaussian 88(TM) system (copyright 1988, Gaussian, Inc.),
 the Gaussian 86(TM) system (copyright 1986, Carnegie Mellon
 University), and the Gaussian 82(TM) system (copyright 1983,
 Carnegie Mellon University). Gaussian is a federally registered
 trademark of Gaussian, Inc.
  
 This software contains proprietary and confidential information,
 including trade secrets, belonging to Gaussian, Inc.
  
 This software is provided under written license and may be
 used, copied, transmitted, or stored only in accord with that
 written license.
  
 The following legend is applicable only to US Government
 contracts under FAR:
  
                    RESTRICTED RIGHTS LEGEND
  
 Use, reproduction and disclosure by the US Government is
 subject to restrictions as set forth in subparagraphs (a)
 and (c) of the Commercial Computer Software - Restricted
 Rights clause in FAR 52.227-19.
  
 Gaussian, Inc.
 340 Quinnipiac St., Bldg. 40, Wallingford CT 06492
  
  
 ---------------------------------------------------------------
 Warning -- This program may not be used in any manner that
 competes with the business of Gaussian, Inc. or will provide
 assistance to any competitor of Gaussian, Inc.  The licensee
 of this program is prohibited from giving any competitor of
 Gaussian, Inc. access to this program.  By using this program,
 the user acknowledges that Gaussian, Inc. is engaged in the
 business of creating and licensing software in the field of
 computational chemistry and represents and warrants to the
 licensee that it is not a competitor of Gaussian, Inc. and that
 it will not use this program in any manner prohibited above.
 ---------------------------------------------------------------
  

 Cite this work as:
 Gaussian 16, Revision A.03,
 M. J. Frisch, G. W. Trucks, H. B. Schlegel, G. E. Scuseria, 
 M. A. Robb, J. R. Cheeseman, G. Scalmani, V. Barone, 
 G. A. Petersson, H. Nakatsuji, X. Li, M. Caricato, A. V. Marenich, 
 J. Bloino, B. G. Janesko, R. Gomperts, B. Mennucci, H. P. Hratchian, 
 J. V. Ortiz, A. F. Izmaylov, J. L. Sonnenberg, D. Williams-Young, 
 F. Ding, F. Lipparini, F. Egidi, J. Goings, B. Peng, A. Petrone, 
 T. Henderson, D. Ranasinghe, V. G. Zakrzewski, J. Gao, N. Rega, 
 G. Zheng, W. Liang, M. Hada, M. Ehara, K. Toyota, R. Fukuda, 
 J. Hasegawa, M. Ishida, T. Nakajima, Y. Honda, O. Kitao, H. Nakai, 
 T. Vreven, K. Throssell, J. A. Montgomery, Jr., J. E. Peralta, 
 F. Ogliaro, M. J. Bearpark, J. J. Heyd, E. N. Brothers, K. N. Kudin, 
 V. N. Staroverov, T. A. Keith, R. Kobayashi, J. Normand, 
 K. Raghavachari, A. P. Rendell, J. C. Burant, S. S. Iyengar, 
 J. Tomasi, M. Cossi, J. M. Millam, M. Klene, C. Adamo, R. Cammi, 
 J. W. Ochterski, R. L. Martin, K. Morokuma, O. Farkas, 
 J. B. Foresman, and D. J. Fox, Gaussian, Inc., Wallingford CT, 2016.
 
 ******************************************
 Gaussian 16:  ES64L-G16RevA.03 25-Dec-2016
                11-Feb-2020 
 ******************************************
 %chk=checkpoint.chk
 %mem=3GB
 %nprocshared=4
 Will use up to    4 processors via shared memory.
 ---------------------------------------------------------------------
 #t pop=none jul-cc-pvdz guess=read upbe1pbe empiricaldispersion=gd3bj
 ---------------------------------------------------------------------
 -----------------------------
 theory_abbreviation pbe0_d3bj
 -----------------------------
 Symbolic Z-matrix:
 Charge =  0 Multiplicity = 6
 O                    -0.30712  -0.14389  -0.43987 
 C                    -1.18284  -1.08803  -0.21118 
 C                    -2.60567  -0.274     0.84495 
 C                    -3.06533   0.67169  -0.06968 
 C                    -4.18491   0.38194  -1.00972 
 Fe                    1.5317    0.17283  -0.09954 
 Cl                    1.86531   2.13548  -1.02102 
 C                    -2.36005   1.9639   -0.21228 
 Cl                    2.53025  -1.53854  -1.0532 
 Cl                    1.83893   0.2042    2.08594 
 H                    -3.24987  -1.14677   0.95307 
 H                    -2.83712   2.63906  -0.92518 
 H                    -2.21619   2.47005   0.74781 
 H                    -1.33983   1.71662  -0.56905 
 H                    -5.01708   1.05806  -0.76428 
 H                    -3.90513   0.61147  -2.04546 
 H                    -4.54663  -0.64573  -0.94328 
 C                    -1.91935   0.18987   2.12155 
 H                    -2.53988   0.93494   2.63183 
 H                    -1.77465  -0.64391   2.80981 
 H                    -0.9419    0.63586   1.92665 
 C                    -0.7468   -2.17471   0.76809 
 H                    -1.57014  -2.83247   1.05691 
 H                     0.00525  -2.76961   0.2344 
 H                    -0.26479  -1.75853   1.65205 
 C                    -1.82096  -1.64473  -1.47488 
 H                    -1.0647   -2.2766   -1.95495 
 H                    -2.70038  -2.26019  -1.26666 
 H                    -2.07509  -0.8495   -2.17707 
 
                    Distance matrix (angstroms):
                    1          2          3          4          5
     1  O    0.000000
     2  C    1.307885   0.000000
     3  C    2.636478   1.950000   0.000000
     4  C    2.899990   2.580778   1.393618   0.000000
     5  C    3.954555   3.436703   2.522708   1.490333   0.000000
     6  Fe   1.896681   2.995151   4.267267   4.624119   5.792395
     7  Cl   3.201984   4.509766   5.410827   5.230572   6.299218
     8  C    2.951117   3.271095   2.487218   1.479037   2.543349
     9  Cl   3.220539   3.833922   5.619581   6.096141   6.984519
    10  Cl   3.332629   4.009701   4.639314   5.377458   6.775058
    11  H    3.406729   2.373091   1.090136   2.094487   2.657785
    12  H    3.792261   4.139759   3.416554   2.157427   2.630263
    13  H    3.447868   3.827185   2.773252   2.150209   3.365255
    14  H    2.131824   2.831739   2.750333   2.078126   3.173336
    15  H    4.871717   4.428654   3.190430   2.107380   1.099943
    16  H    4.011756   3.696450   3.290455   2.147692   1.097136
    17  H    4.298692   3.470839   2.665195   2.166341   1.091499
    18  C    3.044923   2.759912   1.521820   2.519313   3.869696
    19  H    3.947710   3.743884   2.158428   2.764696   4.033956
    20  H    3.600561   3.110283   2.165207   3.418794   4.631476
    21  H    2.571256   2.756836   2.183131   2.914718   4.382222
    22  C    2.403484   1.526436   2.659702   3.765566   4.638721
    23  H    3.326266   2.191157   2.768215   3.972905   4.630384
    24  H    2.728847   2.106614   3.663022   4.622066   5.388653
    25  H    2.642908   2.182665   2.887036   4.088200   5.199425
    26  C    2.369702   1.521201   2.806465   2.981417   3.148337
    27  H    2.723576   2.113621   3.771525   4.031028   4.206782
    28  H    3.300001   2.188824   2.900483   3.187771   3.041498
    29  H    2.577103   2.172026   3.121740   2.781307   2.707488
                    6          7          8          9         10
     6  Fe   0.000000
     7  Cl   2.193724   0.000000
     8  C    4.285601   4.305475   0.000000
     9  Cl   2.198939   3.733845   6.073649   0.000000
    10  Cl   2.207195   3.658381   5.099981   3.656403   0.000000
    11  H    5.070772   6.390240   3.438903   6.130935   5.385570
    12  H    5.084346   4.730280   1.091633   6.802745   6.071312
    13  H    4.476820   4.460861   1.094827   6.468466   4.834117
    14  H    3.293845   3.263829   1.108733   5.080150   4.409186
    15  H    6.641688   6.970937   2.860953   7.986733   7.473799
    16  H    5.791216   6.055579   2.752614   6.857203   7.087214
    17  H    6.190970   6.989575   3.482194   7.133825   7.118567
    18  C    4.104060   5.290064   2.964486   5.732834   3.758477
    19  H    4.961753   5.847242   3.029857   6.738232   4.472805
    20  H    4.479207   5.970718   4.034400   5.852804   3.781693
    21  H    3.230875   4.337973   2.889612   5.065898   2.818639
    22  C    3.384571   5.348066   4.548826   3.802749   3.752593
    23  H    4.471090   6.387539   5.023939   4.789579   4.679962
    24  H    3.331591   5.394051   5.310391   3.090158   3.953999
    25  H    3.166318   5.181302   4.660720   3.896024   2.909671
    26  C    4.054065   5.299488   3.860955   4.372886   5.430728
    27  H    4.022882   5.378074   4.764102   3.779097   5.560061
    28  H    5.019191   6.342535   4.366974   5.284490   6.157802
    29  H    4.286050   5.076740   3.443371   4.790301   5.882438
                   11         12         13         14         15
    11  H    0.000000
    12  H    4.246254   0.000000
    13  H    3.767220   1.792482   0.000000
    14  H    3.763523   1.794326   1.752081   0.000000
    15  H    3.306592   2.697721   3.482108   3.740855   0.000000
    16  H    3.537224   2.550846   3.756215   3.159418   1.754221
    17  H    2.351338   3.703058   4.242499   4.000545   1.776583
    18  C    2.218605   4.015397   2.678527   3.147409   4.321766
    19  H    2.766910   3.955332   2.451704   3.506678   4.205372
    20  H    2.424171   5.084966   3.760790   4.144621   5.117043
    21  H    3.074460   3.967063   2.525417   2.748623   4.901672
    22  C    2.712238   5.514439   4.871685   4.157177   5.570837
    23  H    2.381987   5.955802   5.350664   4.836429   5.507657
    24  H    3.707546   6.219115   5.714224   4.751948   6.393133
    25  H    3.126264   5.709447   4.744099   4.262119   6.029596
    26  C    2.860888   4.436848   4.693391   3.514354   4.245605
    27  H    3.808945   5.325940   5.582247   4.235826   5.306497
    28  H    2.543398   4.913041   5.164073   4.260607   4.078017
    29  H    3.356520   3.783911   4.426531   3.116294   3.780217
                   16         17         18         19         20
    16  H    0.000000
    17  H    1.790776   0.000000
    18  C    4.635197   4.122382   0.000000
    19  H    4.883188   4.393967   1.095708   0.000000
    20  H    5.448721   4.665788   1.090790   1.763531   0.000000
    21  H    4.955701   4.782578   1.091926   1.772082   1.763871
    22  C    5.064974   4.439068   2.966136   4.044576   2.751074
    23  H    5.190146   4.200250   3.223342   4.196921   2.811450
    24  H    5.649828   5.159210   4.002989   5.094020   3.784089
    25  H    5.704434   5.129158   2.598896   3.659345   2.205096
    26  C    3.124063   2.951251   4.038532   4.902711   4.400263
    27  H    4.051814   3.975810   4.840636   5.790395   5.086512
    28  H    3.210043   2.473804   4.253562   5.043098   4.481847
    29  H    2.345382   2.769888   4.425229   5.150311   5.000143
                   21         22         23         24         25
    21  H    0.000000
    22  C    3.046247   0.000000
    23  H    3.630486   1.092681   0.000000
    24  H    3.918927   1.097410   1.778298   0.000000
    25  H    2.503392   1.089460   1.792064   1.762080   0.000000
    26  C    4.188582   2.542761   2.807776   2.742635   3.494611
    27  H    4.854308   2.743431   3.104154   2.486185   3.730778
    28  H    4.655811   2.822060   2.646498   3.135785   3.834405
    29  H    4.508977   3.492063   3.826976   3.718844   4.331932
                   26         27         28         29
    26  C    0.000000
    27  H    1.096202   0.000000
    28  H    1.093397   1.774668   0.000000
    29  H    1.090887   1.762621   1.791607   0.000000
 Framework group  C1[X(C8H16Cl3FeO)]
 Deg. of freedom    81
                         Standard orientation:                         
 ---------------------------------------------------------------------
 Center     Atomic      Atomic             Coordinates (Angstroms)
 Number     Number       Type             X           Y           Z
 ---------------------------------------------------------------------
      1          8           0       -0.307119   -0.143892   -0.439868
      2          6           0       -1.182836   -1.088025   -0.211184
      3          6           0       -2.605671   -0.274002    0.844945
      4          6           0       -3.065330    0.671693   -0.069683
      5          6           0       -4.184911    0.381943   -1.009723
      6         26           0        1.531703    0.172826   -0.099540
      7         17           0        1.865306    2.135481   -1.021016
      8          6           0       -2.360048    1.963898   -0.212280
      9         17           0        2.530249   -1.538538   -1.053203
     10         17           0        1.838931    0.204196    2.085943
     11          1           0       -3.249867   -1.146766    0.953072
     12          1           0       -2.837116    2.639062   -0.925177
     13          1           0       -2.216190    2.470045    0.747807
     14          1           0       -1.339825    1.716619   -0.569054
     15          1           0       -5.017077    1.058056   -0.764275
     16          1           0       -3.905132    0.611471   -2.045458
     17          1           0       -4.546634   -0.645730   -0.943279
     18          6           0       -1.919350    0.189866    2.121552
     19          1           0       -2.539883    0.934940    2.631826
     20          1           0       -1.774645   -0.643913    2.809807
     21          1           0       -0.941900    0.635856    1.926649
     22          6           0       -0.746801   -2.174715    0.768094
     23          1           0       -1.570143   -2.832472    1.056912
     24          1           0        0.005251   -2.769609    0.234401
     25          1           0       -0.264787   -1.758530    1.652048
     26          6           0       -1.820963   -1.644731   -1.474879
     27          1           0       -1.064704   -2.276603   -1.954950
     28          1           0       -2.700381   -2.260189   -1.266664
     29          1           0       -2.075090   -0.849502   -2.177065
 ---------------------------------------------------------------------
 Rotational constants (GHZ):           0.6044136           0.3041198           0.2912221
   427 basis functions,  1056 primitive gaussians,   461 cartesian basis functions
    77 alpha electrons       72 beta electrons
       nuclear repulsion energy      1624.9817780468 Hartrees.
 NAtoms=   29 NActive=   29 NUniq=   29 SFac= 1.00D+00 NAtFMM=   60 NAOKFM=F Big=F
 Nuclear repulsion after empirical dispersion term =     1624.9459663792 Hartrees.
 Initial guess from the checkpoint file:  "checkpoint.chk"
 B after Tr=     0.000000    0.000000    0.000000
         Rot=    1.000000    0.000000    0.000000    0.000000 Ang=   0.00 deg.
 Initial guess <Sx>= 0.0000 <Sy>= 0.0000 <Sz>= 2.5000 <S**2>= 8.7629 S= 2.5022
 SCF Done:  E(UPBE1PBE) =  -3033.15104755     A.U. after    1 cycles
            NFock=  1  Conv=0.28D-08     -V/T= 2.0021
 <Sx>= 0.0000 <Sy>= 0.0000 <Sz>= 2.5000 <S**2>= 8.7629 S= 2.5022
 <L.S>= 0.000000000000E+00
 Annihilation of the first spin contaminant:
 S**2 before annihilation     8.7629,   after     8.7501
 1\1\GINC-HOLY7C08607\SP\UPBE1PBE\Jul-CC-pVDZ\C8H16Cl3Fe1O1(6)\EKWAN\11
 -Feb-2020\0\\#t pop=none jul-cc-pvdz guess=read upbe1pbe empiricaldisp
 ersion=gd3bj\\theory_abbreviation pbe0_d3bj\\0,6\O,0,-0.307119,-0.1438
 92,-0.439868\C,0,-1.182836,-1.088025,-0.211184\C,0,-2.605671,-0.274002
 ,0.844945\C,0,-3.06533,0.671693,-0.069683\C,0,-4.184911,0.381943,-1.00
 9723\Fe,0,1.531703,0.172826,-0.09954\Cl,0,1.865306,2.135481,-1.021016\
 C,0,-2.360048,1.963898,-0.21228\Cl,0,2.530249,-1.538538,-1.053203\Cl,0
 ,1.838931,0.204196,2.085943\H,0,-3.249867,-1.146766,0.953072\H,0,-2.83
 7116,2.639062,-0.925177\H,0,-2.21619,2.470045,0.747807\H,0,-1.339825,1
 .716619,-0.569054\H,0,-5.017077,1.058056,-0.764275\H,0,-3.905132,0.611
 471,-2.045458\H,0,-4.546634,-0.64573,-0.943279\C,0,-1.91935,0.189866,2
 .121552\H,0,-2.539883,0.93494,2.631826\H,0,-1.774645,-0.643913,2.80980
 7\H,0,-0.9419,0.635856,1.926649\C,0,-0.746801,-2.174715,0.768094\H,0,-
 1.570143,-2.832472,1.056912\H,0,0.005251,-2.769609,0.234401\H,0,-0.264
 787,-1.75853,1.652048\C,0,-1.820963,-1.644731,-1.474879\H,0,-1.064704,
 -2.276603,-1.95495\H,0,-2.700381,-2.260189,-1.266664\H,0,-2.07509,-0.8
 49502,-2.177065\\Version=ES64L-G16RevA.03\HF=-3033.1510476\S2=8.762923
 \S2-1=0.\S2A=8.750052\RMSD=2.823e-09\PG=C01 [X(C8H16Cl3Fe1O1)]\\@


 FOR THE NATURE OF THE CHEMICAL BOND
 IS THE PROBLEM AT THE HEART OF ALL CHEMISTRY.

                     -- BRYCE CRAWFORD, JR., 1953
 Job cpu time:       0 days  0 hours  4 minutes 38.0 seconds.
 Elapsed time:       0 days  0 hours  1 minutes 10.2 seconds.
 File lengths (MBytes):  RWF=    170 Int=      0 D2E=      0 Chk=     13 Scr=      1
 Normal termination of Gaussian 16 at Tue Feb 11 14:00:17 2020.
 Initial command:
 /n/sw/g16_nehalem/g16/l1.exe "/scratch/Gau-98687.inp" -scrdir="/scratch/"
 Entering Link 1 = /n/sw/g16_nehalem/g16/l1.exe PID=    101604.
  
 Copyright (c) 1988,1990,1992,1993,1995,1998,2003,2009,2016,
            Gaussian, Inc.  All Rights Reserved.
  
 This is part of the Gaussian(R) 16 program.  It is based on
 the Gaussian(R) 09 system (copyright 2009, Gaussian, Inc.),
 the Gaussian(R) 03 system (copyright 2003, Gaussian, Inc.),
 the Gaussian(R) 98 system (copyright 1998, Gaussian, Inc.),
 the Gaussian(R) 94 system (copyright 1995, Gaussian, Inc.),
 the Gaussian 92(TM) system (copyright 1992, Gaussian, Inc.),
 the Gaussian 90(TM) system (copyright 1990, Gaussian, Inc.),
 the Gaussian 88(TM) system (copyright 1988, Gaussian, Inc.),
 the Gaussian 86(TM) system (copyright 1986, Carnegie Mellon
 University), and the Gaussian 82(TM) system (copyright 1983,
 Carnegie Mellon University). Gaussian is a federally registered
 trademark of Gaussian, Inc.
  
 This software contains proprietary and confidential information,
 including trade secrets, belonging to Gaussian, Inc.
  
 This software is provided under written license and may be
 used, copied, transmitted, or stored only in accord with that
 written license.
  
 The following legend is applicable only to US Government
 contracts under FAR:
  
                    RESTRICTED RIGHTS LEGEND
  
 Use, reproduction and disclosure by the US Government is
 subject to restrictions as set forth in subparagraphs (a)
 and (c) of the Commercial Computer Software - Restricted
 Rights clause in FAR 52.227-19.
  
 Gaussian, Inc.
 340 Quinnipiac St., Bldg. 40, Wallingford CT 06492
  
  
 ---------------------------------------------------------------
 Warning -- This program may not be used in any manner that
 competes with the business of Gaussian, Inc. or will provide
 assistance to any competitor of Gaussian, Inc.  The licensee
 of this program is prohibited from giving any competitor of
 Gaussian, Inc. access to this program.  By using this program,
 the user acknowledges that Gaussian, Inc. is engaged in the
 business of creating and licensing software in the field of
 computational chemistry and represents and warrants to the
 licensee that it is not a competitor of Gaussian, Inc. and that
 it will not use this program in any manner prohibited above.
 ---------------------------------------------------------------
  

 Cite this work as:
 Gaussian 16, Revision A.03,
 M. J. Frisch, G. W. Trucks, H. B. Schlegel, G. E. Scuseria, 
 M. A. Robb, J. R. Cheeseman, G. Scalmani, V. Barone, 
 G. A. Petersson, H. Nakatsuji, X. Li, M. Caricato, A. V. Marenich, 
 J. Bloino, B. G. Janesko, R. Gomperts, B. Mennucci, H. P. Hratchian, 
 J. V. Ortiz, A. F. Izmaylov, J. L. Sonnenberg, D. Williams-Young, 
 F. Ding, F. Lipparini, F. Egidi, J. Goings, B. Peng, A. Petrone, 
 T. Henderson, D. Ranasinghe, V. G. Zakrzewski, J. Gao, N. Rega, 
 G. Zheng, W. Liang, M. Hada, M. Ehara, K. Toyota, R. Fukuda, 
 J. Hasegawa, M. Ishida, T. Nakajima, Y. Honda, O. Kitao, H. Nakai, 
 T. Vreven, K. Throssell, J. A. Montgomery, Jr., J. E. Peralta, 
 F. Ogliaro, M. J. Bearpark, J. J. Heyd, E. N. Brothers, K. N. Kudin, 
 V. N. Staroverov, T. A. Keith, R. Kobayashi, J. Normand, 
 K. Raghavachari, A. P. Rendell, J. C. Burant, S. S. Iyengar, 
 J. Tomasi, M. Cossi, J. M. Millam, M. Klene, C. Adamo, R. Cammi, 
 J. W. Ochterski, R. L. Martin, K. Morokuma, O. Farkas, 
 J. B. Foresman, and D. J. Fox, Gaussian, Inc., Wallingford CT, 2016.
 
 ******************************************
 Gaussian 16:  ES64L-G16RevA.03 25-Dec-2016
                11-Feb-2020 
 ******************************************
 %chk=checkpoint.chk
 %mem=3GB
 %nprocshared=4
 Will use up to    4 processors via shared memory.
 -----------------------------------------
 #t pop=none jul-cc-pvdz guess=read ub3lyp
 -----------------------------------------
 -------------------------
 theory_abbreviation b3lyp
 -------------------------
 Symbolic Z-matrix:
 Charge =  0 Multiplicity = 6
 O                    -0.30712  -0.14389  -0.43987 
 C                    -1.18284  -1.08803  -0.21118 
 C                    -2.60567  -0.274     0.84495 
 C                    -3.06533   0.67169  -0.06968 
 C                    -4.18491   0.38194  -1.00972 
 Fe                    1.5317    0.17283  -0.09954 
 Cl                    1.86531   2.13548  -1.02102 
 C                    -2.36005   1.9639   -0.21228 
 Cl                    2.53025  -1.53854  -1.0532 
 Cl                    1.83893   0.2042    2.08594 
 H                    -3.24987  -1.14677   0.95307 
 H                    -2.83712   2.63906  -0.92518 
 H                    -2.21619   2.47005   0.74781 
 H                    -1.33983   1.71662  -0.56905 
 H                    -5.01708   1.05806  -0.76428 
 H                    -3.90513   0.61147  -2.04546 
 H                    -4.54663  -0.64573  -0.94328 
 C                    -1.91935   0.18987   2.12155 
 H                    -2.53988   0.93494   2.63183 
 H                    -1.77465  -0.64391   2.80981 
 H                    -0.9419    0.63586   1.92665 
 C                    -0.7468   -2.17471   0.76809 
 H                    -1.57014  -2.83247   1.05691 
 H                     0.00525  -2.76961   0.2344 
 H                    -0.26479  -1.75853   1.65205 
 C                    -1.82096  -1.64473  -1.47488 
 H                    -1.0647   -2.2766   -1.95495 
 H                    -2.70038  -2.26019  -1.26666 
 H                    -2.07509  -0.8495   -2.17707 
 
                    Distance matrix (angstroms):
                    1          2          3          4          5
     1  O    0.000000
     2  C    1.307885   0.000000
     3  C    2.636478   1.950000   0.000000
     4  C    2.899990   2.580778   1.393618   0.000000
     5  C    3.954555   3.436703   2.522708   1.490333   0.000000
     6  Fe   1.896681   2.995151   4.267267   4.624119   5.792395
     7  Cl   3.201984   4.509766   5.410827   5.230572   6.299218
     8  C    2.951117   3.271095   2.487218   1.479037   2.543349
     9  Cl   3.220539   3.833922   5.619581   6.096141   6.984519
    10  Cl   3.332629   4.009701   4.639314   5.377458   6.775058
    11  H    3.406729   2.373091   1.090136   2.094487   2.657785
    12  H    3.792261   4.139759   3.416554   2.157427   2.630263
    13  H    3.447868   3.827185   2.773252   2.150209   3.365255
    14  H    2.131824   2.831739   2.750333   2.078126   3.173336
    15  H    4.871717   4.428654   3.190430   2.107380   1.099943
    16  H    4.011756   3.696450   3.290455   2.147692   1.097136
    17  H    4.298692   3.470839   2.665195   2.166341   1.091499
    18  C    3.044923   2.759912   1.521820   2.519313   3.869696
    19  H    3.947710   3.743884   2.158428   2.764696   4.033956
    20  H    3.600561   3.110283   2.165207   3.418794   4.631476
    21  H    2.571256   2.756836   2.183131   2.914718   4.382222
    22  C    2.403484   1.526436   2.659702   3.765566   4.638721
    23  H    3.326266   2.191157   2.768215   3.972905   4.630384
    24  H    2.728847   2.106614   3.663022   4.622066   5.388653
    25  H    2.642908   2.182665   2.887036   4.088200   5.199425
    26  C    2.369702   1.521201   2.806465   2.981417   3.148337
    27  H    2.723576   2.113621   3.771525   4.031028   4.206782
    28  H    3.300001   2.188824   2.900483   3.187771   3.041498
    29  H    2.577103   2.172026   3.121740   2.781307   2.707488
                    6          7          8          9         10
     6  Fe   0.000000
     7  Cl   2.193724   0.000000
     8  C    4.285601   4.305475   0.000000
     9  Cl   2.198939   3.733845   6.073649   0.000000
    10  Cl   2.207195   3.658381   5.099981   3.656403   0.000000
    11  H    5.070772   6.390240   3.438903   6.130935   5.385570
    12  H    5.084346   4.730280   1.091633   6.802745   6.071312
    13  H    4.476820   4.460861   1.094827   6.468466   4.834117
    14  H    3.293845   3.263829   1.108733   5.080150   4.409186
    15  H    6.641688   6.970937   2.860953   7.986733   7.473799
    16  H    5.791216   6.055579   2.752614   6.857203   7.087214
    17  H    6.190970   6.989575   3.482194   7.133825   7.118567
    18  C    4.104060   5.290064   2.964486   5.732834   3.758477
    19  H    4.961753   5.847242   3.029857   6.738232   4.472805
    20  H    4.479207   5.970718   4.034400   5.852804   3.781693
    21  H    3.230875   4.337973   2.889612   5.065898   2.818639
    22  C    3.384571   5.348066   4.548826   3.802749   3.752593
    23  H    4.471090   6.387539   5.023939   4.789579   4.679962
    24  H    3.331591   5.394051   5.310391   3.090158   3.953999
    25  H    3.166318   5.181302   4.660720   3.896024   2.909671
    26  C    4.054065   5.299488   3.860955   4.372886   5.430728
    27  H    4.022882   5.378074   4.764102   3.779097   5.560061
    28  H    5.019191   6.342535   4.366974   5.284490   6.157802
    29  H    4.286050   5.076740   3.443371   4.790301   5.882438
                   11         12         13         14         15
    11  H    0.000000
    12  H    4.246254   0.000000
    13  H    3.767220   1.792482   0.000000
    14  H    3.763523   1.794326   1.752081   0.000000
    15  H    3.306592   2.697721   3.482108   3.740855   0.000000
    16  H    3.537224   2.550846   3.756215   3.159418   1.754221
    17  H    2.351338   3.703058   4.242499   4.000545   1.776583
    18  C    2.218605   4.015397   2.678527   3.147409   4.321766
    19  H    2.766910   3.955332   2.451704   3.506678   4.205372
    20  H    2.424171   5.084966   3.760790   4.144621   5.117043
    21  H    3.074460   3.967063   2.525417   2.748623   4.901672
    22  C    2.712238   5.514439   4.871685   4.157177   5.570837
    23  H    2.381987   5.955802   5.350664   4.836429   5.507657
    24  H    3.707546   6.219115   5.714224   4.751948   6.393133
    25  H    3.126264   5.709447   4.744099   4.262119   6.029596
    26  C    2.860888   4.436848   4.693391   3.514354   4.245605
    27  H    3.808945   5.325940   5.582247   4.235826   5.306497
    28  H    2.543398   4.913041   5.164073   4.260607   4.078017
    29  H    3.356520   3.783911   4.426531   3.116294   3.780217
                   16         17         18         19         20
    16  H    0.000000
    17  H    1.790776   0.000000
    18  C    4.635197   4.122382   0.000000
    19  H    4.883188   4.393967   1.095708   0.000000
    20  H    5.448721   4.665788   1.090790   1.763531   0.000000
    21  H    4.955701   4.782578   1.091926   1.772082   1.763871
    22  C    5.064974   4.439068   2.966136   4.044576   2.751074
    23  H    5.190146   4.200250   3.223342   4.196921   2.811450
    24  H    5.649828   5.159210   4.002989   5.094020   3.784089
    25  H    5.704434   5.129158   2.598896   3.659345   2.205096
    26  C    3.124063   2.951251   4.038532   4.902711   4.400263
    27  H    4.051814   3.975810   4.840636   5.790395   5.086512
    28  H    3.210043   2.473804   4.253562   5.043098   4.481847
    29  H    2.345382   2.769888   4.425229   5.150311   5.000143
                   21         22         23         24         25
    21  H    0.000000
    22  C    3.046247   0.000000
    23  H    3.630486   1.092681   0.000000
    24  H    3.918927   1.097410   1.778298   0.000000
    25  H    2.503392   1.089460   1.792064   1.762080   0.000000
    26  C    4.188582   2.542761   2.807776   2.742635   3.494611
    27  H    4.854308   2.743431   3.104154   2.486185   3.730778
    28  H    4.655811   2.822060   2.646498   3.135785   3.834405
    29  H    4.508977   3.492063   3.826976   3.718844   4.331932
                   26         27         28         29
    26  C    0.000000
    27  H    1.096202   0.000000
    28  H    1.093397   1.774668   0.000000
    29  H    1.090887   1.762621   1.791607   0.000000
 Framework group  C1[X(C8H16Cl3FeO)]
 Deg. of freedom    81
                         Standard orientation:                         
 ---------------------------------------------------------------------
 Center     Atomic      Atomic             Coordinates (Angstroms)
 Number     Number       Type             X           Y           Z
 ---------------------------------------------------------------------
      1          8           0       -0.307119   -0.143892   -0.439868
      2          6           0       -1.182836   -1.088025   -0.211184
      3          6           0       -2.605671   -0.274002    0.844945
      4          6           0       -3.065330    0.671693   -0.069683
      5          6           0       -4.184911    0.381943   -1.009723
      6         26           0        1.531703    0.172826   -0.099540
      7         17           0        1.865306    2.135481   -1.021016
      8          6           0       -2.360048    1.963898   -0.212280
      9         17           0        2.530249   -1.538538   -1.053203
     10         17           0        1.838931    0.204196    2.085943
     11          1           0       -3.249867   -1.146766    0.953072
     12          1           0       -2.837116    2.639062   -0.925177
     13          1           0       -2.216190    2.470045    0.747807
     14          1           0       -1.339825    1.716619   -0.569054
     15          1           0       -5.017077    1.058056   -0.764275
     16          1           0       -3.905132    0.611471   -2.045458
     17          1           0       -4.546634   -0.645730   -0.943279
     18          6           0       -1.919350    0.189866    2.121552
     19          1           0       -2.539883    0.934940    2.631826
     20          1           0       -1.774645   -0.643913    2.809807
     21          1           0       -0.941900    0.635856    1.926649
     22          6           0       -0.746801   -2.174715    0.768094
     23          1           0       -1.570143   -2.832472    1.056912
     24          1           0        0.005251   -2.769609    0.234401
     25          1           0       -0.264787   -1.758530    1.652048
     26          6           0       -1.820963   -1.644731   -1.474879
     27          1           0       -1.064704   -2.276603   -1.954950
     28          1           0       -2.700381   -2.260189   -1.266664
     29          1           0       -2.075090   -0.849502   -2.177065
 ---------------------------------------------------------------------
 Rotational constants (GHZ):           0.6044136           0.3041198           0.2912221
   427 basis functions,  1056 primitive gaussians,   461 cartesian basis functions
    77 alpha electrons       72 beta electrons
       nuclear repulsion energy      1624.9817780468 Hartrees.
 NAtoms=   29 NActive=   29 NUniq=   29 SFac= 1.00D+00 NAtFMM=   60 NAOKFM=F Big=F
 Initial guess from the checkpoint file:  "checkpoint.chk"
 B after Tr=     0.000000    0.000000    0.000000
         Rot=    1.000000    0.000000    0.000000    0.000000 Ang=   0.00 deg.
 Initial guess <Sx>= 0.0000 <Sy>= 0.0000 <Sz>= 2.5000 <S**2>= 8.7629 S= 2.5022
 SCF Done:  E(UB3LYP) =  -3034.32964082     A.U. after   15 cycles
            NFock= 15  Conv=0.70D-08     -V/T= 2.0024
 <Sx>= 0.0000 <Sy>= 0.0000 <Sz>= 2.5000 <S**2>= 8.7622 S= 2.5020
 <L.S>= 0.000000000000E+00
 Annihilation of the first spin contaminant:
 S**2 before annihilation     8.7622,   after     8.7500
 1\1\GINC-HOLY7C08607\SP\UB3LYP\Jul-CC-pVDZ\C8H16Cl3Fe1O1(6)\EKWAN\11-F
 eb-2020\0\\#t pop=none jul-cc-pvdz guess=read ub3lyp\\theory_abbreviat
 ion b3lyp\\0,6\O,0,-0.307119,-0.143892,-0.439868\C,0,-1.182836,-1.0880
 25,-0.211184\C,0,-2.605671,-0.274002,0.844945\C,0,-3.06533,0.671693,-0
 .069683\C,0,-4.184911,0.381943,-1.009723\Fe,0,1.531703,0.172826,-0.099
 54\Cl,0,1.865306,2.135481,-1.021016\C,0,-2.360048,1.963898,-0.21228\Cl
 ,0,2.530249,-1.538538,-1.053203\Cl,0,1.838931,0.204196,2.085943\H,0,-3
 .249867,-1.146766,0.953072\H,0,-2.837116,2.639062,-0.925177\H,0,-2.216
 19,2.470045,0.747807\H,0,-1.339825,1.716619,-0.569054\H,0,-5.017077,1.
 058056,-0.764275\H,0,-3.905132,0.611471,-2.045458\H,0,-4.546634,-0.645
 73,-0.943279\C,0,-1.91935,0.189866,2.121552\H,0,-2.539883,0.93494,2.63
 1826\H,0,-1.774645,-0.643913,2.809807\H,0,-0.9419,0.635856,1.926649\C,
 0,-0.746801,-2.174715,0.768094\H,0,-1.570143,-2.832472,1.056912\H,0,0.
 005251,-2.769609,0.234401\H,0,-0.264787,-1.75853,1.652048\C,0,-1.82096
 3,-1.644731,-1.474879\H,0,-1.064704,-2.276603,-1.95495\H,0,-2.700381,-
 2.260189,-1.266664\H,0,-2.07509,-0.849502,-2.177065\\Version=ES64L-G16
 RevA.03\HF=-3034.3296408\S2=8.762212\S2-1=0.\S2A=8.750046\RMSD=7.031e-
 09\PG=C01 [X(C8H16Cl3Fe1O1)]\\@


 HE THAT IS UNAWARE OF HIS IGNORANCE WILL BE MISLED BY HIS KNOWLEDGE.

                                        -- WHATLEY
 Job cpu time:       0 days  1 hours  2 minutes 38.7 seconds.
 Elapsed time:       0 days  0 hours 15 minutes 42.3 seconds.
 File lengths (MBytes):  RWF=    174 Int=      0 D2E=      0 Chk=     13 Scr=      1
 Normal termination of Gaussian 16 at Tue Feb 11 14:15:59 2020.
 Initial command:
 /n/sw/g16_nehalem/g16/l1.exe "/scratch/Gau-98687.inp" -scrdir="/scratch/"
 Entering Link 1 = /n/sw/g16_nehalem/g16/l1.exe PID=    102885.
  
 Copyright (c) 1988,1990,1992,1993,1995,1998,2003,2009,2016,
            Gaussian, Inc.  All Rights Reserved.
  
 This is part of the Gaussian(R) 16 program.  It is based on
 the Gaussian(R) 09 system (copyright 2009, Gaussian, Inc.),
 the Gaussian(R) 03 system (copyright 2003, Gaussian, Inc.),
 the Gaussian(R) 98 system (copyright 1998, Gaussian, Inc.),
 the Gaussian(R) 94 system (copyright 1995, Gaussian, Inc.),
 the Gaussian 92(TM) system (copyright 1992, Gaussian, Inc.),
 the Gaussian 90(TM) system (copyright 1990, Gaussian, Inc.),
 the Gaussian 88(TM) system (copyright 1988, Gaussian, Inc.),
 the Gaussian 86(TM) system (copyright 1986, Carnegie Mellon
 University), and the Gaussian 82(TM) system (copyright 1983,
 Carnegie Mellon University). Gaussian is a federally registered
 trademark of Gaussian, Inc.
  
 This software contains proprietary and confidential information,
 including trade secrets, belonging to Gaussian, Inc.
  
 This software is provided under written license and may be
 used, copied, transmitted, or stored only in accord with that
 written license.
  
 The following legend is applicable only to US Government
 contracts under FAR:
  
                    RESTRICTED RIGHTS LEGEND
  
 Use, reproduction and disclosure by the US Government is
 subject to restrictions as set forth in subparagraphs (a)
 and (c) of the Commercial Computer Software - Restricted
 Rights clause in FAR 52.227-19.
  
 Gaussian, Inc.
 340 Quinnipiac St., Bldg. 40, Wallingford CT 06492
  
  
 ---------------------------------------------------------------
 Warning -- This program may not be used in any manner that
 competes with the business of Gaussian, Inc. or will provide
 assistance to any competitor of Gaussian, Inc.  The licensee
 of this program is prohibited from giving any competitor of
 Gaussian, Inc. access to this program.  By using this program,
 the user acknowledges that Gaussian, Inc. is engaged in the
 business of creating and licensing software in the field of
 computational chemistry and represents and warrants to the
 licensee that it is not a competitor of Gaussian, Inc. and that
 it will not use this program in any manner prohibited above.
 ---------------------------------------------------------------
  

 Cite this work as:
 Gaussian 16, Revision A.03,
 M. J. Frisch, G. W. Trucks, H. B. Schlegel, G. E. Scuseria, 
 M. A. Robb, J. R. Cheeseman, G. Scalmani, V. Barone, 
 G. A. Petersson, H. Nakatsuji, X. Li, M. Caricato, A. V. Marenich, 
 J. Bloino, B. G. Janesko, R. Gomperts, B. Mennucci, H. P. Hratchian, 
 J. V. Ortiz, A. F. Izmaylov, J. L. Sonnenberg, D. Williams-Young, 
 F. Ding, F. Lipparini, F. Egidi, J. Goings, B. Peng, A. Petrone, 
 T. Henderson, D. Ranasinghe, V. G. Zakrzewski, J. Gao, N. Rega, 
 G. Zheng, W. Liang, M. Hada, M. Ehara, K. Toyota, R. Fukuda, 
 J. Hasegawa, M. Ishida, T. Nakajima, Y. Honda, O. Kitao, H. Nakai, 
 T. Vreven, K. Throssell, J. A. Montgomery, Jr., J. E. Peralta, 
 F. Ogliaro, M. J. Bearpark, J. J. Heyd, E. N. Brothers, K. N. Kudin, 
 V. N. Staroverov, T. A. Keith, R. Kobayashi, J. Normand, 
 K. Raghavachari, A. P. Rendell, J. C. Burant, S. S. Iyengar, 
 J. Tomasi, M. Cossi, J. M. Millam, M. Klene, C. Adamo, R. Cammi, 
 J. W. Ochterski, R. L. Martin, K. Morokuma, O. Farkas, 
 J. B. Foresman, and D. J. Fox, Gaussian, Inc., Wallingford CT, 2016.
 
 ******************************************
 Gaussian 16:  ES64L-G16RevA.03 25-Dec-2016
                11-Feb-2020 
 ******************************************
 %chk=checkpoint.chk
 %mem=3GB
 %nprocshared=4
 Will use up to    4 processors via shared memory.
 -------------------------------------------------------------------
 #t pop=none jul-cc-pvdz guess=read ub3lyp empiricaldispersion=gd3bj
 -------------------------------------------------------------------
 ------------------------------
 theory_abbreviation b3lyp_d3bj
 ------------------------------
 Symbolic Z-matrix:
 Charge =  0 Multiplicity = 6
 O                    -0.30712  -0.14389  -0.43987 
 C                    -1.18284  -1.08803  -0.21118 
 C                    -2.60567  -0.274     0.84495 
 C                    -3.06533   0.67169  -0.06968 
 C                    -4.18491   0.38194  -1.00972 
 Fe                    1.5317    0.17283  -0.09954 
 Cl                    1.86531   2.13548  -1.02102 
 C                    -2.36005   1.9639   -0.21228 
 Cl                    2.53025  -1.53854  -1.0532 
 Cl                    1.83893   0.2042    2.08594 
 H                    -3.24987  -1.14677   0.95307 
 H                    -2.83712   2.63906  -0.92518 
 H                    -2.21619   2.47005   0.74781 
 H                    -1.33983   1.71662  -0.56905 
 H                    -5.01708   1.05806  -0.76428 
 H                    -3.90513   0.61147  -2.04546 
 H                    -4.54663  -0.64573  -0.94328 
 C                    -1.91935   0.18987   2.12155 
 H                    -2.53988   0.93494   2.63183 
 H                    -1.77465  -0.64391   2.80981 
 H                    -0.9419    0.63586   1.92665 
 C                    -0.7468   -2.17471   0.76809 
 H                    -1.57014  -2.83247   1.05691 
 H                     0.00525  -2.76961   0.2344 
 H                    -0.26479  -1.75853   1.65205 
 C                    -1.82096  -1.64473  -1.47488 
 H                    -1.0647   -2.2766   -1.95495 
 H                    -2.70038  -2.26019  -1.26666 
 H                    -2.07509  -0.8495   -2.17707 
 
                    Distance matrix (angstroms):
                    1          2          3          4          5
     1  O    0.000000
     2  C    1.307885   0.000000
     3  C    2.636478   1.950000   0.000000
     4  C    2.899990   2.580778   1.393618   0.000000
     5  C    3.954555   3.436703   2.522708   1.490333   0.000000
     6  Fe   1.896681   2.995151   4.267267   4.624119   5.792395
     7  Cl   3.201984   4.509766   5.410827   5.230572   6.299218
     8  C    2.951117   3.271095   2.487218   1.479037   2.543349
     9  Cl   3.220539   3.833922   5.619581   6.096141   6.984519
    10  Cl   3.332629   4.009701   4.639314   5.377458   6.775058
    11  H    3.406729   2.373091   1.090136   2.094487   2.657785
    12  H    3.792261   4.139759   3.416554   2.157427   2.630263
    13  H    3.447868   3.827185   2.773252   2.150209   3.365255
    14  H    2.131824   2.831739   2.750333   2.078126   3.173336
    15  H    4.871717   4.428654   3.190430   2.107380   1.099943
    16  H    4.011756   3.696450   3.290455   2.147692   1.097136
    17  H    4.298692   3.470839   2.665195   2.166341   1.091499
    18  C    3.044923   2.759912   1.521820   2.519313   3.869696
    19  H    3.947710   3.743884   2.158428   2.764696   4.033956
    20  H    3.600561   3.110283   2.165207   3.418794   4.631476
    21  H    2.571256   2.756836   2.183131   2.914718   4.382222
    22  C    2.403484   1.526436   2.659702   3.765566   4.638721
    23  H    3.326266   2.191157   2.768215   3.972905   4.630384
    24  H    2.728847   2.106614   3.663022   4.622066   5.388653
    25  H    2.642908   2.182665   2.887036   4.088200   5.199425
    26  C    2.369702   1.521201   2.806465   2.981417   3.148337
    27  H    2.723576   2.113621   3.771525   4.031028   4.206782
    28  H    3.300001   2.188824   2.900483   3.187771   3.041498
    29  H    2.577103   2.172026   3.121740   2.781307   2.707488
                    6          7          8          9         10
     6  Fe   0.000000
     7  Cl   2.193724   0.000000
     8  C    4.285601   4.305475   0.000000
     9  Cl   2.198939   3.733845   6.073649   0.000000
    10  Cl   2.207195   3.658381   5.099981   3.656403   0.000000
    11  H    5.070772   6.390240   3.438903   6.130935   5.385570
    12  H    5.084346   4.730280   1.091633   6.802745   6.071312
    13  H    4.476820   4.460861   1.094827   6.468466   4.834117
    14  H    3.293845   3.263829   1.108733   5.080150   4.409186
    15  H    6.641688   6.970937   2.860953   7.986733   7.473799
    16  H    5.791216   6.055579   2.752614   6.857203   7.087214
    17  H    6.190970   6.989575   3.482194   7.133825   7.118567
    18  C    4.104060   5.290064   2.964486   5.732834   3.758477
    19  H    4.961753   5.847242   3.029857   6.738232   4.472805
    20  H    4.479207   5.970718   4.034400   5.852804   3.781693
    21  H    3.230875   4.337973   2.889612   5.065898   2.818639
    22  C    3.384571   5.348066   4.548826   3.802749   3.752593
    23  H    4.471090   6.387539   5.023939   4.789579   4.679962
    24  H    3.331591   5.394051   5.310391   3.090158   3.953999
    25  H    3.166318   5.181302   4.660720   3.896024   2.909671
    26  C    4.054065   5.299488   3.860955   4.372886   5.430728
    27  H    4.022882   5.378074   4.764102   3.779097   5.560061
    28  H    5.019191   6.342535   4.366974   5.284490   6.157802
    29  H    4.286050   5.076740   3.443371   4.790301   5.882438
                   11         12         13         14         15
    11  H    0.000000
    12  H    4.246254   0.000000
    13  H    3.767220   1.792482   0.000000
    14  H    3.763523   1.794326   1.752081   0.000000
    15  H    3.306592   2.697721   3.482108   3.740855   0.000000
    16  H    3.537224   2.550846   3.756215   3.159418   1.754221
    17  H    2.351338   3.703058   4.242499   4.000545   1.776583
    18  C    2.218605   4.015397   2.678527   3.147409   4.321766
    19  H    2.766910   3.955332   2.451704   3.506678   4.205372
    20  H    2.424171   5.084966   3.760790   4.144621   5.117043
    21  H    3.074460   3.967063   2.525417   2.748623   4.901672
    22  C    2.712238   5.514439   4.871685   4.157177   5.570837
    23  H    2.381987   5.955802   5.350664   4.836429   5.507657
    24  H    3.707546   6.219115   5.714224   4.751948   6.393133
    25  H    3.126264   5.709447   4.744099   4.262119   6.029596
    26  C    2.860888   4.436848   4.693391   3.514354   4.245605
    27  H    3.808945   5.325940   5.582247   4.235826   5.306497
    28  H    2.543398   4.913041   5.164073   4.260607   4.078017
    29  H    3.356520   3.783911   4.426531   3.116294   3.780217
                   16         17         18         19         20
    16  H    0.000000
    17  H    1.790776   0.000000
    18  C    4.635197   4.122382   0.000000
    19  H    4.883188   4.393967   1.095708   0.000000
    20  H    5.448721   4.665788   1.090790   1.763531   0.000000
    21  H    4.955701   4.782578   1.091926   1.772082   1.763871
    22  C    5.064974   4.439068   2.966136   4.044576   2.751074
    23  H    5.190146   4.200250   3.223342   4.196921   2.811450
    24  H    5.649828   5.159210   4.002989   5.094020   3.784089
    25  H    5.704434   5.129158   2.598896   3.659345   2.205096
    26  C    3.124063   2.951251   4.038532   4.902711   4.400263
    27  H    4.051814   3.975810   4.840636   5.790395   5.086512
    28  H    3.210043   2.473804   4.253562   5.043098   4.481847
    29  H    2.345382   2.769888   4.425229   5.150311   5.000143
                   21         22         23         24         25
    21  H    0.000000
    22  C    3.046247   0.000000
    23  H    3.630486   1.092681   0.000000
    24  H    3.918927   1.097410   1.778298   0.000000
    25  H    2.503392   1.089460   1.792064   1.762080   0.000000
    26  C    4.188582   2.542761   2.807776   2.742635   3.494611
    27  H    4.854308   2.743431   3.104154   2.486185   3.730778
    28  H    4.655811   2.822060   2.646498   3.135785   3.834405
    29  H    4.508977   3.492063   3.826976   3.718844   4.331932
                   26         27         28         29
    26  C    0.000000
    27  H    1.096202   0.000000
    28  H    1.093397   1.774668   0.000000
    29  H    1.090887   1.762621   1.791607   0.000000
 Framework group  C1[X(C8H16Cl3FeO)]
 Deg. of freedom    81
                         Standard orientation:                         
 ---------------------------------------------------------------------
 Center     Atomic      Atomic             Coordinates (Angstroms)
 Number     Number       Type             X           Y           Z
 ---------------------------------------------------------------------
      1          8           0       -0.307119   -0.143892   -0.439868
      2          6           0       -1.182836   -1.088025   -0.211184
      3          6           0       -2.605671   -0.274002    0.844945
      4          6           0       -3.065330    0.671693   -0.069683
      5          6           0       -4.184911    0.381943   -1.009723
      6         26           0        1.531703    0.172826   -0.099540
      7         17           0        1.865306    2.135481   -1.021016
      8          6           0       -2.360048    1.963898   -0.212280
      9         17           0        2.530249   -1.538538   -1.053203
     10         17           0        1.838931    0.204196    2.085943
     11          1           0       -3.249867   -1.146766    0.953072
     12          1           0       -2.837116    2.639062   -0.925177
     13          1           0       -2.216190    2.470045    0.747807
     14          1           0       -1.339825    1.716619   -0.569054
     15          1           0       -5.017077    1.058056   -0.764275
     16          1           0       -3.905132    0.611471   -2.045458
     17          1           0       -4.546634   -0.645730   -0.943279
     18          6           0       -1.919350    0.189866    2.121552
     19          1           0       -2.539883    0.934940    2.631826
     20          1           0       -1.774645   -0.643913    2.809807
     21          1           0       -0.941900    0.635856    1.926649
     22          6           0       -0.746801   -2.174715    0.768094
     23          1           0       -1.570143   -2.832472    1.056912
     24          1           0        0.005251   -2.769609    0.234401
     25          1           0       -0.264787   -1.758530    1.652048
     26          6           0       -1.820963   -1.644731   -1.474879
     27          1           0       -1.064704   -2.276603   -1.954950
     28          1           0       -2.700381   -2.260189   -1.266664
     29          1           0       -2.075090   -0.849502   -2.177065
 ---------------------------------------------------------------------
 Rotational constants (GHZ):           0.6044136           0.3041198           0.2912221
   427 basis functions,  1056 primitive gaussians,   461 cartesian basis functions
    77 alpha electrons       72 beta electrons
       nuclear repulsion energy      1624.9817780468 Hartrees.
 NAtoms=   29 NActive=   29 NUniq=   29 SFac= 1.00D+00 NAtFMM=   60 NAOKFM=F Big=F
 Nuclear repulsion after empirical dispersion term =     1624.9149936161 Hartrees.
 Initial guess from the checkpoint file:  "checkpoint.chk"
 B after Tr=     0.000000    0.000000    0.000000
         Rot=    1.000000    0.000000    0.000000    0.000000 Ang=   0.00 deg.
 Initial guess <Sx>= 0.0000 <Sy>= 0.0000 <Sz>= 2.5000 <S**2>= 8.7622 S= 2.5020
 SCF Done:  E(UB3LYP) =  -3034.39642525     A.U. after    1 cycles
            NFock=  1  Conv=0.23D-08     -V/T= 2.0024
 <Sx>= 0.0000 <Sy>= 0.0000 <Sz>= 2.5000 <S**2>= 8.7622 S= 2.5020
 <L.S>= 0.000000000000E+00
 Annihilation of the first spin contaminant:
 S**2 before annihilation     8.7622,   after     8.7500
 1\1\GINC-HOLY7C08607\SP\UB3LYP\Jul-CC-pVDZ\C8H16Cl3Fe1O1(6)\EKWAN\11-F
 eb-2020\0\\#t pop=none jul-cc-pvdz guess=read ub3lyp empiricaldispersi
 on=gd3bj\\theory_abbreviation b3lyp_d3bj\\0,6\O,0,-0.307119,-0.143892,
 -0.439868\C,0,-1.182836,-1.088025,-0.211184\C,0,-2.605671,-0.274002,0.
 844945\C,0,-3.06533,0.671693,-0.069683\C,0,-4.184911,0.381943,-1.00972
 3\Fe,0,1.531703,0.172826,-0.09954\Cl,0,1.865306,2.135481,-1.021016\C,0
 ,-2.360048,1.963898,-0.21228\Cl,0,2.530249,-1.538538,-1.053203\Cl,0,1.
 838931,0.204196,2.085943\H,0,-3.249867,-1.146766,0.953072\H,0,-2.83711
 6,2.639062,-0.925177\H,0,-2.21619,2.470045,0.747807\H,0,-1.339825,1.71
 6619,-0.569054\H,0,-5.017077,1.058056,-0.764275\H,0,-3.905132,0.611471
 ,-2.045458\H,0,-4.546634,-0.64573,-0.943279\C,0,-1.91935,0.189866,2.12
 1552\H,0,-2.539883,0.93494,2.631826\H,0,-1.774645,-0.643913,2.809807\H
 ,0,-0.9419,0.635856,1.926649\C,0,-0.746801,-2.174715,0.768094\H,0,-1.5
 70143,-2.832472,1.056912\H,0,0.005251,-2.769609,0.234401\H,0,-0.264787
 ,-1.75853,1.652048\C,0,-1.820963,-1.644731,-1.474879\H,0,-1.064704,-2.
 276603,-1.95495\H,0,-2.700381,-2.260189,-1.266664\H,0,-2.07509,-0.8495
 02,-2.177065\\Version=ES64L-G16RevA.03\HF=-3034.3964252\S2=8.762212\S2
 -1=0.\S2A=8.750046\RMSD=2.316e-09\PG=C01 [X(C8H16Cl3Fe1O1)]\\@


 THE VALUE OF PHILOSOPHY IS, IN FACT, TO BE SOUGHT LARGELY IN ITS
 VERY UNCERTAINTY.  THE MAN WHO HAS NO TINCTURE OF PHILOSOPHY GOES
 THROUGH LIFE IMPRISONED IN THE PREJUDICES DERIVED FROM COMMON SENSE,
 FROM THE HABITUAL BELIEFS OF HIS AGE OR HIS NATION, AND FROM
 CONVICTIONS WHICH HAVE GROWN UP IN HIS MIND WITHOUT THE CO-OPERATION
 OR CONSENT OF HIS DELIBERATE REASON.  TO SUCH A MAN THE WORLD TENDS
 TO BE DEFINITE, FINITE, OBVIOUS; COMMON OBJECTS ROUSE NO QUESTIONS,
 AND UNFAMILIAR POSSIBILITIES ARE CONTEMPTUOUSLY REJECTED.

                             -- BERTRAND RUSSELL
 Job cpu time:       0 days  0 hours  4 minutes 36.4 seconds.
 Elapsed time:       0 days  0 hours  1 minutes  9.6 seconds.
 File lengths (MBytes):  RWF=    170 Int=      0 D2E=      0 Chk=     13 Scr=      1
 Normal termination of Gaussian 16 at Tue Feb 11 14:17:10 2020.
 Initial command:
 /n/sw/g16_nehalem/g16/l1.exe "/scratch/Gau-98687.inp" -scrdir="/scratch/"
 Entering Link 1 = /n/sw/g16_nehalem/g16/l1.exe PID=    103167.
  
 Copyright (c) 1988,1990,1992,1993,1995,1998,2003,2009,2016,
            Gaussian, Inc.  All Rights Reserved.
  
 This is part of the Gaussian(R) 16 program.  It is based on
 the Gaussian(R) 09 system (copyright 2009, Gaussian, Inc.),
 the Gaussian(R) 03 system (copyright 2003, Gaussian, Inc.),
 the Gaussian(R) 98 system (copyright 1998, Gaussian, Inc.),
 the Gaussian(R) 94 system (copyright 1995, Gaussian, Inc.),
 the Gaussian 92(TM) system (copyright 1992, Gaussian, Inc.),
 the Gaussian 90(TM) system (copyright 1990, Gaussian, Inc.),
 the Gaussian 88(TM) system (copyright 1988, Gaussian, Inc.),
 the Gaussian 86(TM) system (copyright 1986, Carnegie Mellon
 University), and the Gaussian 82(TM) system (copyright 1983,
 Carnegie Mellon University). Gaussian is a federally registered
 trademark of Gaussian, Inc.
  
 This software contains proprietary and confidential information,
 including trade secrets, belonging to Gaussian, Inc.
  
 This software is provided under written license and may be
 used, copied, transmitted, or stored only in accord with that
 written license.
  
 The following legend is applicable only to US Government
 contracts under FAR:
  
                    RESTRICTED RIGHTS LEGEND
  
 Use, reproduction and disclosure by the US Government is
 subject to restrictions as set forth in subparagraphs (a)
 and (c) of the Commercial Computer Software - Restricted
 Rights clause in FAR 52.227-19.
  
 Gaussian, Inc.
 340 Quinnipiac St., Bldg. 40, Wallingford CT 06492
  
  
 ---------------------------------------------------------------
 Warning -- This program may not be used in any manner that
 competes with the business of Gaussian, Inc. or will provide
 assistance to any competitor of Gaussian, Inc.  The licensee
 of this program is prohibited from giving any competitor of
 Gaussian, Inc. access to this program.  By using this program,
 the user acknowledges that Gaussian, Inc. is engaged in the
 business of creating and licensing software in the field of
 computational chemistry and represents and warrants to the
 licensee that it is not a competitor of Gaussian, Inc. and that
 it will not use this program in any manner prohibited above.
 ---------------------------------------------------------------
  

 Cite this work as:
 Gaussian 16, Revision A.03,
 M. J. Frisch, G. W. Trucks, H. B. Schlegel, G. E. Scuseria, 
 M. A. Robb, J. R. Cheeseman, G. Scalmani, V. Barone, 
 G. A. Petersson, H. Nakatsuji, X. Li, M. Caricato, A. V. Marenich, 
 J. Bloino, B. G. Janesko, R. Gomperts, B. Mennucci, H. P. Hratchian, 
 J. V. Ortiz, A. F. Izmaylov, J. L. Sonnenberg, D. Williams-Young, 
 F. Ding, F. Lipparini, F. Egidi, J. Goings, B. Peng, A. Petrone, 
 T. Henderson, D. Ranasinghe, V. G. Zakrzewski, J. Gao, N. Rega, 
 G. Zheng, W. Liang, M. Hada, M. Ehara, K. Toyota, R. Fukuda, 
 J. Hasegawa, M. Ishida, T. Nakajima, Y. Honda, O. Kitao, H. Nakai, 
 T. Vreven, K. Throssell, J. A. Montgomery, Jr., J. E. Peralta, 
 F. Ogliaro, M. J. Bearpark, J. J. Heyd, E. N. Brothers, K. N. Kudin, 
 V. N. Staroverov, T. A. Keith, R. Kobayashi, J. Normand, 
 K. Raghavachari, A. P. Rendell, J. C. Burant, S. S. Iyengar, 
 J. Tomasi, M. Cossi, J. M. Millam, M. Klene, C. Adamo, R. Cammi, 
 J. W. Ochterski, R. L. Martin, K. Morokuma, O. Farkas, 
 J. B. Foresman, and D. J. Fox, Gaussian, Inc., Wallingford CT, 2016.
 
 ******************************************
 Gaussian 16:  ES64L-G16RevA.03 25-Dec-2016
                11-Feb-2020 
 ******************************************
 %chk=checkpoint.chk
 %mem=3GB
 %nprocshared=4
 Will use up to    4 processors via shared memory.
 ----------------------------------------
 #t pop=none jul-cc-pvdz guess=read ub97d
 ----------------------------------------
 ------------------------
 theory_abbreviation b97d
 ------------------------
 Symbolic Z-matrix:
 Charge =  0 Multiplicity = 6
 O                    -0.30712  -0.14389  -0.43987 
 C                    -1.18284  -1.08803  -0.21118 
 C                    -2.60567  -0.274     0.84495 
 C                    -3.06533   0.67169  -0.06968 
 C                    -4.18491   0.38194  -1.00972 
 Fe                    1.5317    0.17283  -0.09954 
 Cl                    1.86531   2.13548  -1.02102 
 C                    -2.36005   1.9639   -0.21228 
 Cl                    2.53025  -1.53854  -1.0532 
 Cl                    1.83893   0.2042    2.08594 
 H                    -3.24987  -1.14677   0.95307 
 H                    -2.83712   2.63906  -0.92518 
 H                    -2.21619   2.47005   0.74781 
 H                    -1.33983   1.71662  -0.56905 
 H                    -5.01708   1.05806  -0.76428 
 H                    -3.90513   0.61147  -2.04546 
 H                    -4.54663  -0.64573  -0.94328 
 C                    -1.91935   0.18987   2.12155 
 H                    -2.53988   0.93494   2.63183 
 H                    -1.77465  -0.64391   2.80981 
 H                    -0.9419    0.63586   1.92665 
 C                    -0.7468   -2.17471   0.76809 
 H                    -1.57014  -2.83247   1.05691 
 H                     0.00525  -2.76961   0.2344 
 H                    -0.26479  -1.75853   1.65205 
 C                    -1.82096  -1.64473  -1.47488 
 H                    -1.0647   -2.2766   -1.95495 
 H                    -2.70038  -2.26019  -1.26666 
 H                    -2.07509  -0.8495   -2.17707 
 
                    Distance matrix (angstroms):
                    1          2          3          4          5
     1  O    0.000000
     2  C    1.307885   0.000000
     3  C    2.636478   1.950000   0.000000
     4  C    2.899990   2.580778   1.393618   0.000000
     5  C    3.954555   3.436703   2.522708   1.490333   0.000000
     6  Fe   1.896681   2.995151   4.267267   4.624119   5.792395
     7  Cl   3.201984   4.509766   5.410827   5.230572   6.299218
     8  C    2.951117   3.271095   2.487218   1.479037   2.543349
     9  Cl   3.220539   3.833922   5.619581   6.096141   6.984519
    10  Cl   3.332629   4.009701   4.639314   5.377458   6.775058
    11  H    3.406729   2.373091   1.090136   2.094487   2.657785
    12  H    3.792261   4.139759   3.416554   2.157427   2.630263
    13  H    3.447868   3.827185   2.773252   2.150209   3.365255
    14  H    2.131824   2.831739   2.750333   2.078126   3.173336
    15  H    4.871717   4.428654   3.190430   2.107380   1.099943
    16  H    4.011756   3.696450   3.290455   2.147692   1.097136
    17  H    4.298692   3.470839   2.665195   2.166341   1.091499
    18  C    3.044923   2.759912   1.521820   2.519313   3.869696
    19  H    3.947710   3.743884   2.158428   2.764696   4.033956
    20  H    3.600561   3.110283   2.165207   3.418794   4.631476
    21  H    2.571256   2.756836   2.183131   2.914718   4.382222
    22  C    2.403484   1.526436   2.659702   3.765566   4.638721
    23  H    3.326266   2.191157   2.768215   3.972905   4.630384
    24  H    2.728847   2.106614   3.663022   4.622066   5.388653
    25  H    2.642908   2.182665   2.887036   4.088200   5.199425
    26  C    2.369702   1.521201   2.806465   2.981417   3.148337
    27  H    2.723576   2.113621   3.771525   4.031028   4.206782
    28  H    3.300001   2.188824   2.900483   3.187771   3.041498
    29  H    2.577103   2.172026   3.121740   2.781307   2.707488
                    6          7          8          9         10
     6  Fe   0.000000
     7  Cl   2.193724   0.000000
     8  C    4.285601   4.305475   0.000000
     9  Cl   2.198939   3.733845   6.073649   0.000000
    10  Cl   2.207195   3.658381   5.099981   3.656403   0.000000
    11  H    5.070772   6.390240   3.438903   6.130935   5.385570
    12  H    5.084346   4.730280   1.091633   6.802745   6.071312
    13  H    4.476820   4.460861   1.094827   6.468466   4.834117
    14  H    3.293845   3.263829   1.108733   5.080150   4.409186
    15  H    6.641688   6.970937   2.860953   7.986733   7.473799
    16  H    5.791216   6.055579   2.752614   6.857203   7.087214
    17  H    6.190970   6.989575   3.482194   7.133825   7.118567
    18  C    4.104060   5.290064   2.964486   5.732834   3.758477
    19  H    4.961753   5.847242   3.029857   6.738232   4.472805
    20  H    4.479207   5.970718   4.034400   5.852804   3.781693
    21  H    3.230875   4.337973   2.889612   5.065898   2.818639
    22  C    3.384571   5.348066   4.548826   3.802749   3.752593
    23  H    4.471090   6.387539   5.023939   4.789579   4.679962
    24  H    3.331591   5.394051   5.310391   3.090158   3.953999
    25  H    3.166318   5.181302   4.660720   3.896024   2.909671
    26  C    4.054065   5.299488   3.860955   4.372886   5.430728
    27  H    4.022882   5.378074   4.764102   3.779097   5.560061
    28  H    5.019191   6.342535   4.366974   5.284490   6.157802
    29  H    4.286050   5.076740   3.443371   4.790301   5.882438
                   11         12         13         14         15
    11  H    0.000000
    12  H    4.246254   0.000000
    13  H    3.767220   1.792482   0.000000
    14  H    3.763523   1.794326   1.752081   0.000000
    15  H    3.306592   2.697721   3.482108   3.740855   0.000000
    16  H    3.537224   2.550846   3.756215   3.159418   1.754221
    17  H    2.351338   3.703058   4.242499   4.000545   1.776583
    18  C    2.218605   4.015397   2.678527   3.147409   4.321766
    19  H    2.766910   3.955332   2.451704   3.506678   4.205372
    20  H    2.424171   5.084966   3.760790   4.144621   5.117043
    21  H    3.074460   3.967063   2.525417   2.748623   4.901672
    22  C    2.712238   5.514439   4.871685   4.157177   5.570837
    23  H    2.381987   5.955802   5.350664   4.836429   5.507657
    24  H    3.707546   6.219115   5.714224   4.751948   6.393133
    25  H    3.126264   5.709447   4.744099   4.262119   6.029596
    26  C    2.860888   4.436848   4.693391   3.514354   4.245605
    27  H    3.808945   5.325940   5.582247   4.235826   5.306497
    28  H    2.543398   4.913041   5.164073   4.260607   4.078017
    29  H    3.356520   3.783911   4.426531   3.116294   3.780217
                   16         17         18         19         20
    16  H    0.000000
[...]
 Rotational constants (GHZ):           0.6044136           0.3041198           0.2912221
   427 basis functions,  1056 primitive gaussians,   461 cartesian basis functions
    77 alpha electrons       72 beta electrons
       nuclear repulsion energy      1624.9817780468 Hartrees.
 NAtoms=   29 NActive=   29 NUniq=   29 SFac= 1.00D+00 NAtFMM=   60 NAOKFM=F Big=F
 Nuclear repulsion after empirical dispersion term =     1624.9793465455 Hartrees.
 Initial guess from the checkpoint file:  "checkpoint.chk"
 B after Tr=     0.000000    0.000000    0.000000
         Rot=    1.000000    0.000000    0.000000    0.000000 Ang=   0.00 deg.
 Initial guess <Sx>= 0.0000 <Sy>= 0.0000 <Sz>= 2.5000 <S**2>= 8.7620 S= 2.5020
 SCF Done:  E(UM06L) =  -3034.19472923     A.U. after   16 cycles
            NFock= 16  Conv=0.75D-08     -V/T= 2.0020
 <Sx>= 0.0000 <Sy>= 0.0000 <Sz>= 2.5000 <S**2>= 8.7621 S= 2.5020
 <L.S>= 0.000000000000E+00
 Annihilation of the first spin contaminant:
 S**2 before annihilation     8.7621,   after     8.7500
 1\1\GINC-HOLY7C08607\SP\UM06L\Jul-CC-pVDZ\C8H16Cl3Fe1O1(6)\EKWAN\11-Fe
 b-2020\0\\#t pop=none jul-cc-pvdz guess=read um06l empiricaldispersion
 =gd3\\theory_abbreviation m06l_d3\\0,6\O,0,-0.307119,-0.143892,-0.4398
 68\C,0,-1.182836,-1.088025,-0.211184\C,0,-2.605671,-0.274002,0.844945\
 C,0,-3.06533,0.671693,-0.069683\C,0,-4.184911,0.381943,-1.009723\Fe,0,
 1.531703,0.172826,-0.09954\Cl,0,1.865306,2.135481,-1.021016\C,0,-2.360
 048,1.963898,-0.21228\Cl,0,2.530249,-1.538538,-1.053203\Cl,0,1.838931,
 0.204196,2.085943\H,0,-3.249867,-1.146766,0.953072\H,0,-2.837116,2.639
 062,-0.925177\H,0,-2.21619,2.470045,0.747807\H,0,-1.339825,1.716619,-0
 .569054\H,0,-5.017077,1.058056,-0.764275\H,0,-3.905132,0.611471,-2.045
 458\H,0,-4.546634,-0.64573,-0.943279\C,0,-1.91935,0.189866,2.121552\H,
 0,-2.539883,0.93494,2.631826\H,0,-1.774645,-0.643913,2.809807\H,0,-0.9
 419,0.635856,1.926649\C,0,-0.746801,-2.174715,0.768094\H,0,-1.570143,-
 2.832472,1.056912\H,0,0.005251,-2.769609,0.234401\H,0,-0.264787,-1.758
 53,1.652048\C,0,-1.820963,-1.644731,-1.474879\H,0,-1.064704,-2.276603,
 -1.95495\H,0,-2.700381,-2.260189,-1.266664\H,0,-2.07509,-0.849502,-2.1
 77065\\Version=ES64L-G16RevA.03\HF=-3034.1947292\S2=8.762071\S2-1=0.\S
 2A=8.750046\RMSD=7.539e-09\PG=C01 [X(C8H16Cl3Fe1O1)]\\@


 You don't have to suffer to be a poet.
 Adolescence is enough suffering for anyone.
                             -- John Ciardi
 Job cpu time:       0 days  1 hours  9 minutes 26.4 seconds.
 Elapsed time:       0 days  0 hours 17 minutes 24.5 seconds.
 File lengths (MBytes):  RWF=    174 Int=      0 D2E=      0 Chk=     13 Scr=      1
 Normal termination of Gaussian 16 at Tue Feb 11 23:38:38 2020.
 Initial command:
 /n/sw/g16_nehalem/g16/l1.exe "/scratch/Gau-98687.inp" -scrdir="/scratch/"
 Entering Link 1 = /n/sw/g16_nehalem/g16/l1.exe PID=    153146.
  
 Copyright (c) 1988,1990,1992,1993,1995,1998,2003,2009,2016,
            Gaussian, Inc.  All Rights Reserved.
  
 This is part of the Gaussian(R) 16 program.  It is based on
 the Gaussian(R) 09 system (copyright 2009, Gaussian, Inc.),
 the Gaussian(R) 03 system (copyright 2003, Gaussian, Inc.),
 the Gaussian(R) 98 system (copyright 1998, Gaussian, Inc.),
 the Gaussian(R) 94 system (copyright 1995, Gaussian, Inc.),
 the Gaussian 92(TM) system (copyright 1992, Gaussian, Inc.),
 the Gaussian 90(TM) system (copyright 1990, Gaussian, Inc.),
 the Gaussian 88(TM) system (copyright 1988, Gaussian, Inc.),
 the Gaussian 86(TM) system (copyright 1986, Carnegie Mellon
 University), and the Gaussian 82(TM) system (copyright 1983,
 Carnegie Mellon University). Gaussian is a federally registered
 trademark of Gaussian, Inc.
  
 This software contains proprietary and confidential information,
 including trade secrets, belonging to Gaussian, Inc.
  
 This software is provided under written license and may be
 used, copied, transmitted, or stored only in accord with that
 written license.
  
 The following legend is applicable only to US Government
 contracts under FAR:
  
                    RESTRICTED RIGHTS LEGEND
  
 Use, reproduction and disclosure by the US Government is
 subject to restrictions as set forth in subparagraphs (a)
 and (c) of the Commercial Computer Software - Restricted
 Rights clause in FAR 52.227-19.
  
 Gaussian, Inc.
 340 Quinnipiac St., Bldg. 40, Wallingford CT 06492
  
  
 ---------------------------------------------------------------
 Warning -- This program may not be used in any manner that
 competes with the business of Gaussian, Inc. or will provide
 assistance to any competitor of Gaussian, Inc.  The licensee
 of this program is prohibited from giving any competitor of
 Gaussian, Inc. access to this program.  By using this program,
 the user acknowledges that Gaussian, Inc. is engaged in the
 business of creating and licensing software in the field of
 computational chemistry and represents and warrants to the
 licensee that it is not a competitor of Gaussian, Inc. and that
 it will not use this program in any manner prohibited above.
 ---------------------------------------------------------------
  

 Cite this work as:
 Gaussian 16, Revision A.03,
 M. J. Frisch, G. W. Trucks, H. B. Schlegel, G. E. Scuseria, 
 M. A. Robb, J. R. Cheeseman, G. Scalmani, V. Barone, 
 G. A. Petersson, H. Nakatsuji, X. Li, M. Caricato, A. V. Marenich, 
 J. Bloino, B. G. Janesko, R. Gomperts, B. Mennucci, H. P. Hratchian, 
 J. V. Ortiz, A. F. Izmaylov, J. L. Sonnenberg, D. Williams-Young, 
 F. Ding, F. Lipparini, F. Egidi, J. Goings, B. Peng, A. Petrone, 
 T. Henderson, D. Ranasinghe, V. G. Zakrzewski, J. Gao, N. Rega, 
 G. Zheng, W. Liang, M. Hada, M. Ehara, K. Toyota, R. Fukuda, 
 J. Hasegawa, M. Ishida, T. Nakajima, Y. Honda, O. Kitao, H. Nakai, 
 T. Vreven, K. Throssell, J. A. Montgomery, Jr., J. E. Peralta, 
 F. Ogliaro, M. J. Bearpark, J. J. Heyd, E. N. Brothers, K. N. Kudin, 
 V. N. Staroverov, T. A. Keith, R. Kobayashi, J. Normand, 
 K. Raghavachari, A. P. Rendell, J. C. Burant, S. S. Iyengar, 
 J. Tomasi, M. Cossi, J. M. Millam, M. Klene, C. Adamo, R. Cammi, 
 J. W. Ochterski, R. L. Martin, K. Morokuma, O. Farkas, 
 J. B. Foresman, and D. J. Fox, Gaussian, Inc., Wallingford CT, 2016.
 
 ******************************************
 Gaussian 16:  ES64L-G16RevA.03 25-Dec-2016
                11-Feb-2020 
 ******************************************
 %chk=checkpoint.chk
 %mem=3GB
 %nprocshared=4
 Will use up to    4 processors via shared memory.
 -------------------------------------------------------------------
 #t pop=none jul-cc-pvdz guess=read ub97d3 empiricaldispersion=gd3bj
 -------------------------------------------------------------------
 ------------------------------
 theory_abbreviation b97d3_d3bj
 ------------------------------
 Symbolic Z-matrix:
 Charge =  0 Multiplicity = 6
 O                    -0.30712  -0.14389  -0.43987 
 C                    -1.18284  -1.08803  -0.21118 
 C                    -2.60567  -0.274     0.84495 
 C                    -3.06533   0.67169  -0.06968 
 C                    -4.18491   0.38194  -1.00972 
 Fe                    1.5317    0.17283  -0.09954 
 Cl                    1.86531   2.13548  -1.02102 
 C                    -2.36005   1.9639   -0.21228 
 Cl                    2.53025  -1.53854  -1.0532 
 Cl                    1.83893   0.2042    2.08594 
 H                    -3.24987  -1.14677   0.95307 
 H                    -2.83712   2.63906  -0.92518 
 H                    -2.21619   2.47005   0.74781 
 H                    -1.33983   1.71662  -0.56905 
 H                    -5.01708   1.05806  -0.76428 
 H                    -3.90513   0.61147  -2.04546 
 H                    -4.54663  -0.64573  -0.94328 
 C                    -1.91935   0.18987   2.12155 
 H                    -2.53988   0.93494   2.63183 
 H                    -1.77465  -0.64391   2.80981 
 H                    -0.9419    0.63586   1.92665 
 C                    -0.7468   -2.17471   0.76809 
 H                    -1.57014  -2.83247   1.05691 
 H                     0.00525  -2.76961   0.2344 
 H                    -0.26479  -1.75853   1.65205 
 C                    -1.82096  -1.64473  -1.47488 
 H                    -1.0647   -2.2766   -1.95495 
 H                    -2.70038  -2.26019  -1.26666 
 H                    -2.07509  -0.8495   -2.17707 
 
                    Distance matrix (angstroms):
                    1          2          3          4          5
     1  O    0.000000
     2  C    1.307885   0.000000
     3  C    2.636478   1.950000   0.000000
     4  C    2.899990   2.580778   1.393618   0.000000
     5  C    3.954555   3.436703   2.522708   1.490333   0.000000
     6  Fe   1.896681   2.995151   4.267267   4.624119   5.792395
     7  Cl   3.201984   4.509766   5.410827   5.230572   6.299218
     8  C    2.951117   3.271095   2.487218   1.479037   2.543349
     9  Cl   3.220539   3.833922   5.619581   6.096141   6.984519
    10  Cl   3.332629   4.009701   4.639314   5.377458   6.775058
    11  H    3.406729   2.373091   1.090136   2.094487   2.657785
    12  H    3.792261   4.139759   3.416554   2.157427   2.630263
    13  H    3.447868   3.827185   2.773252   2.150209   3.365255
    14  H    2.131824   2.831739   2.750333   2.078126   3.173336
    15  H    4.871717   4.428654   3.190430   2.107380   1.099943
    16  H    4.011756   3.696450   3.290455   2.147692   1.097136
    17  H    4.298692   3.470839   2.665195   2.166341   1.091499
    18  C    3.044923   2.759912   1.521820   2.519313   3.869696
    19  H    3.947710   3.743884   2.158428   2.764696   4.033956
    20  H    3.600561   3.110283   2.165207   3.418794   4.631476
    21  H    2.571256   2.756836   2.183131   2.914718   4.382222
    22  C    2.403484   1.526436   2.659702   3.765566   4.638721
    23  H    3.326266   2.191157   2.768215   3.972905   4.630384
    24  H    2.728847   2.106614   3.663022   4.622066   5.388653
    25  H    2.642908   2.182665   2.887036   4.088200   5.199425
    26  C    2.369702   1.521201   2.806465   2.981417   3.148337
    27  H    2.723576   2.113621   3.771525   4.031028   4.206782
    28  H    3.300001   2.188824   2.900483   3.187771   3.041498
    29  H    2.577103   2.172026   3.121740   2.781307   2.707488
                    6          7          8          9         10
     6  Fe   0.000000
     7  Cl   2.193724   0.000000
     8  C    4.285601   4.305475   0.000000
     9  Cl   2.198939   3.733845   6.073649   0.000000
    10  Cl   2.207195   3.658381   5.099981   3.656403   0.000000
    11  H    5.070772   6.390240   3.438903   6.130935   5.385570
    12  H    5.084346   4.730280   1.091633   6.802745   6.071312
    13  H    4.476820   4.460861   1.094827   6.468466   4.834117
    14  H    3.293845   3.263829   1.108733   5.080150   4.409186
    15  H    6.641688   6.970937   2.860953   7.986733   7.473799
    16  H    5.791216   6.055579   2.752614   6.857203   7.087214
    17  H    6.190970   6.989575   3.482194   7.133825   7.118567
    18  C    4.104060   5.290064   2.964486   5.732834   3.758477
    19  H    4.961753   5.847242   3.029857   6.738232   4.472805
    20  H    4.479207   5.970718   4.034400   5.852804   3.781693
    21  H    3.230875   4.337973   2.889612   5.065898   2.818639
    22  C    3.384571   5.348066   4.548826   3.802749   3.752593
    23  H    4.471090   6.387539   5.023939   4.789579   4.679962
    24  H    3.331591   5.394051   5.310391   3.090158   3.953999
    25  H    3.166318   5.181302   4.660720   3.896024   2.909671
    26  C    4.054065   5.299488   3.860955   4.372886   5.430728
    27  H    4.022882   5.378074   4.764102   3.779097   5.560061
    28  H    5.019191   6.342535   4.366974   5.284490   6.157802
    29  H    4.286050   5.076740   3.443371   4.790301   5.882438
                   11         12         13         14         15
    11  H    0.000000
    12  H    4.246254   0.000000
    13  H    3.767220   1.792482   0.000000
    14  H    3.763523   1.794326   1.752081   0.000000
    15  H    3.306592   2.697721   3.482108   3.740855   0.000000
    16  H    3.537224   2.550846   3.756215   3.159418   1.754221
    17  H    2.351338   3.703058   4.242499   4.000545   1.776583
    18  C    2.218605   4.015397   2.678527   3.147409   4.321766
    19  H    2.766910   3.955332   2.451704   3.506678   4.205372
    20  H    2.424171   5.084966   3.760790   4.144621   5.117043
    21  H    3.074460   3.967063   2.525417   2.748623   4.901672
    22  C    2.712238   5.514439   4.871685   4.157177   5.570837
    23  H    2.381987   5.955802   5.350664   4.836429   5.507657
    24  H    3.707546   6.219115   5.714224   4.751948   6.393133
    25  H    3.126264   5.709447   4.744099   4.262119   6.029596
    26  C    2.860888   4.436848   4.693391   3.514354   4.245605
    27  H    3.808945   5.325940   5.582247   4.235826   5.306497
    28  H    2.543398   4.913041   5.164073   4.260607   4.078017
    29  H    3.356520   3.783911   4.426531   3.116294   3.780217
                   16         17         18         19         20
    16  H    0.000000
    17  H    1.790776   0.000000
    18  C    4.635197   4.122382   0.000000
    19  H    4.883188   4.393967   1.095708   0.000000
    20  H    5.448721   4.665788   1.090790   1.763531   0.000000
    21  H    4.955701   4.782578   1.091926   1.772082   1.763871
    22  C    5.064974   4.439068   2.966136   4.044576   2.751074
    23  H    5.190146   4.200250   3.223342   4.196921   2.811450
    24  H    5.649828   5.159210   4.002989   5.094020   3.784089
    25  H    5.704434   5.129158   2.598896   3.659345   2.205096
    26  C    3.124063   2.951251   4.038532   4.902711   4.400263
    27  H    4.051814   3.975810   4.840636   5.790395   5.086512
    28  H    3.210043   2.473804   4.253562   5.043098   4.481847
    29  H    2.345382   2.769888   4.425229   5.150311   5.000143
                   21         22         23         24         25
    21  H    0.000000
    22  C    3.046247   0.000000
    23  H    3.630486   1.092681   0.000000
    24  H    3.918927   1.097410   1.778298   0.000000
    25  H    2.503392   1.089460   1.792064   1.762080   0.000000
    26  C    4.188582   2.542761   2.807776   2.742635   3.494611
    27  H    4.854308   2.743431   3.104154   2.486185   3.730778
    28  H    4.655811   2.822060   2.646498   3.135785   3.834405
    29  H    4.508977   3.492063   3.826976   3.718844   4.331932
                   26         27         28         29
    26  C    0.000000
    27  H    1.096202   0.000000
    28  H    1.093397   1.774668   0.000000
    29  H    1.090887   1.762621   1.791607   0.000000
 Framework group  C1[X(C8H16Cl3FeO)]
 Deg. of freedom    81
                         Standard orientation:                         
 ---------------------------------------------------------------------
 Center     Atomic      Atomic             Coordinates (Angstroms)
 Number     Number       Type             X           Y           Z
 ---------------------------------------------------------------------
      1          8           0       -0.307119   -0.143892   -0.439868
      2          6           0       -1.182836   -1.088025   -0.211184
      3          6           0       -2.605671   -0.274002    0.844945
      4          6           0       -3.065330    0.671693   -0.069683
      5          6           0       -4.184911    0.381943   -1.009723
      6         26           0        1.531703    0.172826   -0.099540
      7         17           0        1.865306    2.135481   -1.021016
      8          6           0       -2.360048    1.963898   -0.212280
      9         17           0        2.530249   -1.538538   -1.053203
     10         17           0        1.838931    0.204196    2.085943
     11          1           0       -3.249867   -1.146766    0.953072
     12          1           0       -2.837116    2.639062   -0.925177
     13          1           0       -2.216190    2.470045    0.747807
     14          1           0       -1.339825    1.716619   -0.569054
     15          1           0       -5.017077    1.058056   -0.764275
     16          1           0       -3.905132    0.611471   -2.045458
     17          1           0       -4.546634   -0.645730   -0.943279
     18          6           0       -1.919350    0.189866    2.121552
     19          1           0       -2.539883    0.934940    2.631826
     20          1           0       -1.774645   -0.643913    2.809807
     21          1           0       -0.941900    0.635856    1.926649
     22          6           0       -0.746801   -2.174715    0.768094
     23          1           0       -1.570143   -2.832472    1.056912
     24          1           0        0.005251   -2.769609    0.234401
     25          1           0       -0.264787   -1.758530    1.652048
     26          6           0       -1.820963   -1.644731   -1.474879
     27          1           0       -1.064704   -2.276603   -1.954950
     28          1           0       -2.700381   -2.260189   -1.266664
     29          1           0       -2.075090   -0.849502   -2.177065
 ---------------------------------------------------------------------
 Rotational constants (GHZ):           0.6044136           0.3041198           0.2912221
   427 basis functions,  1056 primitive gaussians,   461 cartesian basis functions
    77 alpha electrons       72 beta electrons
       nuclear repulsion energy      1624.9817780468 Hartrees.
 NAtoms=   29 NActive=   29 NUniq=   29 SFac= 1.00D+00 NAtFMM=   60 NAOKFM=F Big=F
 Nuclear repulsion after empirical dispersion term =     1624.8830245236 Hartrees.
 Initial guess from the checkpoint file:  "checkpoint.chk"
 B after Tr=     0.000000    0.000000    0.000000
         Rot=    1.000000    0.000000    0.000000    0.000000 Ang=   0.00 deg.
 Initial guess <Sx>= 0.0000 <Sy>= 0.0000 <Sz>= 2.5000 <S**2>= 8.7621 S= 2.5020
 EnCoef did     4 forward-backward iterations
 SCF Done:  E(UB97D3) =  -3034.61675037     A.U. after   16 cycles
            NFock= 16  Conv=0.60D-08     -V/T= 2.0020
 <Sx>= 0.0000 <Sy>= 0.0000 <Sz>= 2.5000 <S**2>= 8.7604 S= 2.5017
 <L.S>= 0.000000000000E+00
 Annihilation of the first spin contaminant:
 S**2 before annihilation     8.7604,   after     8.7500
 1\1\GINC-HOLY7C08607\SP\UB97D3\Jul-CC-pVDZ\C8H16Cl3Fe1O1(6)\EKWAN\11-F
 eb-2020\0\\#t pop=none jul-cc-pvdz guess=read ub97d3 empiricaldispersi
 on=gd3bj\\theory_abbreviation b97d3_d3bj\\0,6\O,0,-0.307119,-0.143892,
 -0.439868\C,0,-1.182836,-1.088025,-0.211184\C,0,-2.605671,-0.274002,0.
 844945\C,0,-3.06533,0.671693,-0.069683\C,0,-4.184911,0.381943,-1.00972
 3\Fe,0,1.531703,0.172826,-0.09954\Cl,0,1.865306,2.135481,-1.021016\C,0
 ,-2.360048,1.963898,-0.21228\Cl,0,2.530249,-1.538538,-1.053203\Cl,0,1.
 838931,0.204196,2.085943\H,0,-3.249867,-1.146766,0.953072\H,0,-2.83711
 6,2.639062,-0.925177\H,0,-2.21619,2.470045,0.747807\H,0,-1.339825,1.71
 6619,-0.569054\H,0,-5.017077,1.058056,-0.764275\H,0,-3.905132,0.611471
 ,-2.045458\H,0,-4.546634,-0.64573,-0.943279\C,0,-1.91935,0.189866,2.12
 1552\H,0,-2.539883,0.93494,2.631826\H,0,-1.774645,-0.643913,2.809807\H
 ,0,-0.9419,0.635856,1.926649\C,0,-0.746801,-2.174715,0.768094\H,0,-1.5
 70143,-2.832472,1.056912\H,0,0.005251,-2.769609,0.234401\H,0,-0.264787
 ,-1.75853,1.652048\C,0,-1.820963,-1.644731,-1.474879\H,0,-1.064704,-2.
 276603,-1.95495\H,0,-2.700381,-2.260189,-1.266664\H,0,-2.07509,-0.8495
 02,-2.177065\\Version=ES64L-G16RevA.03\HF=-3034.6167504\S2=8.760398\S2
 -1=0.\S2A=8.750034\RMSD=5.981e-09\PG=C01 [X(C8H16Cl3Fe1O1)]\\@


 This summer one third of the nation will be ill-housed
 ill-nourished and ill-clad. Only they call it a vacation.
 -- Jonas Salk
 Job cpu time:       0 days  0 hours 49 minutes 49.9 seconds.
 Elapsed time:       0 days  0 hours 12 minutes 29.6 seconds.
 File lengths (MBytes):  RWF=    174 Int=      0 D2E=      0 Chk=     13 Scr=      1
 Normal termination of Gaussian 16 at Tue Feb 11 23:51:08 2020.
