 Entering Gaussian System, Link 0=g16
 Input=simple-grid-220-250-b3lyp_d3bj-631gd-gas-singlepoint-DFT-juldz2-gas.gjf
 Output=simple-grid-220-250-b3lyp_d3bj-631gd-gas-singlepoint-DFT-juldz2-gas.out
 Initial command:
 /n/sw/g16_nehalem/g16/l1.exe "/scratch/Gau-88258.inp" -scrdir="/scratch/"
 Entering Link 1 = /n/sw/g16_nehalem/g16/l1.exe PID=     88261.
  
 Copyright (c) 1988,1990,1992,1993,1995,1998,2003,2009,2016,
            Gaussian, Inc.  All Rights Reserved.
  
 This is part of the Gaussian(R) 16 program.  It is based on
 the Gaussian(R) 09 system (copyright 2009, Gaussian, Inc.),
 the Gaussian(R) 03 system (copyright 2003, Gaussian, Inc.),
 the Gaussian(R) 98 system (copyright 1998, Gaussian, Inc.),
 the Gaussian(R) 94 system (copyright 1995, Gaussian, Inc.),
 the Gaussian 92(TM) system (copyright 1992, Gaussian, Inc.),
 the Gaussian 90(TM) system (copyright 1990, Gaussian, Inc.),
 the Gaussian 88(TM) system (copyright 1988, Gaussian, Inc.),
 the Gaussian 86(TM) system (copyright 1986, Carnegie Mellon
 University), and the Gaussian 82(TM) system (copyright 1983,
 Carnegie Mellon University). Gaussian is a federally registered
 trademark of Gaussian, Inc.
  
 This software contains proprietary and confidential information,
 including trade secrets, belonging to Gaussian, Inc.
  
 This software is provided under written license and may be
 used, copied, transmitted, or stored only in accord with that
 written license.
  
 The following legend is applicable only to US Government
 contracts under FAR:
  
                    RESTRICTED RIGHTS LEGEND
  
 Use, reproduction and disclosure by the US Government is
 subject to restrictions as set forth in subparagraphs (a)
 and (c) of the Commercial Computer Software - Restricted
 Rights clause in FAR 52.227-19.
  
 Gaussian, Inc.
 340 Quinnipiac St., Bldg. 40, Wallingford CT 06492
  
  
 ---------------------------------------------------------------
 Warning -- This program may not be used in any manner that
 competes with the business of Gaussian, Inc. or will provide
 assistance to any competitor of Gaussian, Inc.  The licensee
 of this program is prohibited from giving any competitor of
 Gaussian, Inc. access to this program.  By using this program,
 the user acknowledges that Gaussian, Inc. is engaged in the
 business of creating and licensing software in the field of
 computational chemistry and represents and warrants to the
 licensee that it is not a competitor of Gaussian, Inc. and that
 it will not use this program in any manner prohibited above.
 ---------------------------------------------------------------
  

 Cite this work as:
 Gaussian 16, Revision A.03,
 M. J. Frisch, G. W. Trucks, H. B. Schlegel, G. E. Scuseria, 
 M. A. Robb, J. R. Cheeseman, G. Scalmani, V. Barone, 
 G. A. Petersson, H. Nakatsuji, X. Li, M. Caricato, A. V. Marenich, 
 J. Bloino, B. G. Janesko, R. Gomperts, B. Mennucci, H. P. Hratchian, 
 J. V. Ortiz, A. F. Izmaylov, J. L. Sonnenberg, D. Williams-Young, 
 F. Ding, F. Lipparini, F. Egidi, J. Goings, B. Peng, A. Petrone, 
 T. Henderson, D. Ranasinghe, V. G. Zakrzewski, J. Gao, N. Rega, 
 G. Zheng, W. Liang, M. Hada, M. Ehara, K. Toyota, R. Fukuda, 
 J. Hasegawa, M. Ishida, T. Nakajima, Y. Honda, O. Kitao, H. Nakai, 
 T. Vreven, K. Throssell, J. A. Montgomery, Jr., J. E. Peralta, 
 F. Ogliaro, M. J. Bearpark, J. J. Heyd, E. N. Brothers, K. N. Kudin, 
 V. N. Staroverov, T. A. Keith, R. Kobayashi, J. Normand, 
 K. Raghavachari, A. P. Rendell, J. C. Burant, S. S. Iyengar, 
 J. Tomasi, M. Cossi, J. M. Millam, M. Klene, C. Adamo, R. Cammi, 
 J. W. Ochterski, R. L. Martin, K. Morokuma, O. Farkas, 
 J. B. Foresman, and D. J. Fox, Gaussian, Inc., Wallingford CT, 2016.
 
 ******************************************
 Gaussian 16:  ES64L-G16RevA.03 25-Dec-2016
                11-Feb-2020 
 ******************************************
 %chk=checkpoint.chk
 %mem=3GB
 %nprocshared=4
 Will use up to    4 processors via shared memory.
 --------------------------------
 #t pop=none jul-cc-pvdz upbe1pbe
 --------------------------------
 ------------------------
 theory_abbreviation pbe0
 ------------------------
 Symbolic Z-matrix:
 Charge =  0 Multiplicity = 6
 O                    -0.30979  -0.16538  -0.73762 
 C                    -1.19545  -1.09006  -0.61585 
 C                    -2.95159  -0.16246   0.33048 
 C                    -2.43628   1.00894  -0.14688 
 C                    -2.72599   1.50414  -1.52803 
 Fe                    1.4312    0.10227   0.01918 
 Cl                    2.05421   2.04544  -0.77189 
 C                    -1.56987   1.9117    0.66737 
 Cl                    2.56741  -1.63551  -0.6919 
 Cl                    1.20815   0.09224   2.21949 
 H                    -3.68419  -0.66659  -0.29637 
 H                    -2.18855   2.7516    1.01631 
 H                    -1.13131   1.43296   1.54161 
 H                    -0.76781   2.33943   0.05741 
 H                    -3.08418   2.53953  -1.46917 
 H                    -1.79763   1.53051  -2.11291 
 H                    -3.47807   0.90906  -2.05027 
 C                    -3.00275  -0.52489   1.79588 
 H                    -3.83252   0.0118    2.27378 
 H                    -3.18745  -1.59228   1.93866 
 H                    -2.08951  -0.26282   2.3349 
 C                    -0.97279  -2.16491   0.41743 
 H                    -1.83705  -2.82047   0.53215 
 H                    -0.13336  -2.76172   0.03202 
 H                    -0.66449  -1.75885   1.38013 
 C                    -1.83179  -1.55673  -1.90544 
 H                    -1.07096  -2.18134  -2.39317 
 H                    -2.7211   -2.16763  -1.74026 
 H                    -2.05166  -0.73055  -2.57927 
 
                    Distance matrix (angstroms):
                    1          2          3          4          5
     1  O    0.000000
     2  C    1.286180   0.000000
     3  C    2.849552   2.200000   0.000000
     4  C    2.499996   2.483020   1.365857   0.000000
     5  C    3.041395   3.147143   2.506487   1.495572   0.000000
     6  Fe   1.917147   2.953685   4.401802   3.975811   4.652029
     7  Cl   3.236880   4.518408   5.581038   4.650750   4.869812
     8  C    2.806439   3.285945   2.514908   1.492869   2.514461
     9  Cl   3.231348   3.802947   5.802967   5.685686   6.211004
    10  Cl   3.333923   3.900553   4.575662   4.440940   5.613811
    11  H    3.439839   2.544642   1.088022   2.094521   2.673429
    12  H    3.887771   4.290514   3.089383   2.109795   2.884205
    13  H    2.902502   3.320303   2.706588   2.175719   3.459881
    14  H    2.667570   3.521017   3.332099   2.143772   2.654399
    15  H    3.943220   4.179642   3.249158   2.123898   1.097180
    16  H    2.642186   3.077535   3.188716   2.131950   1.097562
    17  H    3.593810   3.356249   2.663325   2.172141   1.092003
    18  C    3.714823   3.066298   1.510426   2.539256   3.904092
    19  H    4.637842   4.064256   2.140754   2.967045   4.231459
    20  H    4.180842   3.278077   2.164782   3.417607   4.671048
    21  H    3.552083   3.192271   2.184257   2.810135   4.295289
    22  C    2.402457   1.507491   2.816561   3.540273   4.507817
    23  H    3.315765   2.173440   2.889274   3.935034   4.872041
    24  H    2.713747   2.083796   3.845472   4.421910   5.230013
    25  H    2.673916   2.170974   2.980111   3.623760   4.832626
    26  C    2.369831   1.511863   2.863086   3.168687   3.211068
    27  H    2.717410   2.089323   3.876976   4.133743   4.131633
    28  H    3.290696   2.180148   2.891675   3.565183   3.677898
    29  H    2.597152   2.171951   3.098267   3.015012   2.560016
                    6          7          8          9         10
     6  Fe   0.000000
     7  Cl   2.188562   0.000000
     8  C    3.563796   3.901703   0.000000
     9  Cl   2.194641   3.717408   5.616702   0.000000
    10  Cl   2.211613   3.671392   3.665641   3.648128   0.000000
    11  H    5.182468   6.364781   3.470841   6.338587   5.553410
    12  H    4.595190   4.658029   1.099971   6.692062   4.478548
    13  H    3.264203   3.984332   1.088954   5.299485   2.780313
    14  H    3.137189   2.955995   1.094675   5.242630   3.691725
    15  H    5.342670   5.208971   2.692974   7.069339   6.166001
    16  H    4.124444   4.110979   2.815522   5.576423   5.465626
    17  H    5.388367   5.790656   3.468731   6.698343   6.392084
    18  C    4.817669   6.226780   3.043622   6.200734   4.276910
    19  H    5.726974   6.932917   3.363000   7.243473   5.041608
    20  H    5.280896   6.932170   4.063323   6.327720   4.715692
    21  H    4.229808   5.670145   2.789126   5.721240   3.318725
    22  C    3.328348   5.320168   4.127676   3.747513   3.619207
    23  H    4.414409   6.365484   4.741633   4.722459   4.539186
    24  H    3.263505   5.342327   4.930322   3.014389   3.837936
    25  H    3.115752   5.147339   3.847165   3.841050   2.763667
    26  C    4.135643   5.418626   4.326425   4.564186   5.382875
    27  H    4.158747   5.500995   5.135062   4.053395   5.624963
    28  H    5.048734   6.441371   4.874724   5.417615   6.018775
    29  H    4.424465   5.275502   4.213589   5.071185   5.859309
                   11         12         13         14         15
    11  H    0.000000
    12  H    3.955259   0.000000
    13  H    3.781996   1.769884   0.000000
    14  H    4.203167   1.762915   1.776699   0.000000
    15  H    3.466225   2.650416   3.755395   2.781383   0.000000
    16  H    3.418512   3.381696   3.716052   2.534796   1.757201
    17  H    2.366721   3.802853   4.322427   3.719382   1.775179
    18  C    2.204981   3.464970   2.720315   4.027598   4.478599
    19  H    2.662302   3.433716   3.138843   4.441018   4.578111
    20  H    2.469614   4.551679   3.679324   4.985185   5.356847
    21  H    3.103162   3.291690   2.103126   3.702101   4.828406
    22  C    3.179013   5.099875   3.772743   4.523345   5.490807
    23  H    2.955934   5.604092   4.428176   5.290855   5.855784
    24  H    4.135912   5.965671   4.568382   5.140508   6.250133
    25  H    3.622462   4.774854   3.229809   4.307682   5.696444
    26  C    2.610142   5.217807   4.616390   4.490530   4.305600
    27  H    3.676960   6.099790   5.343162   5.151177   5.214741
    28  H    2.294659   5.664010   5.124681   5.230728   4.728918
    29  H    2.807297   5.007223   4.744422   4.245605   3.604427
                   16         17         18         19         20
    16  H    0.000000
    17  H    1.792763   0.000000
    18  C    4.577735   4.132197   0.000000
    19  H    5.068565   4.430366   1.097698   0.000000
    20  H    5.300817   4.717284   1.092620   1.761100   0.000000
    21  H    4.804612   4.746702   1.092351   1.765575   1.769161
    22  C    4.554019   4.670680   2.951359   4.045014   2.747138
    23  H    5.092045   4.824029   2.868023   3.877745   2.304411
    24  H    5.078755   5.384946   4.043265   5.138254   3.785542
    25  H    4.930034   5.177029   2.676368   3.737674   2.589403
    26  C    3.094393   2.968393   4.016913   4.891731   4.076293
    27  H    3.792685   3.932221   4.901410   5.849488   4.857089
    28  H    3.829870   3.183572   3.909245   4.700811   3.752727
    29  H    2.322591   2.236699   4.482059   5.222516   4.737545
                   21         22         23         24         25
    21  H    0.000000
    22  C    2.922618   0.000000
    23  H    3.139299   1.090806   0.000000
    24  H    3.921002   1.099711   1.776550   0.000000
    25  H    2.276040   1.089370   1.794709   1.762170   0.000000
    26  C    4.440842   2.550184   2.745702   2.844359   3.492616
    27  H    5.203158   2.812361   3.090773   2.664111   3.818577
    28  H    4.542480   2.777086   2.524202   3.192229   3.759464
    29  H    4.936530   3.493071   3.754299   3.824181   4.319549
                   26         27         28         29
    26  C    0.000000
    27  H    1.098584   0.000000
    28  H    1.091495   1.774670   0.000000
    29  H    1.088565   1.761023   1.793680   0.000000
 Framework group  C1[X(C8H16Cl3FeO)]
 Deg. of freedom    81
                         Standard orientation:                         
 ---------------------------------------------------------------------
 Center     Atomic      Atomic             Coordinates (Angstroms)
 Number     Number       Type             X           Y           Z
 ---------------------------------------------------------------------
      1          8           0       -0.309791   -0.165384   -0.737624
      2          6           0       -1.195454   -1.090063   -0.615850
      3          6           0       -2.951589   -0.162455    0.330477
      4          6           0       -2.436284    1.008936   -0.146879
      5          6           0       -2.725994    1.504139   -1.528030
      6         26           0        1.431204    0.102273    0.019177
      7         17           0        2.054206    2.045439   -0.771885
      8          6           0       -1.569872    1.911701    0.667372
      9         17           0        2.567406   -1.635505   -0.691895
     10         17           0        1.208152    0.092240    2.219490
     11          1           0       -3.684190   -0.666594   -0.296365
     12          1           0       -2.188547    2.751596    1.016305
     13          1           0       -1.131310    1.432963    1.541611
     14          1           0       -0.767805    2.339426    0.057411
     15          1           0       -3.084184    2.539532   -1.469166
     16          1           0       -1.797630    1.530511   -2.112913
     17          1           0       -3.478070    0.909063   -2.050272
     18          6           0       -3.002747   -0.524889    1.795882
     19          1           0       -3.832522    0.011795    2.273779
     20          1           0       -3.187447   -1.592277    1.938663
     21          1           0       -2.089506   -0.262822    2.334902
     22          6           0       -0.972791   -2.164907    0.417426
     23          1           0       -1.837046   -2.820467    0.532150
     24          1           0       -0.133360   -2.761717    0.032019
     25          1           0       -0.664492   -1.758850    1.380129
     26          6           0       -1.831788   -1.556730   -1.905435
     27          1           0       -1.070962   -2.181344   -2.393173
     28          1           0       -2.721104   -2.167627   -1.740258
     29          1           0       -2.051661   -0.730552   -2.579274
 ---------------------------------------------------------------------
 Rotational constants (GHZ):           0.5786224           0.3390858           0.3186941
   427 basis functions,  1056 primitive gaussians,   461 cartesian basis functions
    77 alpha electrons       72 beta electrons
       nuclear repulsion energy      1647.4209547101 Hartrees.
 NAtoms=   29 NActive=   29 NUniq=   29 SFac= 1.00D+00 NAtFMM=   60 NAOKFM=F Big=F
 ExpMin= 1.40D-02 ExpMax= 4.32D+06 ExpMxC= 4.91D+03 IAcc=3 IRadAn=         5 AccDes= 0.00D+00
 Harris functional with IExCor= 1009 and IRadAn=       5 diagonalized for initial guess.
 HarFok:  IExCor= 1009 AccDes= 0.00D+00 IRadAn=         5 IDoV= 1 UseB2=F ITyADJ=14
 ICtDFT=  3500011 ScaDFX=  1.000000  1.000000  1.000000  1.000000
 FoFCou: FMM=F IPFlag=           0 FMFlag=      100000 FMFlg1=           0
         NFxFlg=           0 DoJE=T BraDBF=F KetDBF=T FulRan=T
         wScrn=  0.000000 ICntrl=       500 IOpCl=  0 I1Cent=   200000004 NGrid=           0
         NMat0=    1 NMatS0=      1 NMatT0=    0 NMatD0=    1 NMtDS0=    0 NMtDT0=    0
 Petite list used in FoFCou.
 Initial guess <Sx>= 0.0000 <Sy>= 0.0000 <Sz>= 2.5000 <S**2>= 8.7500 S= 2.5000
 EnCoef did   100 forward-backward iterations
 SCF Done:  E(UPBE1PBE) =  -3033.11512362     A.U. after   20 cycles
            NFock= 20  Conv=0.58D-08     -V/T= 2.0021
 <Sx>= 0.0000 <Sy>= 0.0000 <Sz>= 2.5000 <S**2>= 8.7624 S= 2.5021
 <L.S>= 0.000000000000E+00
 Annihilation of the first spin contaminant:
 S**2 before annihilation     8.7624,   after     8.7500
 1\1\GINC-HOLY7C04309\SP\UPBE1PBE\Jul-CC-pVDZ\C8H16Cl3Fe1O1(6)\EKWAN\11
 -Feb-2020\0\\#t pop=none jul-cc-pvdz upbe1pbe\\theory_abbreviation pbe
 0\\0,6\O,0,-0.309791,-0.165384,-0.737624\C,0,-1.195454,-1.090063,-0.61
 585\C,0,-2.951589,-0.162455,0.330477\C,0,-2.436284,1.008936,-0.146879\
 C,0,-2.725994,1.504139,-1.52803\Fe,0,1.431204,0.102273,0.019177\Cl,0,2
 .054206,2.045439,-0.771885\C,0,-1.569872,1.911701,0.667372\Cl,0,2.5674
 06,-1.635505,-0.691895\Cl,0,1.208152,0.09224,2.21949\H,0,-3.68419,-0.6
 66594,-0.296365\H,0,-2.188547,2.751596,1.016305\H,0,-1.13131,1.432963,
 1.541611\H,0,-0.767805,2.339426,0.057411\H,0,-3.084184,2.539532,-1.469
 166\H,0,-1.79763,1.530511,-2.112913\H,0,-3.47807,0.909063,-2.050272\C,
 0,-3.002747,-0.524889,1.795882\H,0,-3.832522,0.011795,2.273779\H,0,-3.
 187447,-1.592277,1.938663\H,0,-2.089506,-0.262822,2.334902\C,0,-0.9727
 91,-2.164907,0.417426\H,0,-1.837046,-2.820467,0.53215\H,0,-0.13336,-2.
 761717,0.032019\H,0,-0.664492,-1.75885,1.380129\C,0,-1.831788,-1.55673
 ,-1.905435\H,0,-1.070962,-2.181344,-2.393173\H,0,-2.721104,-2.167627,-
 1.740258\H,0,-2.051661,-0.730552,-2.579274\\Version=ES64L-G16RevA.03\H
 F=-3033.1151236\S2=8.762438\S2-1=0.\S2A=8.750048\RMSD=5.844e-09\PG=C01
  [X(C8H16Cl3Fe1O1)]\\@


 THERE IS NO CURE FOR BIRTH AND DEATH SAVE TO ENJOY THE INTERVAL.

                               -- GEORGE SANTAYANA
 Job cpu time:       0 days  1 hours 24 minutes 54.2 seconds.
 Elapsed time:       0 days  0 hours 21 minutes 17.9 seconds.
 File lengths (MBytes):  RWF=    173 Int=      0 D2E=      0 Chk=     13 Scr=      1
 Normal termination of Gaussian 16 at Tue Feb 11 23:38:34 2020.
 Initial command:
 /n/sw/g16_nehalem/g16/l1.exe "/scratch/Gau-88258.inp" -scrdir="/scratch/"
 Entering Link 1 = /n/sw/g16_nehalem/g16/l1.exe PID=     90161.
  
 Copyright (c) 1988,1990,1992,1993,1995,1998,2003,2009,2016,
            Gaussian, Inc.  All Rights Reserved.
  
 This is part of the Gaussian(R) 16 program.  It is based on
 the Gaussian(R) 09 system (copyright 2009, Gaussian, Inc.),
 the Gaussian(R) 03 system (copyright 2003, Gaussian, Inc.),
 the Gaussian(R) 98 system (copyright 1998, Gaussian, Inc.),
 the Gaussian(R) 94 system (copyright 1995, Gaussian, Inc.),
 the Gaussian 92(TM) system (copyright 1992, Gaussian, Inc.),
 the Gaussian 90(TM) system (copyright 1990, Gaussian, Inc.),
 the Gaussian 88(TM) system (copyright 1988, Gaussian, Inc.),
 the Gaussian 86(TM) system (copyright 1986, Carnegie Mellon
 University), and the Gaussian 82(TM) system (copyright 1983,
 Carnegie Mellon University). Gaussian is a federally registered
 trademark of Gaussian, Inc.
  
 This software contains proprietary and confidential information,
 including trade secrets, belonging to Gaussian, Inc.
  
 This software is provided under written license and may be
 used, copied, transmitted, or stored only in accord with that
 written license.
  
 The following legend is applicable only to US Government
 contracts under FAR:
  
                    RESTRICTED RIGHTS LEGEND
  
 Use, reproduction and disclosure by the US Government is
 subject to restrictions as set forth in subparagraphs (a)
 and (c) of the Commercial Computer Software - Restricted
 Rights clause in FAR 52.227-19.
  
 Gaussian, Inc.
 340 Quinnipiac St., Bldg. 40, Wallingford CT 06492
  
  
 ---------------------------------------------------------------
 Warning -- This program may not be used in any manner that
 competes with the business of Gaussian, Inc. or will provide
 assistance to any competitor of Gaussian, Inc.  The licensee
 of this program is prohibited from giving any competitor of
 Gaussian, Inc. access to this program.  By using this program,
 the user acknowledges that Gaussian, Inc. is engaged in the
 business of creating and licensing software in the field of
 computational chemistry and represents and warrants to the
 licensee that it is not a competitor of Gaussian, Inc. and that
 it will not use this program in any manner prohibited above.
 ---------------------------------------------------------------
  

 Cite this work as:
 Gaussian 16, Revision A.03,
 M. J. Frisch, G. W. Trucks, H. B. Schlegel, G. E. Scuseria, 
 M. A. Robb, J. R. Cheeseman, G. Scalmani, V. Barone, 
 G. A. Petersson, H. Nakatsuji, X. Li, M. Caricato, A. V. Marenich, 
 J. Bloino, B. G. Janesko, R. Gomperts, B. Mennucci, H. P. Hratchian, 
 J. V. Ortiz, A. F. Izmaylov, J. L. Sonnenberg, D. Williams-Young, 
 F. Ding, F. Lipparini, F. Egidi, J. Goings, B. Peng, A. Petrone, 
 T. Henderson, D. Ranasinghe, V. G. Zakrzewski, J. Gao, N. Rega, 
 G. Zheng, W. Liang, M. Hada, M. Ehara, K. Toyota, R. Fukuda, 
 J. Hasegawa, M. Ishida, T. Nakajima, Y. Honda, O. Kitao, H. Nakai, 
 T. Vreven, K. Throssell, J. A. Montgomery, Jr., J. E. Peralta, 
 F. Ogliaro, M. J. Bearpark, J. J. Heyd, E. N. Brothers, K. N. Kudin, 
 V. N. Staroverov, T. A. Keith, R. Kobayashi, J. Normand, 
 K. Raghavachari, A. P. Rendell, J. C. Burant, S. S. Iyengar, 
 J. Tomasi, M. Cossi, J. M. Millam, M. Klene, C. Adamo, R. Cammi, 
 J. W. Ochterski, R. L. Martin, K. Morokuma, O. Farkas, 
 J. B. Foresman, and D. J. Fox, Gaussian, Inc., Wallingford CT, 2016.
 
 ******************************************
 Gaussian 16:  ES64L-G16RevA.03 25-Dec-2016
                11-Feb-2020 
 ******************************************
 %chk=checkpoint.chk
 %mem=3GB
 %nprocshared=4
 Will use up to    4 processors via shared memory.
 ---------------------------------------------------------------------
 #t pop=none jul-cc-pvdz guess=read upbe1pbe empiricaldispersion=gd3bj
 ---------------------------------------------------------------------
 -----------------------------
 theory_abbreviation pbe0_d3bj
 -----------------------------
 Symbolic Z-matrix:
 Charge =  0 Multiplicity = 6
 O                    -0.30979  -0.16538  -0.73762 
 C                    -1.19545  -1.09006  -0.61585 
 C                    -2.95159  -0.16246   0.33048 
 C                    -2.43628   1.00894  -0.14688 
 C                    -2.72599   1.50414  -1.52803 
 Fe                    1.4312    0.10227   0.01918 
 Cl                    2.05421   2.04544  -0.77189 
 C                    -1.56987   1.9117    0.66737 
 Cl                    2.56741  -1.63551  -0.6919 
 Cl                    1.20815   0.09224   2.21949 
 H                    -3.68419  -0.66659  -0.29637 
 H                    -2.18855   2.7516    1.01631 
 H                    -1.13131   1.43296   1.54161 
 H                    -0.76781   2.33943   0.05741 
 H                    -3.08418   2.53953  -1.46917 
 H                    -1.79763   1.53051  -2.11291 
 H                    -3.47807   0.90906  -2.05027 
 C                    -3.00275  -0.52489   1.79588 
 H                    -3.83252   0.0118    2.27378 
 H                    -3.18745  -1.59228   1.93866 
 H                    -2.08951  -0.26282   2.3349 
 C                    -0.97279  -2.16491   0.41743 
 H                    -1.83705  -2.82047   0.53215 
 H                    -0.13336  -2.76172   0.03202 
 H                    -0.66449  -1.75885   1.38013 
 C                    -1.83179  -1.55673  -1.90544 
 H                    -1.07096  -2.18134  -2.39317 
 H                    -2.7211   -2.16763  -1.74026 
 H                    -2.05166  -0.73055  -2.57927 
 
                    Distance matrix (angstroms):
                    1          2          3          4          5
     1  O    0.000000
     2  C    1.286180   0.000000
     3  C    2.849552   2.200000   0.000000
     4  C    2.499996   2.483020   1.365857   0.000000
     5  C    3.041395   3.147143   2.506487   1.495572   0.000000
     6  Fe   1.917147   2.953685   4.401802   3.975811   4.652029
     7  Cl   3.236880   4.518408   5.581038   4.650750   4.869812
     8  C    2.806439   3.285945   2.514908   1.492869   2.514461
     9  Cl   3.231348   3.802947   5.802967   5.685686   6.211004
    10  Cl   3.333923   3.900553   4.575662   4.440940   5.613811
    11  H    3.439839   2.544642   1.088022   2.094521   2.673429
    12  H    3.887771   4.290514   3.089383   2.109795   2.884205
    13  H    2.902502   3.320303   2.706588   2.175719   3.459881
    14  H    2.667570   3.521017   3.332099   2.143772   2.654399
    15  H    3.943220   4.179642   3.249158   2.123898   1.097180
    16  H    2.642186   3.077535   3.188716   2.131950   1.097562
    17  H    3.593810   3.356249   2.663325   2.172141   1.092003
    18  C    3.714823   3.066298   1.510426   2.539256   3.904092
    19  H    4.637842   4.064256   2.140754   2.967045   4.231459
    20  H    4.180842   3.278077   2.164782   3.417607   4.671048
    21  H    3.552083   3.192271   2.184257   2.810135   4.295289
    22  C    2.402457   1.507491   2.816561   3.540273   4.507817
    23  H    3.315765   2.173440   2.889274   3.935034   4.872041
    24  H    2.713747   2.083796   3.845472   4.421910   5.230013
    25  H    2.673916   2.170974   2.980111   3.623760   4.832626
    26  C    2.369831   1.511863   2.863086   3.168687   3.211068
    27  H    2.717410   2.089323   3.876976   4.133743   4.131633
    28  H    3.290696   2.180148   2.891675   3.565183   3.677898
    29  H    2.597152   2.171951   3.098267   3.015012   2.560016
                    6          7          8          9         10
     6  Fe   0.000000
     7  Cl   2.188562   0.000000
     8  C    3.563796   3.901703   0.000000
     9  Cl   2.194641   3.717408   5.616702   0.000000
    10  Cl   2.211613   3.671392   3.665641   3.648128   0.000000
    11  H    5.182468   6.364781   3.470841   6.338587   5.553410
    12  H    4.595190   4.658029   1.099971   6.692062   4.478548
    13  H    3.264203   3.984332   1.088954   5.299485   2.780313
    14  H    3.137189   2.955995   1.094675   5.242630   3.691725
    15  H    5.342670   5.208971   2.692974   7.069339   6.166001
    16  H    4.124444   4.110979   2.815522   5.576423   5.465626
    17  H    5.388367   5.790656   3.468731   6.698343   6.392084
    18  C    4.817669   6.226780   3.043622   6.200734   4.276910
    19  H    5.726974   6.932917   3.363000   7.243473   5.041608
    20  H    5.280896   6.932170   4.063323   6.327720   4.715692
    21  H    4.229808   5.670145   2.789126   5.721240   3.318725
    22  C    3.328348   5.320168   4.127676   3.747513   3.619207
    23  H    4.414409   6.365484   4.741633   4.722459   4.539186
    24  H    3.263505   5.342327   4.930322   3.014389   3.837936
    25  H    3.115752   5.147339   3.847165   3.841050   2.763667
    26  C    4.135643   5.418626   4.326425   4.564186   5.382875
    27  H    4.158747   5.500995   5.135062   4.053395   5.624963
    28  H    5.048734   6.441371   4.874724   5.417615   6.018775
    29  H    4.424465   5.275502   4.213589   5.071185   5.859309
                   11         12         13         14         15
    11  H    0.000000
    12  H    3.955259   0.000000
    13  H    3.781996   1.769884   0.000000
    14  H    4.203167   1.762915   1.776699   0.000000
    15  H    3.466225   2.650416   3.755395   2.781383   0.000000
    16  H    3.418512   3.381696   3.716052   2.534796   1.757201
    17  H    2.366721   3.802853   4.322427   3.719382   1.775179
    18  C    2.204981   3.464970   2.720315   4.027598   4.478599
    19  H    2.662302   3.433716   3.138843   4.441018   4.578111
    20  H    2.469614   4.551679   3.679324   4.985185   5.356847
    21  H    3.103162   3.291690   2.103126   3.702101   4.828406
    22  C    3.179013   5.099875   3.772743   4.523345   5.490807
    23  H    2.955934   5.604092   4.428176   5.290855   5.855784
    24  H    4.135912   5.965671   4.568382   5.140508   6.250133
    25  H    3.622462   4.774854   3.229809   4.307682   5.696444
    26  C    2.610142   5.217807   4.616390   4.490530   4.305600
    27  H    3.676960   6.099790   5.343162   5.151177   5.214741
    28  H    2.294659   5.664010   5.124681   5.230728   4.728918
    29  H    2.807297   5.007223   4.744422   4.245605   3.604427
                   16         17         18         19         20
    16  H    0.000000
    17  H    1.792763   0.000000
    18  C    4.577735   4.132197   0.000000
    19  H    5.068565   4.430366   1.097698   0.000000
    20  H    5.300817   4.717284   1.092620   1.761100   0.000000
    21  H    4.804612   4.746702   1.092351   1.765575   1.769161
    22  C    4.554019   4.670680   2.951359   4.045014   2.747138
    23  H    5.092045   4.824029   2.868023   3.877745   2.304411
    24  H    5.078755   5.384946   4.043265   5.138254   3.785542
    25  H    4.930034   5.177029   2.676368   3.737674   2.589403
    26  C    3.094393   2.968393   4.016913   4.891731   4.076293
    27  H    3.792685   3.932221   4.901410   5.849488   4.857089
    28  H    3.829870   3.183572   3.909245   4.700811   3.752727
    29  H    2.322591   2.236699   4.482059   5.222516   4.737545
                   21         22         23         24         25
    21  H    0.000000
    22  C    2.922618   0.000000
    23  H    3.139299   1.090806   0.000000
    24  H    3.921002   1.099711   1.776550   0.000000
    25  H    2.276040   1.089370   1.794709   1.762170   0.000000
    26  C    4.440842   2.550184   2.745702   2.844359   3.492616
    27  H    5.203158   2.812361   3.090773   2.664111   3.818577
    28  H    4.542480   2.777086   2.524202   3.192229   3.759464
    29  H    4.936530   3.493071   3.754299   3.824181   4.319549
                   26         27         28         29
    26  C    0.000000
    27  H    1.098584   0.000000
    28  H    1.091495   1.774670   0.000000
    29  H    1.088565   1.761023   1.793680   0.000000
 Framework group  C1[X(C8H16Cl3FeO)]
 Deg. of freedom    81
                         Standard orientation:                         
 ---------------------------------------------------------------------
 Center     Atomic      Atomic             Coordinates (Angstroms)
 Number     Number       Type             X           Y           Z
 ---------------------------------------------------------------------
      1          8           0       -0.309791   -0.165384   -0.737624
      2          6           0       -1.195454   -1.090063   -0.615850
      3          6           0       -2.951589   -0.162455    0.330477
      4          6           0       -2.436284    1.008936   -0.146879
      5          6           0       -2.725994    1.504139   -1.528030
      6         26           0        1.431204    0.102273    0.019177
      7         17           0        2.054206    2.045439   -0.771885
      8          6           0       -1.569872    1.911701    0.667372
      9         17           0        2.567406   -1.635505   -0.691895
     10         17           0        1.208152    0.092240    2.219490
     11          1           0       -3.684190   -0.666594   -0.296365
     12          1           0       -2.188547    2.751596    1.016305
     13          1           0       -1.131310    1.432963    1.541611
     14          1           0       -0.767805    2.339426    0.057411
     15          1           0       -3.084184    2.539532   -1.469166
     16          1           0       -1.797630    1.530511   -2.112913
     17          1           0       -3.478070    0.909063   -2.050272
     18          6           0       -3.002747   -0.524889    1.795882
     19          1           0       -3.832522    0.011795    2.273779
     20          1           0       -3.187447   -1.592277    1.938663
     21          1           0       -2.089506   -0.262822    2.334902
     22          6           0       -0.972791   -2.164907    0.417426
     23          1           0       -1.837046   -2.820467    0.532150
     24          1           0       -0.133360   -2.761717    0.032019
     25          1           0       -0.664492   -1.758850    1.380129
     26          6           0       -1.831788   -1.556730   -1.905435
     27          1           0       -1.070962   -2.181344   -2.393173
     28          1           0       -2.721104   -2.167627   -1.740258
     29          1           0       -2.051661   -0.730552   -2.579274
 ---------------------------------------------------------------------
 Rotational constants (GHZ):           0.5786224           0.3390858           0.3186941
   427 basis functions,  1056 primitive gaussians,   461 cartesian basis functions
    77 alpha electrons       72 beta electrons
       nuclear repulsion energy      1647.4209547101 Hartrees.
 NAtoms=   29 NActive=   29 NUniq=   29 SFac= 1.00D+00 NAtFMM=   60 NAOKFM=F Big=F
 Nuclear repulsion after empirical dispersion term =     1647.3831281304 Hartrees.
 Initial guess from the checkpoint file:  "checkpoint.chk"
 B after Tr=     0.000000    0.000000    0.000000
         Rot=    1.000000    0.000000    0.000000    0.000000 Ang=   0.00 deg.
 Initial guess <Sx>= 0.0000 <Sy>= 0.0000 <Sz>= 2.5000 <S**2>= 8.7624 S= 2.5021
 SCF Done:  E(UPBE1PBE) =  -3033.15295020     A.U. after    1 cycles
            NFock=  1  Conv=0.27D-08     -V/T= 2.0021
 <Sx>= 0.0000 <Sy>= 0.0000 <Sz>= 2.5000 <S**2>= 8.7624 S= 2.5021
 <L.S>= 0.000000000000E+00
 Annihilation of the first spin contaminant:
 S**2 before annihilation     8.7624,   after     8.7500
 1\1\GINC-HOLY7C04309\SP\UPBE1PBE\Jul-CC-pVDZ\C8H16Cl3Fe1O1(6)\EKWAN\11
 -Feb-2020\0\\#t pop=none jul-cc-pvdz guess=read upbe1pbe empiricaldisp
 ersion=gd3bj\\theory_abbreviation pbe0_d3bj\\0,6\O,0,-0.309791,-0.1653
 84,-0.737624\C,0,-1.195454,-1.090063,-0.61585\C,0,-2.951589,-0.162455,
 0.330477\C,0,-2.436284,1.008936,-0.146879\C,0,-2.725994,1.504139,-1.52
 803\Fe,0,1.431204,0.102273,0.019177\Cl,0,2.054206,2.045439,-0.771885\C
 ,0,-1.569872,1.911701,0.667372\Cl,0,2.567406,-1.635505,-0.691895\Cl,0,
 1.208152,0.09224,2.21949\H,0,-3.68419,-0.666594,-0.296365\H,0,-2.18854
 7,2.751596,1.016305\H,0,-1.13131,1.432963,1.541611\H,0,-0.767805,2.339
 426,0.057411\H,0,-3.084184,2.539532,-1.469166\H,0,-1.79763,1.530511,-2
 .112913\H,0,-3.47807,0.909063,-2.050272\C,0,-3.002747,-0.524889,1.7958
 82\H,0,-3.832522,0.011795,2.273779\H,0,-3.187447,-1.592277,1.938663\H,
 0,-2.089506,-0.262822,2.334902\C,0,-0.972791,-2.164907,0.417426\H,0,-1
 .837046,-2.820467,0.53215\H,0,-0.13336,-2.761717,0.032019\H,0,-0.66449
 2,-1.75885,1.380129\C,0,-1.831788,-1.55673,-1.905435\H,0,-1.070962,-2.
 181344,-2.393173\H,0,-2.721104,-2.167627,-1.740258\H,0,-2.051661,-0.73
 0552,-2.579274\\Version=ES64L-G16RevA.03\HF=-3033.1529502\S2=8.762438\
 S2-1=0.\S2A=8.750048\RMSD=2.665e-09\PG=C01 [X(C8H16Cl3Fe1O1)]\\@


 IF IT HAPPENS, IT MUST BE POSSIBLE.

 -- THE UNNAMED LAW FROM PAUL DICKSON'S 
    "THE OFFICIAL RULES"
 Job cpu time:       0 days  0 hours  4 minutes 34.3 seconds.
 Elapsed time:       0 days  0 hours  1 minutes  9.2 seconds.
 File lengths (MBytes):  RWF=    170 Int=      0 D2E=      0 Chk=     13 Scr=      1
 Normal termination of Gaussian 16 at Tue Feb 11 23:39:44 2020.
 Initial command:
 /n/sw/g16_nehalem/g16/l1.exe "/scratch/Gau-88258.inp" -scrdir="/scratch/"
 Entering Link 1 = /n/sw/g16_nehalem/g16/l1.exe PID=     90301.
  
 Copyright (c) 1988,1990,1992,1993,1995,1998,2003,2009,2016,
            Gaussian, Inc.  All Rights Reserved.
  
 This is part of the Gaussian(R) 16 program.  It is based on
 the Gaussian(R) 09 system (copyright 2009, Gaussian, Inc.),
 the Gaussian(R) 03 system (copyright 2003, Gaussian, Inc.),
 the Gaussian(R) 98 system (copyright 1998, Gaussian, Inc.),
 the Gaussian(R) 94 system (copyright 1995, Gaussian, Inc.),
 the Gaussian 92(TM) system (copyright 1992, Gaussian, Inc.),
 the Gaussian 90(TM) system (copyright 1990, Gaussian, Inc.),
 the Gaussian 88(TM) system (copyright 1988, Gaussian, Inc.),
 the Gaussian 86(TM) system (copyright 1986, Carnegie Mellon
 University), and the Gaussian 82(TM) system (copyright 1983,
 Carnegie Mellon University). Gaussian is a federally registered
 trademark of Gaussian, Inc.
  
 This software contains proprietary and confidential information,
 including trade secrets, belonging to Gaussian, Inc.
  
 This software is provided under written license and may be
 used, copied, transmitted, or stored only in accord with that
 written license.
  
 The following legend is applicable only to US Government
 contracts under FAR:
  
                    RESTRICTED RIGHTS LEGEND
  
 Use, reproduction and disclosure by the US Government is
 subject to restrictions as set forth in subparagraphs (a)
 and (c) of the Commercial Computer Software - Restricted
 Rights clause in FAR 52.227-19.
  
 Gaussian, Inc.
 340 Quinnipiac St., Bldg. 40, Wallingford CT 06492
  
  
 ---------------------------------------------------------------
 Warning -- This program may not be used in any manner that
 competes with the business of Gaussian, Inc. or will provide
 assistance to any competitor of Gaussian, Inc.  The licensee
 of this program is prohibited from giving any competitor of
 Gaussian, Inc. access to this program.  By using this program,
 the user acknowledges that Gaussian, Inc. is engaged in the
 business of creating and licensing software in the field of
 computational chemistry and represents and warrants to the
 licensee that it is not a competitor of Gaussian, Inc. and that
 it will not use this program in any manner prohibited above.
 ---------------------------------------------------------------
  

 Cite this work as:
 Gaussian 16, Revision A.03,
 M. J. Frisch, G. W. Trucks, H. B. Schlegel, G. E. Scuseria, 
 M. A. Robb, J. R. Cheeseman, G. Scalmani, V. Barone, 
 G. A. Petersson, H. Nakatsuji, X. Li, M. Caricato, A. V. Marenich, 
 J. Bloino, B. G. Janesko, R. Gomperts, B. Mennucci, H. P. Hratchian, 
 J. V. Ortiz, A. F. Izmaylov, J. L. Sonnenberg, D. Williams-Young, 
 F. Ding, F. Lipparini, F. Egidi, J. Goings, B. Peng, A. Petrone, 
 T. Henderson, D. Ranasinghe, V. G. Zakrzewski, J. Gao, N. Rega, 
 G. Zheng, W. Liang, M. Hada, M. Ehara, K. Toyota, R. Fukuda, 
 J. Hasegawa, M. Ishida, T. Nakajima, Y. Honda, O. Kitao, H. Nakai, 
 T. Vreven, K. Throssell, J. A. Montgomery, Jr., J. E. Peralta, 
 F. Ogliaro, M. J. Bearpark, J. J. Heyd, E. N. Brothers, K. N. Kudin, 
 V. N. Staroverov, T. A. Keith, R. Kobayashi, J. Normand, 
 K. Raghavachari, A. P. Rendell, J. C. Burant, S. S. Iyengar, 
 J. Tomasi, M. Cossi, J. M. Millam, M. Klene, C. Adamo, R. Cammi, 
 J. W. Ochterski, R. L. Martin, K. Morokuma, O. Farkas, 
 J. B. Foresman, and D. J. Fox, Gaussian, Inc., Wallingford CT, 2016.
 
 ******************************************
 Gaussian 16:  ES64L-G16RevA.03 25-Dec-2016
                11-Feb-2020 
 ******************************************
 %chk=checkpoint.chk
 %mem=3GB
 %nprocshared=4
 Will use up to    4 processors via shared memory.
 -----------------------------------------
 #t pop=none jul-cc-pvdz guess=read ub3lyp
 -----------------------------------------
 -------------------------
 theory_abbreviation b3lyp
 -------------------------
 Symbolic Z-matrix:
 Charge =  0 Multiplicity = 6
 O                    -0.30979  -0.16538  -0.73762 
 C                    -1.19545  -1.09006  -0.61585 
 C                    -2.95159  -0.16246   0.33048 
 C                    -2.43628   1.00894  -0.14688 
 C                    -2.72599   1.50414  -1.52803 
 Fe                    1.4312    0.10227   0.01918 
 Cl                    2.05421   2.04544  -0.77189 
 C                    -1.56987   1.9117    0.66737 
 Cl                    2.56741  -1.63551  -0.6919 
 Cl                    1.20815   0.09224   2.21949 
 H                    -3.68419  -0.66659  -0.29637 
 H                    -2.18855   2.7516    1.01631 
 H                    -1.13131   1.43296   1.54161 
 H                    -0.76781   2.33943   0.05741 
 H                    -3.08418   2.53953  -1.46917 
 H                    -1.79763   1.53051  -2.11291 
 H                    -3.47807   0.90906  -2.05027 
 C                    -3.00275  -0.52489   1.79588 
 H                    -3.83252   0.0118    2.27378 
 H                    -3.18745  -1.59228   1.93866 
 H                    -2.08951  -0.26282   2.3349 
 C                    -0.97279  -2.16491   0.41743 
 H                    -1.83705  -2.82047   0.53215 
 H                    -0.13336  -2.76172   0.03202 
 H                    -0.66449  -1.75885   1.38013 
 C                    -1.83179  -1.55673  -1.90544 
 H                    -1.07096  -2.18134  -2.39317 
 H                    -2.7211   -2.16763  -1.74026 
 H                    -2.05166  -0.73055  -2.57927 
 
                    Distance matrix (angstroms):
                    1          2          3          4          5
     1  O    0.000000
     2  C    1.286180   0.000000
     3  C    2.849552   2.200000   0.000000
     4  C    2.499996   2.483020   1.365857   0.000000
     5  C    3.041395   3.147143   2.506487   1.495572   0.000000
     6  Fe   1.917147   2.953685   4.401802   3.975811   4.652029
     7  Cl   3.236880   4.518408   5.581038   4.650750   4.869812
     8  C    2.806439   3.285945   2.514908   1.492869   2.514461
     9  Cl   3.231348   3.802947   5.802967   5.685686   6.211004
    10  Cl   3.333923   3.900553   4.575662   4.440940   5.613811
    11  H    3.439839   2.544642   1.088022   2.094521   2.673429
    12  H    3.887771   4.290514   3.089383   2.109795   2.884205
    13  H    2.902502   3.320303   2.706588   2.175719   3.459881
    14  H    2.667570   3.521017   3.332099   2.143772   2.654399
    15  H    3.943220   4.179642   3.249158   2.123898   1.097180
    16  H    2.642186   3.077535   3.188716   2.131950   1.097562
    17  H    3.593810   3.356249   2.663325   2.172141   1.092003
    18  C    3.714823   3.066298   1.510426   2.539256   3.904092
    19  H    4.637842   4.064256   2.140754   2.967045   4.231459
    20  H    4.180842   3.278077   2.164782   3.417607   4.671048
    21  H    3.552083   3.192271   2.184257   2.810135   4.295289
    22  C    2.402457   1.507491   2.816561   3.540273   4.507817
    23  H    3.315765   2.173440   2.889274   3.935034   4.872041
    24  H    2.713747   2.083796   3.845472   4.421910   5.230013
    25  H    2.673916   2.170974   2.980111   3.623760   4.832626
    26  C    2.369831   1.511863   2.863086   3.168687   3.211068
    27  H    2.717410   2.089323   3.876976   4.133743   4.131633
    28  H    3.290696   2.180148   2.891675   3.565183   3.677898
    29  H    2.597152   2.171951   3.098267   3.015012   2.560016
                    6          7          8          9         10
     6  Fe   0.000000
     7  Cl   2.188562   0.000000
     8  C    3.563796   3.901703   0.000000
     9  Cl   2.194641   3.717408   5.616702   0.000000
    10  Cl   2.211613   3.671392   3.665641   3.648128   0.000000
    11  H    5.182468   6.364781   3.470841   6.338587   5.553410
    12  H    4.595190   4.658029   1.099971   6.692062   4.478548
    13  H    3.264203   3.984332   1.088954   5.299485   2.780313
    14  H    3.137189   2.955995   1.094675   5.242630   3.691725
    15  H    5.342670   5.208971   2.692974   7.069339   6.166001
    16  H    4.124444   4.110979   2.815522   5.576423   5.465626
    17  H    5.388367   5.790656   3.468731   6.698343   6.392084
    18  C    4.817669   6.226780   3.043622   6.200734   4.276910
    19  H    5.726974   6.932917   3.363000   7.243473   5.041608
    20  H    5.280896   6.932170   4.063323   6.327720   4.715692
    21  H    4.229808   5.670145   2.789126   5.721240   3.318725
    22  C    3.328348   5.320168   4.127676   3.747513   3.619207
    23  H    4.414409   6.365484   4.741633   4.722459   4.539186
    24  H    3.263505   5.342327   4.930322   3.014389   3.837936
    25  H    3.115752   5.147339   3.847165   3.841050   2.763667
    26  C    4.135643   5.418626   4.326425   4.564186   5.382875
    27  H    4.158747   5.500995   5.135062   4.053395   5.624963
    28  H    5.048734   6.441371   4.874724   5.417615   6.018775
    29  H    4.424465   5.275502   4.213589   5.071185   5.859309
                   11         12         13         14         15
    11  H    0.000000
    12  H    3.955259   0.000000
    13  H    3.781996   1.769884   0.000000
    14  H    4.203167   1.762915   1.776699   0.000000
    15  H    3.466225   2.650416   3.755395   2.781383   0.000000
    16  H    3.418512   3.381696   3.716052   2.534796   1.757201
    17  H    2.366721   3.802853   4.322427   3.719382   1.775179
    18  C    2.204981   3.464970   2.720315   4.027598   4.478599
    19  H    2.662302   3.433716   3.138843   4.441018   4.578111
    20  H    2.469614   4.551679   3.679324   4.985185   5.356847
    21  H    3.103162   3.291690   2.103126   3.702101   4.828406
    22  C    3.179013   5.099875   3.772743   4.523345   5.490807
    23  H    2.955934   5.604092   4.428176   5.290855   5.855784
    24  H    4.135912   5.965671   4.568382   5.140508   6.250133
    25  H    3.622462   4.774854   3.229809   4.307682   5.696444
    26  C    2.610142   5.217807   4.616390   4.490530   4.305600
    27  H    3.676960   6.099790   5.343162   5.151177   5.214741
    28  H    2.294659   5.664010   5.124681   5.230728   4.728918
    29  H    2.807297   5.007223   4.744422   4.245605   3.604427
                   16         17         18         19         20
    16  H    0.000000
    17  H    1.792763   0.000000
    18  C    4.577735   4.132197   0.000000
    19  H    5.068565   4.430366   1.097698   0.000000
    20  H    5.300817   4.717284   1.092620   1.761100   0.000000
    21  H    4.804612   4.746702   1.092351   1.765575   1.769161
    22  C    4.554019   4.670680   2.951359   4.045014   2.747138
    23  H    5.092045   4.824029   2.868023   3.877745   2.304411
    24  H    5.078755   5.384946   4.043265   5.138254   3.785542
    25  H    4.930034   5.177029   2.676368   3.737674   2.589403
    26  C    3.094393   2.968393   4.016913   4.891731   4.076293
    27  H    3.792685   3.932221   4.901410   5.849488   4.857089
    28  H    3.829870   3.183572   3.909245   4.700811   3.752727
    29  H    2.322591   2.236699   4.482059   5.222516   4.737545
                   21         22         23         24         25
    21  H    0.000000
    22  C    2.922618   0.000000
    23  H    3.139299   1.090806   0.000000
    24  H    3.921002   1.099711   1.776550   0.000000
    25  H    2.276040   1.089370   1.794709   1.762170   0.000000
    26  C    4.440842   2.550184   2.745702   2.844359   3.492616
    27  H    5.203158   2.812361   3.090773   2.664111   3.818577
    28  H    4.542480   2.777086   2.524202   3.192229   3.759464
    29  H    4.936530   3.493071   3.754299   3.824181   4.319549
                   26         27         28         29
    26  C    0.000000
    27  H    1.098584   0.000000
    28  H    1.091495   1.774670   0.000000
    29  H    1.088565   1.761023   1.793680   0.000000
 Framework group  C1[X(C8H16Cl3FeO)]
 Deg. of freedom    81
                         Standard orientation:                         
 ---------------------------------------------------------------------
 Center     Atomic      Atomic             Coordinates (Angstroms)
 Number     Number       Type             X           Y           Z
 ---------------------------------------------------------------------
      1          8           0       -0.309791   -0.165384   -0.737624
      2          6           0       -1.195454   -1.090063   -0.615850
      3          6           0       -2.951589   -0.162455    0.330477
      4          6           0       -2.436284    1.008936   -0.146879
      5          6           0       -2.725994    1.504139   -1.528030
      6         26           0        1.431204    0.102273    0.019177
      7         17           0        2.054206    2.045439   -0.771885
      8          6           0       -1.569872    1.911701    0.667372
      9         17           0        2.567406   -1.635505   -0.691895
     10         17           0        1.208152    0.092240    2.219490
     11          1           0       -3.684190   -0.666594   -0.296365
     12          1           0       -2.188547    2.751596    1.016305
     13          1           0       -1.131310    1.432963    1.541611
     14          1           0       -0.767805    2.339426    0.057411
     15          1           0       -3.084184    2.539532   -1.469166
     16          1           0       -1.797630    1.530511   -2.112913
     17          1           0       -3.478070    0.909063   -2.050272
     18          6           0       -3.002747   -0.524889    1.795882
     19          1           0       -3.832522    0.011795    2.273779
     20          1           0       -3.187447   -1.592277    1.938663
     21          1           0       -2.089506   -0.262822    2.334902
     22          6           0       -0.972791   -2.164907    0.417426
     23          1           0       -1.837046   -2.820467    0.532150
     24          1           0       -0.133360   -2.761717    0.032019
     25          1           0       -0.664492   -1.758850    1.380129
     26          6           0       -1.831788   -1.556730   -1.905435
     27          1           0       -1.070962   -2.181344   -2.393173
     28          1           0       -2.721104   -2.167627   -1.740258
     29          1           0       -2.051661   -0.730552   -2.579274
 ---------------------------------------------------------------------
 Rotational constants (GHZ):           0.5786224           0.3390858           0.3186941
   427 basis functions,  1056 primitive gaussians,   461 cartesian basis functions
    77 alpha electrons       72 beta electrons
       nuclear repulsion energy      1647.4209547101 Hartrees.
 NAtoms=   29 NActive=   29 NUniq=   29 SFac= 1.00D+00 NAtFMM=   60 NAOKFM=F Big=F
 Initial guess from the checkpoint file:  "checkpoint.chk"
 B after Tr=     0.000000    0.000000    0.000000
         Rot=    1.000000    0.000000    0.000000    0.000000 Ang=   0.00 deg.
 Initial guess <Sx>= 0.0000 <Sy>= 0.0000 <Sz>= 2.5000 <S**2>= 8.7624 S= 2.5021
 SCF Done:  E(UB3LYP) =  -3034.32982850     A.U. after   13 cycles
            NFock= 13  Conv=0.62D-08     -V/T= 2.0024
 <Sx>= 0.0000 <Sy>= 0.0000 <Sz>= 2.5000 <S**2>= 8.7617 S= 2.5019
 <L.S>= 0.000000000000E+00
 Annihilation of the first spin contaminant:
 S**2 before annihilation     8.7617,   after     8.7500
 1\1\GINC-HOLY7C04309\SP\UB3LYP\Jul-CC-pVDZ\C8H16Cl3Fe1O1(6)\EKWAN\11-F
 eb-2020\0\\#t pop=none jul-cc-pvdz guess=read ub3lyp\\theory_abbreviat
 ion b3lyp\\0,6\O,0,-0.309791,-0.165384,-0.737624\C,0,-1.195454,-1.0900
 63,-0.61585\C,0,-2.951589,-0.162455,0.330477\C,0,-2.436284,1.008936,-0
 .146879\C,0,-2.725994,1.504139,-1.52803\Fe,0,1.431204,0.102273,0.01917
 7\Cl,0,2.054206,2.045439,-0.771885\C,0,-1.569872,1.911701,0.667372\Cl,
 0,2.567406,-1.635505,-0.691895\Cl,0,1.208152,0.09224,2.21949\H,0,-3.68
 419,-0.666594,-0.296365\H,0,-2.188547,2.751596,1.016305\H,0,-1.13131,1
 .432963,1.541611\H,0,-0.767805,2.339426,0.057411\H,0,-3.084184,2.53953
 2,-1.469166\H,0,-1.79763,1.530511,-2.112913\H,0,-3.47807,0.909063,-2.0
 50272\C,0,-3.002747,-0.524889,1.795882\H,0,-3.832522,0.011795,2.273779
 \H,0,-3.187447,-1.592277,1.938663\H,0,-2.089506,-0.262822,2.334902\C,0
 ,-0.972791,-2.164907,0.417426\H,0,-1.837046,-2.820467,0.53215\H,0,-0.1
 3336,-2.761717,0.032019\H,0,-0.664492,-1.75885,1.380129\C,0,-1.831788,
 -1.55673,-1.905435\H,0,-1.070962,-2.181344,-2.393173\H,0,-2.721104,-2.
 167627,-1.740258\H,0,-2.051661,-0.730552,-2.579274\\Version=ES64L-G16R
 evA.03\HF=-3034.3298285\S2=8.761702\S2-1=0.\S2A=8.750042\RMSD=6.162e-0
 9\PG=C01 [X(C8H16Cl3Fe1O1)]\\@


 Luck is a matter of preparation meeting opportunity.
                                    -- Oprah Winfrey
 Job cpu time:       0 days  0 hours 53 minutes 42.4 seconds.
 Elapsed time:       0 days  0 hours 13 minutes 27.8 seconds.
 File lengths (MBytes):  RWF=    174 Int=      0 D2E=      0 Chk=     13 Scr=      1
 Normal termination of Gaussian 16 at Tue Feb 11 23:53:12 2020.
 Initial command:
 /n/sw/g16_nehalem/g16/l1.exe "/scratch/Gau-88258.inp" -scrdir="/scratch/"
 Entering Link 1 = /n/sw/g16_nehalem/g16/l1.exe PID=     91130.
  
 Copyright (c) 1988,1990,1992,1993,1995,1998,2003,2009,2016,
            Gaussian, Inc.  All Rights Reserved.
  
 This is part of the Gaussian(R) 16 program.  It is based on
 the Gaussian(R) 09 system (copyright 2009, Gaussian, Inc.),
 the Gaussian(R) 03 system (copyright 2003, Gaussian, Inc.),
 the Gaussian(R) 98 system (copyright 1998, Gaussian, Inc.),
 the Gaussian(R) 94 system (copyright 1995, Gaussian, Inc.),
 the Gaussian 92(TM) system (copyright 1992, Gaussian, Inc.),
 the Gaussian 90(TM) system (copyright 1990, Gaussian, Inc.),
 the Gaussian 88(TM) system (copyright 1988, Gaussian, Inc.),
 the Gaussian 86(TM) system (copyright 1986, Carnegie Mellon
 University), and the Gaussian 82(TM) system (copyright 1983,
 Carnegie Mellon University). Gaussian is a federally registered
 trademark of Gaussian, Inc.
  
 This software contains proprietary and confidential information,
 including trade secrets, belonging to Gaussian, Inc.
  
 This software is provided under written license and may be
 used, copied, transmitted, or stored only in accord with that
 written license.
  
 The following legend is applicable only to US Government
 contracts under FAR:
  
                    RESTRICTED RIGHTS LEGEND
  
 Use, reproduction and disclosure by the US Government is
 subject to restrictions as set forth in subparagraphs (a)
 and (c) of the Commercial Computer Software - Restricted
 Rights clause in FAR 52.227-19.
  
 Gaussian, Inc.
 340 Quinnipiac St., Bldg. 40, Wallingford CT 06492
  
  
 ---------------------------------------------------------------
 Warning -- This program may not be used in any manner that
 competes with the business of Gaussian, Inc. or will provide
 assistance to any competitor of Gaussian, Inc.  The licensee
 of this program is prohibited from giving any competitor of
 Gaussian, Inc. access to this program.  By using this program,
 the user acknowledges that Gaussian, Inc. is engaged in the
 business of creating and licensing software in the field of
 computational chemistry and represents and warrants to the
 licensee that it is not a competitor of Gaussian, Inc. and that
 it will not use this program in any manner prohibited above.
 ---------------------------------------------------------------
  

 Cite this work as:
 Gaussian 16, Revision A.03,
 M. J. Frisch, G. W. Trucks, H. B. Schlegel, G. E. Scuseria, 
 M. A. Robb, J. R. Cheeseman, G. Scalmani, V. Barone, 
 G. A. Petersson, H. Nakatsuji, X. Li, M. Caricato, A. V. Marenich, 
 J. Bloino, B. G. Janesko, R. Gomperts, B. Mennucci, H. P. Hratchian, 
 J. V. Ortiz, A. F. Izmaylov, J. L. Sonnenberg, D. Williams-Young, 
 F. Ding, F. Lipparini, F. Egidi, J. Goings, B. Peng, A. Petrone, 
 T. Henderson, D. Ranasinghe, V. G. Zakrzewski, J. Gao, N. Rega, 
 G. Zheng, W. Liang, M. Hada, M. Ehara, K. Toyota, R. Fukuda, 
 J. Hasegawa, M. Ishida, T. Nakajima, Y. Honda, O. Kitao, H. Nakai, 
 T. Vreven, K. Throssell, J. A. Montgomery, Jr., J. E. Peralta, 
 F. Ogliaro, M. J. Bearpark, J. J. Heyd, E. N. Brothers, K. N. Kudin, 
 V. N. Staroverov, T. A. Keith, R. Kobayashi, J. Normand, 
 K. Raghavachari, A. P. Rendell, J. C. Burant, S. S. Iyengar, 
 J. Tomasi, M. Cossi, J. M. Millam, M. Klene, C. Adamo, R. Cammi, 
 J. W. Ochterski, R. L. Martin, K. Morokuma, O. Farkas, 
 J. B. Foresman, and D. J. Fox, Gaussian, Inc., Wallingford CT, 2016.
 
 ******************************************
 Gaussian 16:  ES64L-G16RevA.03 25-Dec-2016
                11-Feb-2020 
 ******************************************
 %chk=checkpoint.chk
 %mem=3GB
 %nprocshared=4
 Will use up to    4 processors via shared memory.
 -------------------------------------------------------------------
 #t pop=none jul-cc-pvdz guess=read ub3lyp empiricaldispersion=gd3bj
 -------------------------------------------------------------------
 ------------------------------
 theory_abbreviation b3lyp_d3bj
 ------------------------------
 Symbolic Z-matrix:
 Charge =  0 Multiplicity = 6
 O                    -0.30979  -0.16538  -0.73762 
 C                    -1.19545  -1.09006  -0.61585 
 C                    -2.95159  -0.16246   0.33048 
 C                    -2.43628   1.00894  -0.14688 
 C                    -2.72599   1.50414  -1.52803 
 Fe                    1.4312    0.10227   0.01918 
 Cl                    2.05421   2.04544  -0.77189 
 C                    -1.56987   1.9117    0.66737 
 Cl                    2.56741  -1.63551  -0.6919 
 Cl                    1.20815   0.09224   2.21949 
 H                    -3.68419  -0.66659  -0.29637 
 H                    -2.18855   2.7516    1.01631 
 H                    -1.13131   1.43296   1.54161 
 H                    -0.76781   2.33943   0.05741 
 H                    -3.08418   2.53953  -1.46917 
 H                    -1.79763   1.53051  -2.11291 
 H                    -3.47807   0.90906  -2.05027 
 C                    -3.00275  -0.52489   1.79588 
 H                    -3.83252   0.0118    2.27378 
 H                    -3.18745  -1.59228   1.93866 
 H                    -2.08951  -0.26282   2.3349 
 C                    -0.97279  -2.16491   0.41743 
 H                    -1.83705  -2.82047   0.53215 
 H                    -0.13336  -2.76172   0.03202 
 H                    -0.66449  -1.75885   1.38013 
 C                    -1.83179  -1.55673  -1.90544 
 H                    -1.07096  -2.18134  -2.39317 
 H                    -2.7211   -2.16763  -1.74026 
 H                    -2.05166  -0.73055  -2.57927 
 
                    Distance matrix (angstroms):
                    1          2          3          4          5
     1  O    0.000000
     2  C    1.286180   0.000000
     3  C    2.849552   2.200000   0.000000
     4  C    2.499996   2.483020   1.365857   0.000000
     5  C    3.041395   3.147143   2.506487   1.495572   0.000000
     6  Fe   1.917147   2.953685   4.401802   3.975811   4.652029
     7  Cl   3.236880   4.518408   5.581038   4.650750   4.869812
     8  C    2.806439   3.285945   2.514908   1.492869   2.514461
     9  Cl   3.231348   3.802947   5.802967   5.685686   6.211004
    10  Cl   3.333923   3.900553   4.575662   4.440940   5.613811
    11  H    3.439839   2.544642   1.088022   2.094521   2.673429
    12  H    3.887771   4.290514   3.089383   2.109795   2.884205
    13  H    2.902502   3.320303   2.706588   2.175719   3.459881
    14  H    2.667570   3.521017   3.332099   2.143772   2.654399
    15  H    3.943220   4.179642   3.249158   2.123898   1.097180
    16  H    2.642186   3.077535   3.188716   2.131950   1.097562
    17  H    3.593810   3.356249   2.663325   2.172141   1.092003
    18  C    3.714823   3.066298   1.510426   2.539256   3.904092
    19  H    4.637842   4.064256   2.140754   2.967045   4.231459
    20  H    4.180842   3.278077   2.164782   3.417607   4.671048
    21  H    3.552083   3.192271   2.184257   2.810135   4.295289
    22  C    2.402457   1.507491   2.816561   3.540273   4.507817
    23  H    3.315765   2.173440   2.889274   3.935034   4.872041
    24  H    2.713747   2.083796   3.845472   4.421910   5.230013
    25  H    2.673916   2.170974   2.980111   3.623760   4.832626
    26  C    2.369831   1.511863   2.863086   3.168687   3.211068
    27  H    2.717410   2.089323   3.876976   4.133743   4.131633
    28  H    3.290696   2.180148   2.891675   3.565183   3.677898
    29  H    2.597152   2.171951   3.098267   3.015012   2.560016
                    6          7          8          9         10
     6  Fe   0.000000
     7  Cl   2.188562   0.000000
     8  C    3.563796   3.901703   0.000000
     9  Cl   2.194641   3.717408   5.616702   0.000000
    10  Cl   2.211613   3.671392   3.665641   3.648128   0.000000
    11  H    5.182468   6.364781   3.470841   6.338587   5.553410
    12  H    4.595190   4.658029   1.099971   6.692062   4.478548
    13  H    3.264203   3.984332   1.088954   5.299485   2.780313
    14  H    3.137189   2.955995   1.094675   5.242630   3.691725
    15  H    5.342670   5.208971   2.692974   7.069339   6.166001
    16  H    4.124444   4.110979   2.815522   5.576423   5.465626
    17  H    5.388367   5.790656   3.468731   6.698343   6.392084
    18  C    4.817669   6.226780   3.043622   6.200734   4.276910
    19  H    5.726974   6.932917   3.363000   7.243473   5.041608
    20  H    5.280896   6.932170   4.063323   6.327720   4.715692
    21  H    4.229808   5.670145   2.789126   5.721240   3.318725
    22  C    3.328348   5.320168   4.127676   3.747513   3.619207
    23  H    4.414409   6.365484   4.741633   4.722459   4.539186
    24  H    3.263505   5.342327   4.930322   3.014389   3.837936
    25  H    3.115752   5.147339   3.847165   3.841050   2.763667
    26  C    4.135643   5.418626   4.326425   4.564186   5.382875
    27  H    4.158747   5.500995   5.135062   4.053395   5.624963
    28  H    5.048734   6.441371   4.874724   5.417615   6.018775
    29  H    4.424465   5.275502   4.213589   5.071185   5.859309
                   11         12         13         14         15
    11  H    0.000000
    12  H    3.955259   0.000000
    13  H    3.781996   1.769884   0.000000
    14  H    4.203167   1.762915   1.776699   0.000000
    15  H    3.466225   2.650416   3.755395   2.781383   0.000000
    16  H    3.418512   3.381696   3.716052   2.534796   1.757201
    17  H    2.366721   3.802853   4.322427   3.719382   1.775179
    18  C    2.204981   3.464970   2.720315   4.027598   4.478599
    19  H    2.662302   3.433716   3.138843   4.441018   4.578111
    20  H    2.469614   4.551679   3.679324   4.985185   5.356847
    21  H    3.103162   3.291690   2.103126   3.702101   4.828406
    22  C    3.179013   5.099875   3.772743   4.523345   5.490807
    23  H    2.955934   5.604092   4.428176   5.290855   5.855784
    24  H    4.135912   5.965671   4.568382   5.140508   6.250133
    25  H    3.622462   4.774854   3.229809   4.307682   5.696444
    26  C    2.610142   5.217807   4.616390   4.490530   4.305600
    27  H    3.676960   6.099790   5.343162   5.151177   5.214741
    28  H    2.294659   5.664010   5.124681   5.230728   4.728918
    29  H    2.807297   5.007223   4.744422   4.245605   3.604427
                   16         17         18         19         20
    16  H    0.000000
    17  H    1.792763   0.000000
    18  C    4.577735   4.132197   0.000000
    19  H    5.068565   4.430366   1.097698   0.000000
    20  H    5.300817   4.717284   1.092620   1.761100   0.000000
    21  H    4.804612   4.746702   1.092351   1.765575   1.769161
    22  C    4.554019   4.670680   2.951359   4.045014   2.747138
    23  H    5.092045   4.824029   2.868023   3.877745   2.304411
    24  H    5.078755   5.384946   4.043265   5.138254   3.785542
    25  H    4.930034   5.177029   2.676368   3.737674   2.589403
    26  C    3.094393   2.968393   4.016913   4.891731   4.076293
    27  H    3.792685   3.932221   4.901410   5.849488   4.857089
    28  H    3.829870   3.183572   3.909245   4.700811   3.752727
    29  H    2.322591   2.236699   4.482059   5.222516   4.737545
                   21         22         23         24         25
    21  H    0.000000
    22  C    2.922618   0.000000
    23  H    3.139299   1.090806   0.000000
    24  H    3.921002   1.099711   1.776550   0.000000
    25  H    2.276040   1.089370   1.794709   1.762170   0.000000
    26  C    4.440842   2.550184   2.745702   2.844359   3.492616
    27  H    5.203158   2.812361   3.090773   2.664111   3.818577
    28  H    4.542480   2.777086   2.524202   3.192229   3.759464
    29  H    4.936530   3.493071   3.754299   3.824181   4.319549
                   26         27         28         29
    26  C    0.000000
    27  H    1.098584   0.000000
    28  H    1.091495   1.774670   0.000000
    29  H    1.088565   1.761023   1.793680   0.000000
 Framework group  C1[X(C8H16Cl3FeO)]
 Deg. of freedom    81
                         Standard orientation:                         
 ---------------------------------------------------------------------
 Center     Atomic      Atomic             Coordinates (Angstroms)
 Number     Number       Type             X           Y           Z
 ---------------------------------------------------------------------
      1          8           0       -0.309791   -0.165384   -0.737624
      2          6           0       -1.195454   -1.090063   -0.615850
      3          6           0       -2.951589   -0.162455    0.330477
      4          6           0       -2.436284    1.008936   -0.146879
      5          6           0       -2.725994    1.504139   -1.528030
      6         26           0        1.431204    0.102273    0.019177
      7         17           0        2.054206    2.045439   -0.771885
      8          6           0       -1.569872    1.911701    0.667372
      9         17           0        2.567406   -1.635505   -0.691895
     10         17           0        1.208152    0.092240    2.219490
     11          1           0       -3.684190   -0.666594   -0.296365
     12          1           0       -2.188547    2.751596    1.016305
     13          1           0       -1.131310    1.432963    1.541611
     14          1           0       -0.767805    2.339426    0.057411
     15          1           0       -3.084184    2.539532   -1.469166
     16          1           0       -1.797630    1.530511   -2.112913
     17          1           0       -3.478070    0.909063   -2.050272
     18          6           0       -3.002747   -0.524889    1.795882
     19          1           0       -3.832522    0.011795    2.273779
     20          1           0       -3.187447   -1.592277    1.938663
     21          1           0       -2.089506   -0.262822    2.334902
     22          6           0       -0.972791   -2.164907    0.417426
     23          1           0       -1.837046   -2.820467    0.532150
     24          1           0       -0.133360   -2.761717    0.032019
     25          1           0       -0.664492   -1.758850    1.380129
     26          6           0       -1.831788   -1.556730   -1.905435
     27          1           0       -1.070962   -2.181344   -2.393173
     28          1           0       -2.721104   -2.167627   -1.740258
     29          1           0       -2.051661   -0.730552   -2.579274
 ---------------------------------------------------------------------
 Rotational constants (GHZ):           0.5786224           0.3390858           0.3186941
   427 basis functions,  1056 primitive gaussians,   461 cartesian basis functions
    77 alpha electrons       72 beta electrons
       nuclear repulsion energy      1647.4209547101 Hartrees.
 NAtoms=   29 NActive=   29 NUniq=   29 SFac= 1.00D+00 NAtFMM=   60 NAOKFM=F Big=F
 Nuclear repulsion after empirical dispersion term =     1647.3504517452 Hartrees.
 Initial guess from the checkpoint file:  "checkpoint.chk"
 B after Tr=     0.000000    0.000000    0.000000
         Rot=    1.000000    0.000000    0.000000    0.000000 Ang=   0.00 deg.
 Initial guess <Sx>= 0.0000 <Sy>= 0.0000 <Sz>= 2.5000 <S**2>= 8.7617 S= 2.5019
 SCF Done:  E(UB3LYP) =  -3034.40033146     A.U. after    1 cycles
            NFock=  1  Conv=0.35D-08     -V/T= 2.0024
 <Sx>= 0.0000 <Sy>= 0.0000 <Sz>= 2.5000 <S**2>= 8.7617 S= 2.5019
 <L.S>= 0.000000000000E+00
 Annihilation of the first spin contaminant:
 S**2 before annihilation     8.7617,   after     8.7500
 1\1\GINC-HOLY7C04309\SP\UB3LYP\Jul-CC-pVDZ\C8H16Cl3Fe1O1(6)\EKWAN\11-F
 eb-2020\0\\#t pop=none jul-cc-pvdz guess=read ub3lyp empiricaldispersi
 on=gd3bj\\theory_abbreviation b3lyp_d3bj\\0,6\O,0,-0.309791,-0.165384,
 -0.737624\C,0,-1.195454,-1.090063,-0.61585\C,0,-2.951589,-0.162455,0.3
 30477\C,0,-2.436284,1.008936,-0.146879\C,0,-2.725994,1.504139,-1.52803
 \Fe,0,1.431204,0.102273,0.019177\Cl,0,2.054206,2.045439,-0.771885\C,0,
 -1.569872,1.911701,0.667372\Cl,0,2.567406,-1.635505,-0.691895\Cl,0,1.2
 08152,0.09224,2.21949\H,0,-3.68419,-0.666594,-0.296365\H,0,-2.188547,2
 .751596,1.016305\H,0,-1.13131,1.432963,1.541611\H,0,-0.767805,2.339426
 ,0.057411\H,0,-3.084184,2.539532,-1.469166\H,0,-1.79763,1.530511,-2.11
 2913\H,0,-3.47807,0.909063,-2.050272\C,0,-3.002747,-0.524889,1.795882\
 H,0,-3.832522,0.011795,2.273779\H,0,-3.187447,-1.592277,1.938663\H,0,-
 2.089506,-0.262822,2.334902\C,0,-0.972791,-2.164907,0.417426\H,0,-1.83
 7046,-2.820467,0.53215\H,0,-0.13336,-2.761717,0.032019\H,0,-0.664492,-
 1.75885,1.380129\C,0,-1.831788,-1.55673,-1.905435\H,0,-1.070962,-2.181
 344,-2.393173\H,0,-2.721104,-2.167627,-1.740258\H,0,-2.051661,-0.73055
 2,-2.579274\\Version=ES64L-G16RevA.03\HF=-3034.4003315\S2=8.761702\S2-
 1=0.\S2A=8.750042\RMSD=3.528e-09\PG=C01 [X(C8H16Cl3Fe1O1)]\\@


 BOOKS ARE LIGHTHOUSES ERECTED IN THE GREAT SEA OF TIME.
     -- E.P.WHIPPLE
 Job cpu time:       0 days  0 hours  4 minutes 33.5 seconds.
 Elapsed time:       0 days  0 hours  1 minutes  9.0 seconds.
 File lengths (MBytes):  RWF=    170 Int=      0 D2E=      0 Chk=     13 Scr=      1
 Normal termination of Gaussian 16 at Tue Feb 11 23:54:22 2020.
 Initial command:
 /n/sw/g16_nehalem/g16/l1.exe "/scratch/Gau-88258.inp" -scrdir="/scratch/"
 Entering Link 1 = /n/sw/g16_nehalem/g16/l1.exe PID=     91244.
  
 Copyright (c) 1988,1990,1992,1993,1995,1998,2003,2009,2016,
            Gaussian, Inc.  All Rights Reserved.
  
 This is part of the Gaussian(R) 16 program.  It is based on
 the Gaussian(R) 09 system (copyright 2009, Gaussian, Inc.),
 the Gaussian(R) 03 system (copyright 2003, Gaussian, Inc.),
 the Gaussian(R) 98 system (copyright 1998, Gaussian, Inc.),
 the Gaussian(R) 94 system (copyright 1995, Gaussian, Inc.),
 the Gaussian 92(TM) system (copyright 1992, Gaussian, Inc.),
 the Gaussian 90(TM) system (copyright 1990, Gaussian, Inc.),
 the Gaussian 88(TM) system (copyright 1988, Gaussian, Inc.),
 the Gaussian 86(TM) system (copyright 1986, Carnegie Mellon
 University), and the Gaussian 82(TM) system (copyright 1983,
 Carnegie Mellon University). Gaussian is a federally registered
 trademark of Gaussian, Inc.
  
 This software contains proprietary and confidential information,
 including trade secrets, belonging to Gaussian, Inc.
  
 This software is provided under written license and may be
 used, copied, transmitted, or stored only in accord with that
 written license.
  
 The following legend is applicable only to US Government
 contracts under FAR:
  
                    RESTRICTED RIGHTS LEGEND
  
 Use, reproduction and disclosure by the US Government is
 subject to restrictions as set forth in subparagraphs (a)
 and (c) of the Commercial Computer Software - Restricted
 Rights clause in FAR 52.227-19.
  
 Gaussian, Inc.
 340 Quinnipiac St., Bldg. 40, Wallingford CT 06492
  
  
 ---------------------------------------------------------------
 Warning -- This program may not be used in any manner that
 competes with the business of Gaussian, Inc. or will provide
 assistance to any competitor of Gaussian, Inc.  The licensee
 of this program is prohibited from giving any competitor of
 Gaussian, Inc. access to this program.  By using this program,
 the user acknowledges that Gaussian, Inc. is engaged in the
 business of creating and licensing software in the field of
 computational chemistry and represents and warrants to the
 licensee that it is not a competitor of Gaussian, Inc. and that
 it will not use this program in any manner prohibited above.
 ---------------------------------------------------------------
  

 Cite this work as:
 Gaussian 16, Revision A.03,
 M. J. Frisch, G. W. Trucks, H. B. Schlegel, G. E. Scuseria, 
 M. A. Robb, J. R. Cheeseman, G. Scalmani, V. Barone, 
 G. A. Petersson, H. Nakatsuji, X. Li, M. Caricato, A. V. Marenich, 
 J. Bloino, B. G. Janesko, R. Gomperts, B. Mennucci, H. P. Hratchian, 
 J. V. Ortiz, A. F. Izmaylov, J. L. Sonnenberg, D. Williams-Young, 
 F. Ding, F. Lipparini, F. Egidi, J. Goings, B. Peng, A. Petrone, 
 T. Henderson, D. Ranasinghe, V. G. Zakrzewski, J. Gao, N. Rega, 
 G. Zheng, W. Liang, M. Hada, M. Ehara, K. Toyota, R. Fukuda, 
 J. Hasegawa, M. Ishida, T. Nakajima, Y. Honda, O. Kitao, H. Nakai, 
 T. Vreven, K. Throssell, J. A. Montgomery, Jr., J. E. Peralta, 
 F. Ogliaro, M. J. Bearpark, J. J. Heyd, E. N. Brothers, K. N. Kudin, 
 V. N. Staroverov, T. A. Keith, R. Kobayashi, J. Normand, 
 K. Raghavachari, A. P. Rendell, J. C. Burant, S. S. Iyengar, 
 J. Tomasi, M. Cossi, J. M. Millam, M. Klene, C. Adamo, R. Cammi, 
 J. W. Ochterski, R. L. Martin, K. Morokuma, O. Farkas, 
 J. B. Foresman, and D. J. Fox, Gaussian, Inc., Wallingford CT, 2016.
 
 ******************************************
 Gaussian 16:  ES64L-G16RevA.03 25-Dec-2016
                11-Feb-2020 
 ******************************************
 %chk=checkpoint.chk
 %mem=3GB
 %nprocshared=4
 Will use up to    4 processors via shared memory.
 ----------------------------------------
 #t pop=none jul-cc-pvdz guess=read ub97d
 ----------------------------------------
 ------------------------
 theory_abbreviation b97d
 ------------------------
 Symbolic Z-matrix:
 Charge =  0 Multiplicity = 6
 O                    -0.30979  -0.16538  -0.73762 
 C                    -1.19545  -1.09006  -0.61585 
 C                    -2.95159  -0.16246   0.33048 
 C                    -2.43628   1.00894  -0.14688 
 C                    -2.72599   1.50414  -1.52803 
 Fe                    1.4312    0.10227   0.01918 
 Cl                    2.05421   2.04544  -0.77189 
 C                    -1.56987   1.9117    0.66737 
 Cl                    2.56741  -1.63551  -0.6919 
 Cl                    1.20815   0.09224   2.21949 
 H                    -3.68419  -0.66659  -0.29637 
 H                    -2.18855   2.7516    1.01631 
 H                    -1.13131   1.43296   1.54161 
 H                    -0.76781   2.33943   0.05741 
 H                    -3.08418   2.53953  -1.46917 
 H                    -1.79763   1.53051  -2.11291 
 H                    -3.47807   0.90906  -2.05027 
 C                    -3.00275  -0.52489   1.79588 
 H                    -3.83252   0.0118    2.27378 
 H                    -3.18745  -1.59228   1.93866 
 H                    -2.08951  -0.26282   2.3349 
 C                    -0.97279  -2.16491   0.41743 
 H                    -1.83705  -2.82047   0.53215 
 H                    -0.13336  -2.76172   0.03202 
 H                    -0.66449  -1.75885   1.38013 
 C                    -1.83179  -1.55673  -1.90544 
 H                    -1.07096  -2.18134  -2.39317 
 H                    -2.7211   -2.16763  -1.74026 
 H                    -2.05166  -0.73055  -2.57927 
 
                    Distance matrix (angstroms):
                    1          2          3          4          5
     1  O    0.000000
     2  C    1.286180   0.000000
     3  C    2.849552   2.200000   0.000000
     4  C    2.499996   2.483020   1.365857   0.000000
     5  C    3.041395   3.147143   2.506487   1.495572   0.000000
     6  Fe   1.917147   2.953685   4.401802   3.975811   4.652029
     7  Cl   3.236880   4.518408   5.581038   4.650750   4.869812
     8  C    2.806439   3.285945   2.514908   1.492869   2.514461
     9  Cl   3.231348   3.802947   5.802967   5.685686   6.211004
    10  Cl   3.333923   3.900553   4.575662   4.440940   5.613811
    11  H    3.439839   2.544642   1.088022   2.094521   2.673429
    12  H    3.887771   4.290514   3.089383   2.109795   2.884205
    13  H    2.902502   3.320303   2.706588   2.175719   3.459881
    14  H    2.667570   3.521017   3.332099   2.143772   2.654399
    15  H    3.943220   4.179642   3.249158   2.123898   1.097180
    16  H    2.642186   3.077535   3.188716   2.131950   1.097562
    17  H    3.593810   3.356249   2.663325   2.172141   1.092003
    18  C    3.714823   3.066298   1.510426   2.539256   3.904092
    19  H    4.637842   4.064256   2.140754   2.967045   4.231459
    20  H    4.180842   3.278077   2.164782   3.417607   4.671048
    21  H    3.552083   3.192271   2.184257   2.810135   4.295289
    22  C    2.402457   1.507491   2.816561   3.540273   4.507817
    23  H    3.315765   2.173440   2.889274   3.935034   4.872041
    24  H    2.713747   2.083796   3.845472   4.421910   5.230013
    25  H    2.673916   2.170974   2.980111   3.623760   4.832626
    26  C    2.369831   1.511863   2.863086   3.168687   3.211068
    27  H    2.717410   2.089323   3.876976   4.133743   4.131633
    28  H    3.290696   2.180148   2.891675   3.565183   3.677898
    29  H    2.597152   2.171951   3.098267   3.015012   2.560016
                    6          7          8          9         10
     6  Fe   0.000000
     7  Cl   2.188562   0.000000
     8  C    3.563796   3.901703   0.000000
     9  Cl   2.194641   3.717408   5.616702   0.000000
    10  Cl   2.211613   3.671392   3.665641   3.648128   0.000000
    11  H    5.182468   6.364781   3.470841   6.338587   5.553410
    12  H    4.595190   4.658029   1.099971   6.692062   4.478548
    13  H    3.264203   3.984332   1.088954   5.299485   2.780313
    14  H    3.137189   2.955995   1.094675   5.242630   3.691725
    15  H    5.342670   5.208971   2.692974   7.069339   6.166001
    16  H    4.124444   4.110979   2.815522   5.576423   5.465626
    17  H    5.388367   5.790656   3.468731   6.698343   6.392084
    18  C    4.817669   6.226780   3.043622   6.200734   4.276910
    19  H    5.726974   6.932917   3.363000   7.243473   5.041608
    20  H    5.280896   6.932170   4.063323   6.327720   4.715692
    21  H    4.229808   5.670145   2.789126   5.721240   3.318725
    22  C    3.328348   5.320168   4.127676   3.747513   3.619207
    23  H    4.414409   6.365484   4.741633   4.722459   4.539186
    24  H    3.263505   5.342327   4.930322   3.014389   3.837936
    25  H    3.115752   5.147339   3.847165   3.841050   2.763667
    26  C    4.135643   5.418626   4.326425   4.564186   5.382875
    27  H    4.158747   5.500995   5.135062   4.053395   5.624963
    28  H    5.048734   6.441371   4.874724   5.417615   6.018775
    29  H    4.424465   5.275502   4.213589   5.071185   5.859309
                   11         12         13         14         15
    11  H    0.000000
    12  H    3.955259   0.000000
    13  H    3.781996   1.769884   0.000000
    14  H    4.203167   1.762915   1.776699   0.000000
    15  H    3.466225   2.650416   3.755395   2.781383   0.000000
    16  H    3.418512   3.381696   3.716052   2.534796   1.757201
    17  H    2.366721   3.802853   4.322427   3.719382   1.775179
    18  C    2.204981   3.464970   2.720315   4.027598   4.478599
    19  H    2.662302   3.433716   3.138843   4.441018   4.578111
    20  H    2.469614   4.551679   3.679324   4.985185   5.356847
    21  H    3.103162   3.291690   2.103126   3.702101   4.828406
    22  C    3.179013   5.099875   3.772743   4.523345   5.490807
    23  H    2.955934   5.604092   4.428176   5.290855   5.855784
    24  H    4.135912   5.965671   4.568382   5.140508   6.250133
    25  H    3.622462   4.774854   3.229809   4.307682   5.696444
    26  C    2.610142   5.217807   4.616390   4.490530   4.305600
    27  H    3.676960   6.099790   5.343162   5.151177   5.214741
    28  H    2.294659   5.664010   5.124681   5.230728   4.728918
    29  H    2.807297   5.007223   4.744422   4.245605   3.604427
                   16         17         18         19         20
    16  H    0.000000
    17  H    1.792763   0.000000
    18  C    4.577735   4.132197   0.000000
    19  H    5.068565   4.430366   1.097698   0.000000
    20  H    5.300817   4.717284   1.092620   1.761100   0.000000
    21  H    4.804612   4.746702   1.092351   1.765575   1.769161
    22  C    4.554019   4.670680   2.951359   4.045014   2.747138
    23  H    5.092045   4.824029   2.868023   3.877745   2.304411
    24  H    5.078755   5.384946   4.043265   5.138254   3.785542
    25  H    4.930034   5.177029   2.676368   3.737674   2.589403
    26  C    3.094393   2.968393   4.016913   4.891731   4.076293
    27  H    3.792685   3.932221   4.901410   5.849488   4.857089
    28  H    3.829870   3.183572   3.909245   4.700811   3.752727
[...]
 Nuclear repulsion after empirical dispersion term =     1647.4185198122 Hartrees.
 Initial guess from the checkpoint file:  "checkpoint.chk"
 B after Tr=     0.000000    0.000000    0.000000
         Rot=    1.000000    0.000000    0.000000    0.000000 Ang=   0.00 deg.
 Initial guess <Sx>= 0.0000 <Sy>= 0.0000 <Sz>= 2.5000 <S**2>= 8.7614 S= 2.5019
 SCF Done:  E(UM06L) =  -3034.19810599     A.U. after   17 cycles
            NFock= 17  Conv=0.91D-08     -V/T= 2.0020
 <Sx>= 0.0000 <Sy>= 0.0000 <Sz>= 2.5000 <S**2>= 8.7614 S= 2.5019
 <L.S>= 0.000000000000E+00
 Annihilation of the first spin contaminant:
 S**2 before annihilation     8.7614,   after     8.7500
 1\1\GINC-HOLY7C04309\SP\UM06L\Jul-CC-pVDZ\C8H16Cl3Fe1O1(6)\EKWAN\12-Fe
 b-2020\0\\#t pop=none jul-cc-pvdz guess=read um06l empiricaldispersion
 =gd3\\theory_abbreviation m06l_d3\\0,6\O,0,-0.309791,-0.165384,-0.7376
 24\C,0,-1.195454,-1.090063,-0.61585\C,0,-2.951589,-0.162455,0.330477\C
 ,0,-2.436284,1.008936,-0.146879\C,0,-2.725994,1.504139,-1.52803\Fe,0,1
 .431204,0.102273,0.019177\Cl,0,2.054206,2.045439,-0.771885\C,0,-1.5698
 72,1.911701,0.667372\Cl,0,2.567406,-1.635505,-0.691895\Cl,0,1.208152,0
 .09224,2.21949\H,0,-3.68419,-0.666594,-0.296365\H,0,-2.188547,2.751596
 ,1.016305\H,0,-1.13131,1.432963,1.541611\H,0,-0.767805,2.339426,0.0574
 11\H,0,-3.084184,2.539532,-1.469166\H,0,-1.79763,1.530511,-2.112913\H,
 0,-3.47807,0.909063,-2.050272\C,0,-3.002747,-0.524889,1.795882\H,0,-3.
 832522,0.011795,2.273779\H,0,-3.187447,-1.592277,1.938663\H,0,-2.08950
 6,-0.262822,2.334902\C,0,-0.972791,-2.164907,0.417426\H,0,-1.837046,-2
 .820467,0.53215\H,0,-0.13336,-2.761717,0.032019\H,0,-0.664492,-1.75885
 ,1.380129\C,0,-1.831788,-1.55673,-1.905435\H,0,-1.070962,-2.181344,-2.
 393173\H,0,-2.721104,-2.167627,-1.740258\H,0,-2.051661,-0.730552,-2.57
 9274\\Version=ES64L-G16RevA.03\HF=-3034.198106\S2=8.761431\S2-1=0.\S2A
 =8.750042\RMSD=9.068e-09\PG=C01 [X(C8H16Cl3Fe1O1)]\\@


 WE MIGHT AS WELL ATTEMPT TO INTRODUCE A NEW PLANET 
 INTO THE SOLAR SYSTEM, OR TO ANNIHILATE ONE ALREADYIN EXISTENCE, 
 AS TO CREATE OR DESTROY A PARTICLE OF HYDROGEN.
 ALL THE CHANGES WE CAN PRODUCE CONSIST IN SEPARATING PARTICLES
 THAT ARE IN A STATE OF ... COMBINATION, AND JOINING 
 THOSE THAT WERE PREVIOUSLY AT A DISTANCE.

                                    -- JOHN DALTON, 1810
 Job cpu time:       0 days  1 hours 13 minutes 43.1 seconds.
 Elapsed time:       0 days  0 hours 18 minutes 28.9 seconds.
 File lengths (MBytes):  RWF=    174 Int=      0 D2E=      0 Chk=     13 Scr=      1
 Normal termination of Gaussian 16 at Wed Feb 12 09:06:42 2020.
 Initial command:
 /n/sw/g16_nehalem/g16/l1.exe "/scratch/Gau-88258.inp" -scrdir="/scratch/"
 Entering Link 1 = /n/sw/g16_nehalem/g16/l1.exe PID=    141155.
  
 Copyright (c) 1988,1990,1992,1993,1995,1998,2003,2009,2016,
            Gaussian, Inc.  All Rights Reserved.
  
 This is part of the Gaussian(R) 16 program.  It is based on
 the Gaussian(R) 09 system (copyright 2009, Gaussian, Inc.),
 the Gaussian(R) 03 system (copyright 2003, Gaussian, Inc.),
 the Gaussian(R) 98 system (copyright 1998, Gaussian, Inc.),
 the Gaussian(R) 94 system (copyright 1995, Gaussian, Inc.),
 the Gaussian 92(TM) system (copyright 1992, Gaussian, Inc.),
 the Gaussian 90(TM) system (copyright 1990, Gaussian, Inc.),
 the Gaussian 88(TM) system (copyright 1988, Gaussian, Inc.),
 the Gaussian 86(TM) system (copyright 1986, Carnegie Mellon
 University), and the Gaussian 82(TM) system (copyright 1983,
 Carnegie Mellon University). Gaussian is a federally registered
 trademark of Gaussian, Inc.
  
 This software contains proprietary and confidential information,
 including trade secrets, belonging to Gaussian, Inc.
  
 This software is provided under written license and may be
 used, copied, transmitted, or stored only in accord with that
 written license.
  
 The following legend is applicable only to US Government
 contracts under FAR:
  
                    RESTRICTED RIGHTS LEGEND
  
 Use, reproduction and disclosure by the US Government is
 subject to restrictions as set forth in subparagraphs (a)
 and (c) of the Commercial Computer Software - Restricted
 Rights clause in FAR 52.227-19.
  
 Gaussian, Inc.
 340 Quinnipiac St., Bldg. 40, Wallingford CT 06492
  
  
 ---------------------------------------------------------------
 Warning -- This program may not be used in any manner that
 competes with the business of Gaussian, Inc. or will provide
 assistance to any competitor of Gaussian, Inc.  The licensee
 of this program is prohibited from giving any competitor of
 Gaussian, Inc. access to this program.  By using this program,
 the user acknowledges that Gaussian, Inc. is engaged in the
 business of creating and licensing software in the field of
 computational chemistry and represents and warrants to the
 licensee that it is not a competitor of Gaussian, Inc. and that
 it will not use this program in any manner prohibited above.
 ---------------------------------------------------------------
  

 Cite this work as:
 Gaussian 16, Revision A.03,
 M. J. Frisch, G. W. Trucks, H. B. Schlegel, G. E. Scuseria, 
 M. A. Robb, J. R. Cheeseman, G. Scalmani, V. Barone, 
 G. A. Petersson, H. Nakatsuji, X. Li, M. Caricato, A. V. Marenich, 
 J. Bloino, B. G. Janesko, R. Gomperts, B. Mennucci, H. P. Hratchian, 
 J. V. Ortiz, A. F. Izmaylov, J. L. Sonnenberg, D. Williams-Young, 
 F. Ding, F. Lipparini, F. Egidi, J. Goings, B. Peng, A. Petrone, 
 T. Henderson, D. Ranasinghe, V. G. Zakrzewski, J. Gao, N. Rega, 
 G. Zheng, W. Liang, M. Hada, M. Ehara, K. Toyota, R. Fukuda, 
 J. Hasegawa, M. Ishida, T. Nakajima, Y. Honda, O. Kitao, H. Nakai, 
 T. Vreven, K. Throssell, J. A. Montgomery, Jr., J. E. Peralta, 
 F. Ogliaro, M. J. Bearpark, J. J. Heyd, E. N. Brothers, K. N. Kudin, 
 V. N. Staroverov, T. A. Keith, R. Kobayashi, J. Normand, 
 K. Raghavachari, A. P. Rendell, J. C. Burant, S. S. Iyengar, 
 J. Tomasi, M. Cossi, J. M. Millam, M. Klene, C. Adamo, R. Cammi, 
 J. W. Ochterski, R. L. Martin, K. Morokuma, O. Farkas, 
 J. B. Foresman, and D. J. Fox, Gaussian, Inc., Wallingford CT, 2016.
 
 ******************************************
 Gaussian 16:  ES64L-G16RevA.03 25-Dec-2016
                12-Feb-2020 
 ******************************************
 %chk=checkpoint.chk
 %mem=3GB
 %nprocshared=4
 Will use up to    4 processors via shared memory.
 -------------------------------------------------------------------
 #t pop=none jul-cc-pvdz guess=read ub97d3 empiricaldispersion=gd3bj
 -------------------------------------------------------------------
 ------------------------------
 theory_abbreviation b97d3_d3bj
 ------------------------------
 Symbolic Z-matrix:
 Charge =  0 Multiplicity = 6
 O                    -0.30979  -0.16538  -0.73762 
 C                    -1.19545  -1.09006  -0.61585 
 C                    -2.95159  -0.16246   0.33048 
 C                    -2.43628   1.00894  -0.14688 
 C                    -2.72599   1.50414  -1.52803 
 Fe                    1.4312    0.10227   0.01918 
 Cl                    2.05421   2.04544  -0.77189 
 C                    -1.56987   1.9117    0.66737 
 Cl                    2.56741  -1.63551  -0.6919 
 Cl                    1.20815   0.09224   2.21949 
 H                    -3.68419  -0.66659  -0.29637 
 H                    -2.18855   2.7516    1.01631 
 H                    -1.13131   1.43296   1.54161 
 H                    -0.76781   2.33943   0.05741 
 H                    -3.08418   2.53953  -1.46917 
 H                    -1.79763   1.53051  -2.11291 
 H                    -3.47807   0.90906  -2.05027 
 C                    -3.00275  -0.52489   1.79588 
 H                    -3.83252   0.0118    2.27378 
 H                    -3.18745  -1.59228   1.93866 
 H                    -2.08951  -0.26282   2.3349 
 C                    -0.97279  -2.16491   0.41743 
 H                    -1.83705  -2.82047   0.53215 
 H                    -0.13336  -2.76172   0.03202 
 H                    -0.66449  -1.75885   1.38013 
 C                    -1.83179  -1.55673  -1.90544 
 H                    -1.07096  -2.18134  -2.39317 
 H                    -2.7211   -2.16763  -1.74026 
 H                    -2.05166  -0.73055  -2.57927 
 
                    Distance matrix (angstroms):
                    1          2          3          4          5
     1  O    0.000000
     2  C    1.286180   0.000000
     3  C    2.849552   2.200000   0.000000
     4  C    2.499996   2.483020   1.365857   0.000000
     5  C    3.041395   3.147143   2.506487   1.495572   0.000000
     6  Fe   1.917147   2.953685   4.401802   3.975811   4.652029
     7  Cl   3.236880   4.518408   5.581038   4.650750   4.869812
     8  C    2.806439   3.285945   2.514908   1.492869   2.514461
     9  Cl   3.231348   3.802947   5.802967   5.685686   6.211004
    10  Cl   3.333923   3.900553   4.575662   4.440940   5.613811
    11  H    3.439839   2.544642   1.088022   2.094521   2.673429
    12  H    3.887771   4.290514   3.089383   2.109795   2.884205
    13  H    2.902502   3.320303   2.706588   2.175719   3.459881
    14  H    2.667570   3.521017   3.332099   2.143772   2.654399
    15  H    3.943220   4.179642   3.249158   2.123898   1.097180
    16  H    2.642186   3.077535   3.188716   2.131950   1.097562
    17  H    3.593810   3.356249   2.663325   2.172141   1.092003
    18  C    3.714823   3.066298   1.510426   2.539256   3.904092
    19  H    4.637842   4.064256   2.140754   2.967045   4.231459
    20  H    4.180842   3.278077   2.164782   3.417607   4.671048
    21  H    3.552083   3.192271   2.184257   2.810135   4.295289
    22  C    2.402457   1.507491   2.816561   3.540273   4.507817
    23  H    3.315765   2.173440   2.889274   3.935034   4.872041
    24  H    2.713747   2.083796   3.845472   4.421910   5.230013
    25  H    2.673916   2.170974   2.980111   3.623760   4.832626
    26  C    2.369831   1.511863   2.863086   3.168687   3.211068
    27  H    2.717410   2.089323   3.876976   4.133743   4.131633
    28  H    3.290696   2.180148   2.891675   3.565183   3.677898
    29  H    2.597152   2.171951   3.098267   3.015012   2.560016
                    6          7          8          9         10
     6  Fe   0.000000
     7  Cl   2.188562   0.000000
     8  C    3.563796   3.901703   0.000000
     9  Cl   2.194641   3.717408   5.616702   0.000000
    10  Cl   2.211613   3.671392   3.665641   3.648128   0.000000
    11  H    5.182468   6.364781   3.470841   6.338587   5.553410
    12  H    4.595190   4.658029   1.099971   6.692062   4.478548
    13  H    3.264203   3.984332   1.088954   5.299485   2.780313
    14  H    3.137189   2.955995   1.094675   5.242630   3.691725
    15  H    5.342670   5.208971   2.692974   7.069339   6.166001
    16  H    4.124444   4.110979   2.815522   5.576423   5.465626
    17  H    5.388367   5.790656   3.468731   6.698343   6.392084
    18  C    4.817669   6.226780   3.043622   6.200734   4.276910
    19  H    5.726974   6.932917   3.363000   7.243473   5.041608
    20  H    5.280896   6.932170   4.063323   6.327720   4.715692
    21  H    4.229808   5.670145   2.789126   5.721240   3.318725
    22  C    3.328348   5.320168   4.127676   3.747513   3.619207
    23  H    4.414409   6.365484   4.741633   4.722459   4.539186
    24  H    3.263505   5.342327   4.930322   3.014389   3.837936
    25  H    3.115752   5.147339   3.847165   3.841050   2.763667
    26  C    4.135643   5.418626   4.326425   4.564186   5.382875
    27  H    4.158747   5.500995   5.135062   4.053395   5.624963
    28  H    5.048734   6.441371   4.874724   5.417615   6.018775
    29  H    4.424465   5.275502   4.213589   5.071185   5.859309
                   11         12         13         14         15
    11  H    0.000000
    12  H    3.955259   0.000000
    13  H    3.781996   1.769884   0.000000
    14  H    4.203167   1.762915   1.776699   0.000000
    15  H    3.466225   2.650416   3.755395   2.781383   0.000000
    16  H    3.418512   3.381696   3.716052   2.534796   1.757201
    17  H    2.366721   3.802853   4.322427   3.719382   1.775179
    18  C    2.204981   3.464970   2.720315   4.027598   4.478599
    19  H    2.662302   3.433716   3.138843   4.441018   4.578111
    20  H    2.469614   4.551679   3.679324   4.985185   5.356847
    21  H    3.103162   3.291690   2.103126   3.702101   4.828406
    22  C    3.179013   5.099875   3.772743   4.523345   5.490807
    23  H    2.955934   5.604092   4.428176   5.290855   5.855784
    24  H    4.135912   5.965671   4.568382   5.140508   6.250133
    25  H    3.622462   4.774854   3.229809   4.307682   5.696444
    26  C    2.610142   5.217807   4.616390   4.490530   4.305600
    27  H    3.676960   6.099790   5.343162   5.151177   5.214741
    28  H    2.294659   5.664010   5.124681   5.230728   4.728918
    29  H    2.807297   5.007223   4.744422   4.245605   3.604427
                   16         17         18         19         20
    16  H    0.000000
    17  H    1.792763   0.000000
    18  C    4.577735   4.132197   0.000000
    19  H    5.068565   4.430366   1.097698   0.000000
    20  H    5.300817   4.717284   1.092620   1.761100   0.000000
    21  H    4.804612   4.746702   1.092351   1.765575   1.769161
    22  C    4.554019   4.670680   2.951359   4.045014   2.747138
    23  H    5.092045   4.824029   2.868023   3.877745   2.304411
    24  H    5.078755   5.384946   4.043265   5.138254   3.785542
    25  H    4.930034   5.177029   2.676368   3.737674   2.589403
    26  C    3.094393   2.968393   4.016913   4.891731   4.076293
    27  H    3.792685   3.932221   4.901410   5.849488   4.857089
    28  H    3.829870   3.183572   3.909245   4.700811   3.752727
    29  H    2.322591   2.236699   4.482059   5.222516   4.737545
                   21         22         23         24         25
    21  H    0.000000
    22  C    2.922618   0.000000
    23  H    3.139299   1.090806   0.000000
    24  H    3.921002   1.099711   1.776550   0.000000
    25  H    2.276040   1.089370   1.794709   1.762170   0.000000
    26  C    4.440842   2.550184   2.745702   2.844359   3.492616
    27  H    5.203158   2.812361   3.090773   2.664111   3.818577
    28  H    4.542480   2.777086   2.524202   3.192229   3.759464
    29  H    4.936530   3.493071   3.754299   3.824181   4.319549
                   26         27         28         29
    26  C    0.000000
    27  H    1.098584   0.000000
    28  H    1.091495   1.774670   0.000000
    29  H    1.088565   1.761023   1.793680   0.000000
 Framework group  C1[X(C8H16Cl3FeO)]
 Deg. of freedom    81
                         Standard orientation:                         
 ---------------------------------------------------------------------
 Center     Atomic      Atomic             Coordinates (Angstroms)
 Number     Number       Type             X           Y           Z
 ---------------------------------------------------------------------
      1          8           0       -0.309791   -0.165384   -0.737624
      2          6           0       -1.195454   -1.090063   -0.615850
      3          6           0       -2.951589   -0.162455    0.330477
      4          6           0       -2.436284    1.008936   -0.146879
      5          6           0       -2.725994    1.504139   -1.528030
      6         26           0        1.431204    0.102273    0.019177
      7         17           0        2.054206    2.045439   -0.771885
      8          6           0       -1.569872    1.911701    0.667372
      9         17           0        2.567406   -1.635505   -0.691895
     10         17           0        1.208152    0.092240    2.219490
     11          1           0       -3.684190   -0.666594   -0.296365
     12          1           0       -2.188547    2.751596    1.016305
     13          1           0       -1.131310    1.432963    1.541611
     14          1           0       -0.767805    2.339426    0.057411
     15          1           0       -3.084184    2.539532   -1.469166
     16          1           0       -1.797630    1.530511   -2.112913
     17          1           0       -3.478070    0.909063   -2.050272
     18          6           0       -3.002747   -0.524889    1.795882
     19          1           0       -3.832522    0.011795    2.273779
     20          1           0       -3.187447   -1.592277    1.938663
     21          1           0       -2.089506   -0.262822    2.334902
     22          6           0       -0.972791   -2.164907    0.417426
     23          1           0       -1.837046   -2.820467    0.532150
     24          1           0       -0.133360   -2.761717    0.032019
     25          1           0       -0.664492   -1.758850    1.380129
     26          6           0       -1.831788   -1.556730   -1.905435
     27          1           0       -1.070962   -2.181344   -2.393173
     28          1           0       -2.721104   -2.167627   -1.740258
     29          1           0       -2.051661   -0.730552   -2.579274
 ---------------------------------------------------------------------
 Rotational constants (GHZ):           0.5786224           0.3390858           0.3186941
   427 basis functions,  1056 primitive gaussians,   461 cartesian basis functions
    77 alpha electrons       72 beta electrons
       nuclear repulsion energy      1647.4209547101 Hartrees.
 NAtoms=   29 NActive=   29 NUniq=   29 SFac= 1.00D+00 NAtFMM=   60 NAOKFM=F Big=F
 Nuclear repulsion after empirical dispersion term =     1647.3172427006 Hartrees.
 Initial guess from the checkpoint file:  "checkpoint.chk"
 B after Tr=     0.000000    0.000000    0.000000
         Rot=    1.000000    0.000000    0.000000    0.000000 Ang=   0.00 deg.
 Initial guess <Sx>= 0.0000 <Sy>= 0.0000 <Sz>= 2.5000 <S**2>= 8.7614 S= 2.5019
 EnCoef did     2 forward-backward iterations
 SCF Done:  E(UB97D3) =  -3034.62038428     A.U. after   15 cycles
            NFock= 15  Conv=0.86D-08     -V/T= 2.0019
 <Sx>= 0.0000 <Sy>= 0.0000 <Sz>= 2.5000 <S**2>= 8.7595 S= 2.5016
 <L.S>= 0.000000000000E+00
 Annihilation of the first spin contaminant:
 S**2 before annihilation     8.7595,   after     8.7500
 1\1\GINC-HOLY7C04309\SP\UB97D3\Jul-CC-pVDZ\C8H16Cl3Fe1O1(6)\EKWAN\12-F
 eb-2020\0\\#t pop=none jul-cc-pvdz guess=read ub97d3 empiricaldispersi
 on=gd3bj\\theory_abbreviation b97d3_d3bj\\0,6\O,0,-0.309791,-0.165384,
 -0.737624\C,0,-1.195454,-1.090063,-0.61585\C,0,-2.951589,-0.162455,0.3
 30477\C,0,-2.436284,1.008936,-0.146879\C,0,-2.725994,1.504139,-1.52803
 \Fe,0,1.431204,0.102273,0.019177\Cl,0,2.054206,2.045439,-0.771885\C,0,
 -1.569872,1.911701,0.667372\Cl,0,2.567406,-1.635505,-0.691895\Cl,0,1.2
 08152,0.09224,2.21949\H,0,-3.68419,-0.666594,-0.296365\H,0,-2.188547,2
 .751596,1.016305\H,0,-1.13131,1.432963,1.541611\H,0,-0.767805,2.339426
 ,0.057411\H,0,-3.084184,2.539532,-1.469166\H,0,-1.79763,1.530511,-2.11
 2913\H,0,-3.47807,0.909063,-2.050272\C,0,-3.002747,-0.524889,1.795882\
 H,0,-3.832522,0.011795,2.273779\H,0,-3.187447,-1.592277,1.938663\H,0,-
 2.089506,-0.262822,2.334902\C,0,-0.972791,-2.164907,0.417426\H,0,-1.83
 7046,-2.820467,0.53215\H,0,-0.13336,-2.761717,0.032019\H,0,-0.664492,-
 1.75885,1.380129\C,0,-1.831788,-1.55673,-1.905435\H,0,-1.070962,-2.181
 344,-2.393173\H,0,-2.721104,-2.167627,-1.740258\H,0,-2.051661,-0.73055
 2,-2.579274\\Version=ES64L-G16RevA.03\HF=-3034.6203843\S2=8.759474\S2-
 1=0.\S2A=8.750029\RMSD=8.635e-09\PG=C01 [X(C8H16Cl3Fe1O1)]\\@


 THE ONLY EXISTING THINGS ARE ATOMS AND EMPTY SPACE;
 ALL ELSE IS MERE OPINION. -- DEMOCRITUS OF ABDERA D. 370 B.C.
 EXPERIMENTS ARE THE ONLY MEANS OF KNOWLEDGE AT OUR DISPOSAL
 THE REST IS POETRY, IMAGINATION. -- MAX PLANCK
 Job cpu time:       0 days  0 hours 47 minutes 36.8 seconds.
 Elapsed time:       0 days  0 hours 12 minutes  8.2 seconds.
 File lengths (MBytes):  RWF=    174 Int=      0 D2E=      0 Chk=     13 Scr=      1
 Normal termination of Gaussian 16 at Wed Feb 12 09:19:02 2020.
