 Entering Gaussian System, Link 0=g16
 Input=simple-grid-210-255-b3lyp_d3bj-631gd-gas-singlepoint-DFT-juldz2-gas.gjf
 Output=simple-grid-210-255-b3lyp_d3bj-631gd-gas-singlepoint-DFT-juldz2-gas.out
 Initial command:
 /n/sw/g16_nehalem/g16/l1.exe "/scratch/Gau-425460.inp" -scrdir="/scratch/"
 Entering Link 1 = /n/sw/g16_nehalem/g16/l1.exe PID=    425477.
  
 Copyright (c) 1988,1990,1992,1993,1995,1998,2003,2009,2016,
            Gaussian, Inc.  All Rights Reserved.
  
 This is part of the Gaussian(R) 16 program.  It is based on
 the Gaussian(R) 09 system (copyright 2009, Gaussian, Inc.),
 the Gaussian(R) 03 system (copyright 2003, Gaussian, Inc.),
 the Gaussian(R) 98 system (copyright 1998, Gaussian, Inc.),
 the Gaussian(R) 94 system (copyright 1995, Gaussian, Inc.),
 the Gaussian 92(TM) system (copyright 1992, Gaussian, Inc.),
 the Gaussian 90(TM) system (copyright 1990, Gaussian, Inc.),
 the Gaussian 88(TM) system (copyright 1988, Gaussian, Inc.),
 the Gaussian 86(TM) system (copyright 1986, Carnegie Mellon
 University), and the Gaussian 82(TM) system (copyright 1983,
 Carnegie Mellon University). Gaussian is a federally registered
 trademark of Gaussian, Inc.
  
 This software contains proprietary and confidential information,
 including trade secrets, belonging to Gaussian, Inc.
  
 This software is provided under written license and may be
 used, copied, transmitted, or stored only in accord with that
 written license.
  
 The following legend is applicable only to US Government
 contracts under FAR:
  
                    RESTRICTED RIGHTS LEGEND
  
 Use, reproduction and disclosure by the US Government is
 subject to restrictions as set forth in subparagraphs (a)
 and (c) of the Commercial Computer Software - Restricted
 Rights clause in FAR 52.227-19.
  
 Gaussian, Inc.
 340 Quinnipiac St., Bldg. 40, Wallingford CT 06492
  
  
 ---------------------------------------------------------------
 Warning -- This program may not be used in any manner that
 competes with the business of Gaussian, Inc. or will provide
 assistance to any competitor of Gaussian, Inc.  The licensee
 of this program is prohibited from giving any competitor of
 Gaussian, Inc. access to this program.  By using this program,
 the user acknowledges that Gaussian, Inc. is engaged in the
 business of creating and licensing software in the field of
 computational chemistry and represents and warrants to the
 licensee that it is not a competitor of Gaussian, Inc. and that
 it will not use this program in any manner prohibited above.
 ---------------------------------------------------------------
  

 Cite this work as:
 Gaussian 16, Revision A.03,
 M. J. Frisch, G. W. Trucks, H. B. Schlegel, G. E. Scuseria, 
 M. A. Robb, J. R. Cheeseman, G. Scalmani, V. Barone, 
 G. A. Petersson, H. Nakatsuji, X. Li, M. Caricato, A. V. Marenich, 
 J. Bloino, B. G. Janesko, R. Gomperts, B. Mennucci, H. P. Hratchian, 
 J. V. Ortiz, A. F. Izmaylov, J. L. Sonnenberg, D. Williams-Young, 
 F. Ding, F. Lipparini, F. Egidi, J. Goings, B. Peng, A. Petrone, 
 T. Henderson, D. Ranasinghe, V. G. Zakrzewski, J. Gao, N. Rega, 
 G. Zheng, W. Liang, M. Hada, M. Ehara, K. Toyota, R. Fukuda, 
 J. Hasegawa, M. Ishida, T. Nakajima, Y. Honda, O. Kitao, H. Nakai, 
 T. Vreven, K. Throssell, J. A. Montgomery, Jr., J. E. Peralta, 
 F. Ogliaro, M. J. Bearpark, J. J. Heyd, E. N. Brothers, K. N. Kudin, 
 V. N. Staroverov, T. A. Keith, R. Kobayashi, J. Normand, 
 K. Raghavachari, A. P. Rendell, J. C. Burant, S. S. Iyengar, 
 J. Tomasi, M. Cossi, J. M. Millam, M. Klene, C. Adamo, R. Cammi, 
 J. W. Ochterski, R. L. Martin, K. Morokuma, O. Farkas, 
 J. B. Foresman, and D. J. Fox, Gaussian, Inc., Wallingford CT, 2016.
 
 ******************************************
 Gaussian 16:  ES64L-G16RevA.03 25-Dec-2016
                11-Feb-2020 
 ******************************************
 %chk=checkpoint.chk
 %mem=3GB
 %nprocshared=4
 Will use up to    4 processors via shared memory.
 --------------------------------
 #t pop=none jul-cc-pvdz upbe1pbe
 --------------------------------
 ------------------------
 theory_abbreviation pbe0
 ------------------------
 Symbolic Z-matrix:
 Charge =  0 Multiplicity = 6
 O                    -0.30994  -0.18105  -0.74621 
 C                    -1.2103   -1.10125  -0.60182 
 C                    -2.83138  -0.24856   0.42533 
 C                    -2.49127   0.97283  -0.10365 
 C                    -2.96173   1.41674  -1.45026 
 Fe                    1.42125   0.11767  -0.00671 
 Cl                    2.00153   2.07843  -0.79626 
 C                    -1.60749   1.94342   0.60032 
 Cl                    2.61781  -1.58694  -0.6981 
 Cl                    1.18754   0.1223    2.19803 
 H                    -3.60487  -0.80211  -0.10373 
 H                    -2.22357   2.7962    0.92141 
 H                    -1.10974   1.53363   1.47722 
 H                    -0.85027   2.34141  -0.0845 
 H                    -3.39819   2.41981  -1.3655 
 H                    -2.10178   1.51242  -2.12647 
 H                    -3.70597   0.74983  -1.88936 
 C                    -2.72508  -0.55575   1.90457 
 H                    -3.49961   0.00071   2.44679 
 H                    -2.89297  -1.61684   2.10031 
 H                    -1.75832  -0.28086   2.33171 
 C                    -0.91084  -2.23118   0.3591 
 H                    -1.7648   -2.89557   0.50279 
 H                    -0.10122  -2.80268  -0.11573 
 H                    -0.53655  -1.87488   1.31789 
 C                    -1.87127  -1.54596  -1.89243 
 H                    -1.12172  -2.15997  -2.40828 
 H                    -2.75833  -2.15993  -1.72312 
 H                    -2.10583  -0.70816  -2.5466 
 
                    Distance matrix (angstroms):
                    1          2          3          4          5
     1  O    0.000000
     2  C    1.295475   0.000000
     3  C    2.781133   2.100001   0.000000
     4  C    2.550000   2.488138   1.373776   0.000000
     5  C    3.174997   3.182391   2.511578   1.493911   0.000000
     6  Fe   1.906071   2.960565   4.290180   4.006058   4.793949
     7  Cl   3.232744   4.523713   5.501287   4.678389   5.049707
     8  C    2.830215   3.297404   2.516604   1.489526   2.513216
     9  Cl   3.248167   3.860000   5.722504   5.745301   6.381155
    10  Cl   3.317077   3.884047   4.408141   4.422072   5.674685
    11  H    3.413950   2.464051   1.088401   2.095354   2.673957
    12  H    3.912409   4.305467   3.144216   2.108818   2.841242
    13  H    2.919492   3.357837   2.691972   2.173078   3.466080
    14  H    2.663193   3.499871   3.300399   2.136880   2.679288
    15  H    4.084762   4.215201   3.263205   2.123333   1.097195
    16  H    2.825539   3.154454   3.185128   2.129484   1.098149
    17  H    3.702203   3.363419   2.668225   2.171170   1.091538
    18  C    3.605538   2.978941   1.514544   2.534594   3.898930
    19  H    4.516881   3.968528   2.143587   2.909719   4.181082
    20  H    4.103192   3.224701   2.163690   3.424199   4.670531
    21  H    3.403134   3.094984   2.187877   2.835472   4.316637
    22  C    2.405369   1.513199   2.761096   3.602433   4.559299
    23  H    3.323437   2.178812   2.854872   3.982465   4.882936
    24  H    2.704448   2.088357   3.777582   4.468443   5.269444
    25  H    2.679723   2.176631   2.950911   3.735124   4.937505
    26  C    2.369511   1.516692   2.824373   3.150945   3.187821
    27  H    2.708805   2.095728   3.821755   4.123283   4.134770
    28  H    3.296201   2.185070   2.876543   3.536689   3.592822
    29  H    2.597013   2.176849   3.093537   2.990363   2.539623
                    6          7          8          9         10
     6  Fe   0.000000
     7  Cl   2.191959   0.000000
     8  C    3.588191   3.872167   0.000000
     9  Cl   2.194417   3.718112   5.657075   0.000000
    10  Cl   2.217105   3.668081   3.698828   3.654419   0.000000
    11  H    5.110510   6.341044   3.467444   6.300081   5.396279
    12  H    4.617431   4.617042   1.099952   6.728576   4.518313
    13  H    3.257749   3.891729   1.088415   5.325845   2.790858
    14  H    3.179763   2.951025   1.095786   5.275988   3.779824
    15  H    5.511187   5.440367   2.701482   7.258910   6.245495
    16  H    4.341714   4.350519   2.804547   5.824162   5.608334
    17  H    5.498393   5.961172   3.467961   6.846148   6.406785
    18  C    4.615033   6.047662   3.032484   6.031889   3.981757
    19  H    5.499834   6.715414   3.280806   7.059303   4.695312
    20  H    5.104955   6.782422   4.071594   6.180672   4.436742
    21  H    3.966950   5.430183   2.822744   5.480520   2.976315
    22  C    3.330095   5.328174   4.239195   3.739529   3.650167
    23  H    4.414760   6.372866   4.842532   4.728837   4.549470
    24  H    3.295184   5.358161   5.030616   3.034844   3.945873
    25  H    3.091568   5.151710   4.030046   3.754608   2.781338
    26  C    4.142983   5.416309   4.296415   4.645426   5.373204
    27  H    4.173950   5.506117   5.111311   4.151765   5.635561
    28  H    5.059880   6.440420   4.853893   5.502897   6.012807
    29  H    4.424173   5.263000   4.145151   5.148011   5.835018
                   11         12         13         14         15
    11  H    0.000000
    12  H    3.988331   0.000000
    13  H    3.765738   1.773030   0.000000
    14  H    4.179700   1.761999   1.777307   0.000000
    15  H    3.466342   2.598341   3.755450   2.852893   0.000000
    16  H    3.421668   3.309463   3.737812   2.534394   1.755881
    17  H    2.367947   3.779627   4.323030   3.734383   1.777074
    18  C    2.206363   3.528984   2.675341   3.983071   4.472185
    19  H    2.675961   3.430718   3.000225   4.348018   4.516177
    20  H    2.455278   4.616582   3.673361   4.961223   5.344305
    21  H    3.100461   3.416681   2.107880   3.679525   4.863348
    22  C    3.084519   5.226281   3.932370   4.594452   5.549128
    23  H    2.852425   5.725559   4.582188   5.348573   5.866153
    24  H    4.034608   6.076808   4.728450   5.198438   6.301303
    25  H    3.547744   4.982197   3.460041   4.454463   5.816698
    26  C    2.599640   5.186159   4.628001   4.407121   4.282113
    27  H    3.649768   6.071626   5.360970   5.073075   5.219595
    28  H    2.276557   5.642940   5.157752   5.156336   4.638031
    29  H    2.867667   4.931682   4.712635   4.115604   3.584600
                   16         17         18         19         20
    16  H    0.000000
    17  H    1.791977   0.000000
    18  C    4.573313   4.130447   0.000000
    19  H    5.015368   4.405213   1.097064   0.000000
    20  H    5.318265   4.709510   1.091971   1.761964   0.000000
    21  H    4.817595   4.761622   1.092078   1.767657   1.768001
    22  C    4.648755   4.664188   2.913245   4.005184   2.708890
    23  H    5.143635   4.772779   2.891694   3.895788   2.336668
    24  H    5.163863   5.362864   4.001872   5.096529   3.756459
    25  H    5.078133   5.217351   2.621824   3.684019   2.496300
    26  C    3.075975   2.938837   4.015813   4.885951   4.121999
    27  H    3.811356   3.926141   4.872885   5.821910   4.874396
    28  H    3.752321   3.064692   3.966690   4.754574   3.864151
    29  H    2.259975   2.262324   4.496620   5.232492   4.799896
                   21         22         23         24         25
    21  H    0.000000
    22  C    2.900546   0.000000
    23  H    3.190883   1.091472   0.000000
    24  H    3.885302   1.098897   1.777274   0.000000
    25  H    2.249772   1.089187   1.792988   1.762272   0.000000
    26  C    4.410967   2.541915   2.751338   2.805194   3.492256
    27  H    5.138469   2.776313   3.070664   2.590420   3.782599
    28  H    4.579581   2.784584   2.546158   3.171290   3.776943
    29  H    4.909299   3.491509   3.768264   3.783467   4.331068
                   26         27         28         29
    26  C    0.000000
    27  H    1.097701   0.000000
    28  H    1.092014   1.774249   0.000000
    29  H    1.088515   1.759372   1.792069   0.000000
 Framework group  C1[X(C8H16Cl3FeO)]
 Deg. of freedom    81
                         Standard orientation:                         
 ---------------------------------------------------------------------
 Center     Atomic      Atomic             Coordinates (Angstroms)
 Number     Number       Type             X           Y           Z
 ---------------------------------------------------------------------
      1          8           0       -0.309942   -0.181048   -0.746206
      2          6           0       -1.210300   -1.101245   -0.601815
      3          6           0       -2.831381   -0.248555    0.425327
      4          6           0       -2.491269    0.972827   -0.103645
      5          6           0       -2.961732    1.416738   -1.450262
      6         26           0        1.421250    0.117667   -0.006714
      7         17           0        2.001532    2.078425   -0.796261
      8          6           0       -1.607487    1.943421    0.600318
      9         17           0        2.617810   -1.586943   -0.698100
     10         17           0        1.187535    0.122298    2.198033
     11          1           0       -3.604873   -0.802108   -0.103734
     12          1           0       -2.223567    2.796204    0.921413
     13          1           0       -1.109740    1.533628    1.477224
     14          1           0       -0.850272    2.341409   -0.084501
     15          1           0       -3.398192    2.419811   -1.365498
     16          1           0       -2.101782    1.512422   -2.126474
     17          1           0       -3.705967    0.749830   -1.889355
     18          6           0       -2.725075   -0.555753    1.904574
     19          1           0       -3.499606    0.000712    2.446789
     20          1           0       -2.892972   -1.616837    2.100309
     21          1           0       -1.758317   -0.280858    2.331710
     22          6           0       -0.910841   -2.231177    0.359095
     23          1           0       -1.764799   -2.895572    0.502786
     24          1           0       -0.101216   -2.802684   -0.115734
     25          1           0       -0.536546   -1.874883    1.317889
     26          6           0       -1.871274   -1.545962   -1.892433
     27          1           0       -1.121717   -2.159974   -2.408282
     28          1           0       -2.758332   -2.159929   -1.723117
     29          1           0       -2.105835   -0.708157   -2.546595
 ---------------------------------------------------------------------
 Rotational constants (GHZ):           0.5779120           0.3412822           0.3198839
   427 basis functions,  1056 primitive gaussians,   461 cartesian basis functions
    77 alpha electrons       72 beta electrons
       nuclear repulsion energy      1648.9475058180 Hartrees.
 NAtoms=   29 NActive=   29 NUniq=   29 SFac= 1.00D+00 NAtFMM=   60 NAOKFM=F Big=F
 ExpMin= 1.40D-02 ExpMax= 4.32D+06 ExpMxC= 4.91D+03 IAcc=3 IRadAn=         5 AccDes= 0.00D+00
 Harris functional with IExCor= 1009 and IRadAn=       5 diagonalized for initial guess.
 HarFok:  IExCor= 1009 AccDes= 0.00D+00 IRadAn=         5 IDoV= 1 UseB2=F ITyADJ=14
 ICtDFT=  3500011 ScaDFX=  1.000000  1.000000  1.000000  1.000000
 FoFCou: FMM=F IPFlag=           0 FMFlag=      100000 FMFlg1=           0
         NFxFlg=           0 DoJE=T BraDBF=F KetDBF=T FulRan=T
         wScrn=  0.000000 ICntrl=       500 IOpCl=  0 I1Cent=   200000004 NGrid=           0
         NMat0=    1 NMatS0=      1 NMatT0=    0 NMatD0=    1 NMtDS0=    0 NMtDT0=    0
 Petite list used in FoFCou.
 Initial guess <Sx>= 0.0000 <Sy>= 0.0000 <Sz>= 2.5000 <S**2>= 8.7500 S= 2.5000
 EnCoef did     3 forward-backward iterations
 Restarting incremental Fock formation.
 SCF Done:  E(UPBE1PBE) =  -3033.11341080     A.U. after   21 cycles
            NFock= 21  Conv=0.49D-08     -V/T= 2.0021
 <Sx>= 0.0000 <Sy>= 0.0000 <Sz>= 2.5000 <S**2>= 8.7623 S= 2.5021
 <L.S>= 0.000000000000E+00
 Annihilation of the first spin contaminant:
 S**2 before annihilation     8.7623,   after     8.7500
 1\1\GINC-HOLY7C08610\SP\UPBE1PBE\Jul-CC-pVDZ\C8H16Cl3Fe1O1(6)\EKWAN\11
 -Feb-2020\0\\#t pop=none jul-cc-pvdz upbe1pbe\\theory_abbreviation pbe
 0\\0,6\O,0,-0.309942,-0.181048,-0.746206\C,0,-1.2103,-1.101245,-0.6018
 15\C,0,-2.831381,-0.248555,0.425327\C,0,-2.491269,0.972827,-0.103645\C
 ,0,-2.961732,1.416738,-1.450262\Fe,0,1.42125,0.117667,-0.006714\Cl,0,2
 .001532,2.078425,-0.796261\C,0,-1.607487,1.943421,0.600318\Cl,0,2.6178
 1,-1.586943,-0.6981\Cl,0,1.187535,0.122298,2.198033\H,0,-3.604873,-0.8
 02108,-0.103734\H,0,-2.223567,2.796204,0.921413\H,0,-1.10974,1.533628,
 1.477224\H,0,-0.850272,2.341409,-0.084501\H,0,-3.398192,2.419811,-1.36
 5498\H,0,-2.101782,1.512422,-2.126474\H,0,-3.705967,0.749829,-1.889355
 \C,0,-2.725075,-0.555753,1.904574\H,0,-3.499606,0.000712,2.446789\H,0,
 -2.892972,-1.616837,2.100309\H,0,-1.758317,-0.280858,2.33171\C,0,-0.91
 0841,-2.231177,0.359095\H,0,-1.764799,-2.895572,0.502786\H,0,-0.101216
 ,-2.802684,-0.115734\H,0,-0.536546,-1.874883,1.317889\C,0,-1.871274,-1
 .545962,-1.892433\H,0,-1.121717,-2.159974,-2.408282\H,0,-2.758332,-2.1
 59929,-1.723117\H,0,-2.105835,-0.708157,-2.546595\\Version=ES64L-G16Re
 vA.03\HF=-3033.1134108\S2=8.762329\S2-1=0.\S2A=8.750047\RMSD=4.904e-09
 \PG=C01 [X(C8H16Cl3Fe1O1)]\\@


 MODELS ARE TO BE USED, NOT BELIEVED.

    -- PARAPHRASED BY H. THIEL IN "PRINCIPLES OF ECONOMETRICS"
 Job cpu time:       0 days  1 hours 32 minutes 18.8 seconds.
 Elapsed time:       0 days  0 hours 23 minutes  9.6 seconds.
 File lengths (MBytes):  RWF=    173 Int=      0 D2E=      0 Chk=     13 Scr=      1
 Normal termination of Gaussian 16 at Tue Feb 11 13:59:54 2020.
 Initial command:
 /n/sw/g16_nehalem/g16/l1.exe "/scratch/Gau-425460.inp" -scrdir="/scratch/"
 Entering Link 1 = /n/sw/g16_nehalem/g16/l1.exe PID=    427401.
  
 Copyright (c) 1988,1990,1992,1993,1995,1998,2003,2009,2016,
            Gaussian, Inc.  All Rights Reserved.
  
 This is part of the Gaussian(R) 16 program.  It is based on
 the Gaussian(R) 09 system (copyright 2009, Gaussian, Inc.),
 the Gaussian(R) 03 system (copyright 2003, Gaussian, Inc.),
 the Gaussian(R) 98 system (copyright 1998, Gaussian, Inc.),
 the Gaussian(R) 94 system (copyright 1995, Gaussian, Inc.),
 the Gaussian 92(TM) system (copyright 1992, Gaussian, Inc.),
 the Gaussian 90(TM) system (copyright 1990, Gaussian, Inc.),
 the Gaussian 88(TM) system (copyright 1988, Gaussian, Inc.),
 the Gaussian 86(TM) system (copyright 1986, Carnegie Mellon
 University), and the Gaussian 82(TM) system (copyright 1983,
 Carnegie Mellon University). Gaussian is a federally registered
 trademark of Gaussian, Inc.
  
 This software contains proprietary and confidential information,
 including trade secrets, belonging to Gaussian, Inc.
  
 This software is provided under written license and may be
 used, copied, transmitted, or stored only in accord with that
 written license.
  
 The following legend is applicable only to US Government
 contracts under FAR:
  
                    RESTRICTED RIGHTS LEGEND
  
 Use, reproduction and disclosure by the US Government is
 subject to restrictions as set forth in subparagraphs (a)
 and (c) of the Commercial Computer Software - Restricted
 Rights clause in FAR 52.227-19.
  
 Gaussian, Inc.
 340 Quinnipiac St., Bldg. 40, Wallingford CT 06492
  
  
 ---------------------------------------------------------------
 Warning -- This program may not be used in any manner that
 competes with the business of Gaussian, Inc. or will provide
 assistance to any competitor of Gaussian, Inc.  The licensee
 of this program is prohibited from giving any competitor of
 Gaussian, Inc. access to this program.  By using this program,
 the user acknowledges that Gaussian, Inc. is engaged in the
 business of creating and licensing software in the field of
 computational chemistry and represents and warrants to the
 licensee that it is not a competitor of Gaussian, Inc. and that
 it will not use this program in any manner prohibited above.
 ---------------------------------------------------------------
  

 Cite this work as:
 Gaussian 16, Revision A.03,
 M. J. Frisch, G. W. Trucks, H. B. Schlegel, G. E. Scuseria, 
 M. A. Robb, J. R. Cheeseman, G. Scalmani, V. Barone, 
 G. A. Petersson, H. Nakatsuji, X. Li, M. Caricato, A. V. Marenich, 
 J. Bloino, B. G. Janesko, R. Gomperts, B. Mennucci, H. P. Hratchian, 
 J. V. Ortiz, A. F. Izmaylov, J. L. Sonnenberg, D. Williams-Young, 
 F. Ding, F. Lipparini, F. Egidi, J. Goings, B. Peng, A. Petrone, 
 T. Henderson, D. Ranasinghe, V. G. Zakrzewski, J. Gao, N. Rega, 
 G. Zheng, W. Liang, M. Hada, M. Ehara, K. Toyota, R. Fukuda, 
 J. Hasegawa, M. Ishida, T. Nakajima, Y. Honda, O. Kitao, H. Nakai, 
 T. Vreven, K. Throssell, J. A. Montgomery, Jr., J. E. Peralta, 
 F. Ogliaro, M. J. Bearpark, J. J. Heyd, E. N. Brothers, K. N. Kudin, 
 V. N. Staroverov, T. A. Keith, R. Kobayashi, J. Normand, 
 K. Raghavachari, A. P. Rendell, J. C. Burant, S. S. Iyengar, 
 J. Tomasi, M. Cossi, J. M. Millam, M. Klene, C. Adamo, R. Cammi, 
 J. W. Ochterski, R. L. Martin, K. Morokuma, O. Farkas, 
 J. B. Foresman, and D. J. Fox, Gaussian, Inc., Wallingford CT, 2016.
 
 ******************************************
 Gaussian 16:  ES64L-G16RevA.03 25-Dec-2016
                11-Feb-2020 
 ******************************************
 %chk=checkpoint.chk
 %mem=3GB
 %nprocshared=4
 Will use up to    4 processors via shared memory.
 ---------------------------------------------------------------------
 #t pop=none jul-cc-pvdz guess=read upbe1pbe empiricaldispersion=gd3bj
 ---------------------------------------------------------------------
 -----------------------------
 theory_abbreviation pbe0_d3bj
 -----------------------------
 Symbolic Z-matrix:
 Charge =  0 Multiplicity = 6
 O                    -0.30994  -0.18105  -0.74621 
 C                    -1.2103   -1.10125  -0.60182 
 C                    -2.83138  -0.24856   0.42533 
 C                    -2.49127   0.97283  -0.10365 
 C                    -2.96173   1.41674  -1.45026 
 Fe                    1.42125   0.11767  -0.00671 
 Cl                    2.00153   2.07843  -0.79626 
 C                    -1.60749   1.94342   0.60032 
 Cl                    2.61781  -1.58694  -0.6981 
 Cl                    1.18754   0.1223    2.19803 
 H                    -3.60487  -0.80211  -0.10373 
 H                    -2.22357   2.7962    0.92141 
 H                    -1.10974   1.53363   1.47722 
 H                    -0.85027   2.34141  -0.0845 
 H                    -3.39819   2.41981  -1.3655 
 H                    -2.10178   1.51242  -2.12647 
 H                    -3.70597   0.74983  -1.88936 
 C                    -2.72508  -0.55575   1.90457 
 H                    -3.49961   0.00071   2.44679 
 H                    -2.89297  -1.61684   2.10031 
 H                    -1.75832  -0.28086   2.33171 
 C                    -0.91084  -2.23118   0.3591 
 H                    -1.7648   -2.89557   0.50279 
 H                    -0.10122  -2.80268  -0.11573 
 H                    -0.53655  -1.87488   1.31789 
 C                    -1.87127  -1.54596  -1.89243 
 H                    -1.12172  -2.15997  -2.40828 
 H                    -2.75833  -2.15993  -1.72312 
 H                    -2.10583  -0.70816  -2.5466 
 
                    Distance matrix (angstroms):
                    1          2          3          4          5
     1  O    0.000000
     2  C    1.295475   0.000000
     3  C    2.781133   2.100001   0.000000
     4  C    2.550000   2.488138   1.373776   0.000000
     5  C    3.174997   3.182391   2.511578   1.493911   0.000000
     6  Fe   1.906071   2.960565   4.290180   4.006058   4.793949
     7  Cl   3.232744   4.523713   5.501287   4.678389   5.049707
     8  C    2.830215   3.297404   2.516604   1.489526   2.513216
     9  Cl   3.248167   3.860000   5.722504   5.745301   6.381155
    10  Cl   3.317077   3.884047   4.408141   4.422072   5.674685
    11  H    3.413950   2.464051   1.088401   2.095354   2.673957
    12  H    3.912409   4.305467   3.144216   2.108818   2.841242
    13  H    2.919492   3.357837   2.691972   2.173078   3.466080
    14  H    2.663193   3.499871   3.300399   2.136880   2.679288
    15  H    4.084762   4.215201   3.263205   2.123333   1.097195
    16  H    2.825539   3.154454   3.185128   2.129484   1.098149
    17  H    3.702203   3.363419   2.668225   2.171170   1.091538
    18  C    3.605538   2.978941   1.514544   2.534594   3.898930
    19  H    4.516881   3.968528   2.143587   2.909719   4.181082
    20  H    4.103192   3.224701   2.163690   3.424199   4.670531
    21  H    3.403134   3.094984   2.187877   2.835472   4.316637
    22  C    2.405369   1.513199   2.761096   3.602433   4.559299
    23  H    3.323437   2.178812   2.854872   3.982465   4.882936
    24  H    2.704448   2.088357   3.777582   4.468443   5.269444
    25  H    2.679723   2.176631   2.950911   3.735124   4.937505
    26  C    2.369511   1.516692   2.824373   3.150945   3.187821
    27  H    2.708805   2.095728   3.821755   4.123283   4.134770
    28  H    3.296201   2.185070   2.876543   3.536689   3.592822
    29  H    2.597013   2.176849   3.093537   2.990363   2.539623
                    6          7          8          9         10
     6  Fe   0.000000
     7  Cl   2.191959   0.000000
     8  C    3.588191   3.872167   0.000000
     9  Cl   2.194417   3.718112   5.657075   0.000000
    10  Cl   2.217105   3.668081   3.698828   3.654419   0.000000
    11  H    5.110510   6.341044   3.467444   6.300081   5.396279
    12  H    4.617431   4.617042   1.099952   6.728576   4.518313
    13  H    3.257749   3.891729   1.088415   5.325845   2.790858
    14  H    3.179763   2.951025   1.095786   5.275988   3.779824
    15  H    5.511187   5.440367   2.701482   7.258910   6.245495
    16  H    4.341714   4.350519   2.804547   5.824162   5.608334
    17  H    5.498393   5.961172   3.467961   6.846148   6.406785
    18  C    4.615033   6.047662   3.032484   6.031889   3.981757
    19  H    5.499834   6.715414   3.280806   7.059303   4.695312
    20  H    5.104955   6.782422   4.071594   6.180672   4.436742
    21  H    3.966950   5.430183   2.822744   5.480520   2.976315
    22  C    3.330095   5.328174   4.239195   3.739529   3.650167
    23  H    4.414760   6.372866   4.842532   4.728837   4.549470
    24  H    3.295184   5.358161   5.030616   3.034844   3.945873
    25  H    3.091568   5.151710   4.030046   3.754608   2.781338
    26  C    4.142983   5.416309   4.296415   4.645426   5.373204
    27  H    4.173950   5.506117   5.111311   4.151765   5.635561
    28  H    5.059880   6.440420   4.853893   5.502897   6.012807
    29  H    4.424173   5.263000   4.145151   5.148011   5.835018
                   11         12         13         14         15
    11  H    0.000000
    12  H    3.988331   0.000000
    13  H    3.765738   1.773030   0.000000
    14  H    4.179700   1.761999   1.777307   0.000000
    15  H    3.466342   2.598341   3.755450   2.852893   0.000000
    16  H    3.421668   3.309463   3.737812   2.534394   1.755881
    17  H    2.367947   3.779627   4.323030   3.734383   1.777074
    18  C    2.206363   3.528984   2.675341   3.983071   4.472185
    19  H    2.675961   3.430718   3.000225   4.348018   4.516177
    20  H    2.455278   4.616582   3.673361   4.961223   5.344305
    21  H    3.100461   3.416681   2.107880   3.679525   4.863348
    22  C    3.084519   5.226281   3.932370   4.594452   5.549128
    23  H    2.852425   5.725559   4.582188   5.348573   5.866153
    24  H    4.034608   6.076808   4.728450   5.198438   6.301303
    25  H    3.547744   4.982197   3.460041   4.454463   5.816698
    26  C    2.599640   5.186159   4.628001   4.407121   4.282113
    27  H    3.649768   6.071626   5.360970   5.073075   5.219595
    28  H    2.276557   5.642940   5.157752   5.156336   4.638031
    29  H    2.867667   4.931682   4.712635   4.115604   3.584600
                   16         17         18         19         20
    16  H    0.000000
    17  H    1.791977   0.000000
    18  C    4.573313   4.130447   0.000000
    19  H    5.015368   4.405213   1.097064   0.000000
    20  H    5.318265   4.709510   1.091971   1.761964   0.000000
    21  H    4.817595   4.761622   1.092078   1.767657   1.768001
    22  C    4.648755   4.664188   2.913245   4.005184   2.708890
    23  H    5.143635   4.772779   2.891694   3.895788   2.336668
    24  H    5.163863   5.362864   4.001872   5.096529   3.756459
    25  H    5.078133   5.217351   2.621824   3.684019   2.496300
    26  C    3.075975   2.938837   4.015813   4.885951   4.121999
    27  H    3.811356   3.926141   4.872885   5.821910   4.874396
    28  H    3.752321   3.064692   3.966690   4.754574   3.864151
    29  H    2.259975   2.262324   4.496620   5.232492   4.799896
                   21         22         23         24         25
    21  H    0.000000
    22  C    2.900546   0.000000
    23  H    3.190883   1.091472   0.000000
    24  H    3.885302   1.098897   1.777274   0.000000
    25  H    2.249772   1.089187   1.792988   1.762272   0.000000
    26  C    4.410967   2.541915   2.751338   2.805194   3.492256
    27  H    5.138469   2.776313   3.070664   2.590420   3.782599
    28  H    4.579581   2.784584   2.546158   3.171290   3.776943
    29  H    4.909299   3.491509   3.768264   3.783467   4.331068
                   26         27         28         29
    26  C    0.000000
    27  H    1.097701   0.000000
    28  H    1.092014   1.774249   0.000000
    29  H    1.088515   1.759372   1.792069   0.000000
 Framework group  C1[X(C8H16Cl3FeO)]
 Deg. of freedom    81
                         Standard orientation:                         
 ---------------------------------------------------------------------
 Center     Atomic      Atomic             Coordinates (Angstroms)
 Number     Number       Type             X           Y           Z
 ---------------------------------------------------------------------
      1          8           0       -0.309942   -0.181048   -0.746206
      2          6           0       -1.210300   -1.101245   -0.601815
      3          6           0       -2.831381   -0.248555    0.425327
      4          6           0       -2.491269    0.972827   -0.103645
      5          6           0       -2.961732    1.416738   -1.450262
      6         26           0        1.421250    0.117667   -0.006714
      7         17           0        2.001532    2.078425   -0.796261
      8          6           0       -1.607487    1.943421    0.600318
      9         17           0        2.617810   -1.586943   -0.698100
     10         17           0        1.187535    0.122298    2.198033
     11          1           0       -3.604873   -0.802108   -0.103734
     12          1           0       -2.223567    2.796204    0.921413
     13          1           0       -1.109740    1.533628    1.477224
     14          1           0       -0.850272    2.341409   -0.084501
     15          1           0       -3.398192    2.419811   -1.365498
     16          1           0       -2.101782    1.512422   -2.126474
     17          1           0       -3.705967    0.749830   -1.889355
     18          6           0       -2.725075   -0.555753    1.904574
     19          1           0       -3.499606    0.000712    2.446789
     20          1           0       -2.892972   -1.616837    2.100309
     21          1           0       -1.758317   -0.280858    2.331710
     22          6           0       -0.910841   -2.231177    0.359095
     23          1           0       -1.764799   -2.895572    0.502786
     24          1           0       -0.101216   -2.802684   -0.115734
     25          1           0       -0.536546   -1.874883    1.317889
     26          6           0       -1.871274   -1.545962   -1.892433
     27          1           0       -1.121717   -2.159974   -2.408282
     28          1           0       -2.758332   -2.159929   -1.723117
     29          1           0       -2.105835   -0.708157   -2.546595
 ---------------------------------------------------------------------
 Rotational constants (GHZ):           0.5779120           0.3412822           0.3198839
   427 basis functions,  1056 primitive gaussians,   461 cartesian basis functions
    77 alpha electrons       72 beta electrons
       nuclear repulsion energy      1648.9475058180 Hartrees.
 NAtoms=   29 NActive=   29 NUniq=   29 SFac= 1.00D+00 NAtFMM=   60 NAOKFM=F Big=F
 Nuclear repulsion after empirical dispersion term =     1648.9098714722 Hartrees.
 Initial guess from the checkpoint file:  "checkpoint.chk"
 B after Tr=     0.000000    0.000000    0.000000
         Rot=    1.000000    0.000000    0.000000    0.000000 Ang=   0.00 deg.
 Initial guess <Sx>= 0.0000 <Sy>= 0.0000 <Sz>= 2.5000 <S**2>= 8.7623 S= 2.5021
 SCF Done:  E(UPBE1PBE) =  -3033.15104514     A.U. after    1 cycles
            NFock=  1  Conv=0.22D-08     -V/T= 2.0021
 <Sx>= 0.0000 <Sy>= 0.0000 <Sz>= 2.5000 <S**2>= 8.7623 S= 2.5021
 <L.S>= 0.000000000000E+00
 Annihilation of the first spin contaminant:
 S**2 before annihilation     8.7623,   after     8.7500
 1\1\GINC-HOLY7C08610\SP\UPBE1PBE\Jul-CC-pVDZ\C8H16Cl3Fe1O1(6)\EKWAN\11
 -Feb-2020\0\\#t pop=none jul-cc-pvdz guess=read upbe1pbe empiricaldisp
 ersion=gd3bj\\theory_abbreviation pbe0_d3bj\\0,6\O,0,-0.309942,-0.1810
 48,-0.746206\C,0,-1.2103,-1.101245,-0.601815\C,0,-2.831381,-0.248555,0
 .425327\C,0,-2.491269,0.972827,-0.103645\C,0,-2.961732,1.416738,-1.450
 262\Fe,0,1.42125,0.117667,-0.006714\Cl,0,2.001532,2.078425,-0.796261\C
 ,0,-1.607487,1.943421,0.600318\Cl,0,2.61781,-1.586943,-0.6981\Cl,0,1.1
 87535,0.122298,2.198033\H,0,-3.604873,-0.802108,-0.103734\H,0,-2.22356
 7,2.796204,0.921413\H,0,-1.10974,1.533628,1.477224\H,0,-0.850272,2.341
 409,-0.084501\H,0,-3.398192,2.419811,-1.365498\H,0,-2.101782,1.512422,
 -2.126474\H,0,-3.705967,0.749829,-1.889355\C,0,-2.725075,-0.555753,1.9
 04574\H,0,-3.499606,0.000712,2.446789\H,0,-2.892972,-1.616837,2.100309
 \H,0,-1.758317,-0.280858,2.33171\C,0,-0.910841,-2.231177,0.359095\H,0,
 -1.764799,-2.895572,0.502786\H,0,-0.101216,-2.802684,-0.115734\H,0,-0.
 536546,-1.874883,1.317889\C,0,-1.871274,-1.545962,-1.892433\H,0,-1.121
 717,-2.159974,-2.408282\H,0,-2.758332,-2.159929,-1.723117\H,0,-2.10583
 5,-0.708157,-2.546595\\Version=ES64L-G16RevA.03\HF=-3033.1510451\S2=8.
 762329\S2-1=0.\S2A=8.750047\RMSD=2.233e-09\PG=C01 [X(C8H16Cl3Fe1O1)]\\
 @


 Everywhere is walking distance if you have the time.
                                    -- Steven Wright
 Job cpu time:       0 days  0 hours  4 minutes 41.9 seconds.
 Elapsed time:       0 days  0 hours  1 minutes 11.0 seconds.
 File lengths (MBytes):  RWF=    170 Int=      0 D2E=      0 Chk=     13 Scr=      1
 Normal termination of Gaussian 16 at Tue Feb 11 14:01:05 2020.
 Initial command:
 /n/sw/g16_nehalem/g16/l1.exe "/scratch/Gau-425460.inp" -scrdir="/scratch/"
 Entering Link 1 = /n/sw/g16_nehalem/g16/l1.exe PID=    427814.
  
 Copyright (c) 1988,1990,1992,1993,1995,1998,2003,2009,2016,
            Gaussian, Inc.  All Rights Reserved.
  
 This is part of the Gaussian(R) 16 program.  It is based on
 the Gaussian(R) 09 system (copyright 2009, Gaussian, Inc.),
 the Gaussian(R) 03 system (copyright 2003, Gaussian, Inc.),
 the Gaussian(R) 98 system (copyright 1998, Gaussian, Inc.),
 the Gaussian(R) 94 system (copyright 1995, Gaussian, Inc.),
 the Gaussian 92(TM) system (copyright 1992, Gaussian, Inc.),
 the Gaussian 90(TM) system (copyright 1990, Gaussian, Inc.),
 the Gaussian 88(TM) system (copyright 1988, Gaussian, Inc.),
 the Gaussian 86(TM) system (copyright 1986, Carnegie Mellon
 University), and the Gaussian 82(TM) system (copyright 1983,
 Carnegie Mellon University). Gaussian is a federally registered
 trademark of Gaussian, Inc.
  
 This software contains proprietary and confidential information,
 including trade secrets, belonging to Gaussian, Inc.
  
 This software is provided under written license and may be
 used, copied, transmitted, or stored only in accord with that
 written license.
  
 The following legend is applicable only to US Government
 contracts under FAR:
  
                    RESTRICTED RIGHTS LEGEND
  
 Use, reproduction and disclosure by the US Government is
 subject to restrictions as set forth in subparagraphs (a)
 and (c) of the Commercial Computer Software - Restricted
 Rights clause in FAR 52.227-19.
  
 Gaussian, Inc.
 340 Quinnipiac St., Bldg. 40, Wallingford CT 06492
  
  
 ---------------------------------------------------------------
 Warning -- This program may not be used in any manner that
 competes with the business of Gaussian, Inc. or will provide
 assistance to any competitor of Gaussian, Inc.  The licensee
 of this program is prohibited from giving any competitor of
 Gaussian, Inc. access to this program.  By using this program,
 the user acknowledges that Gaussian, Inc. is engaged in the
 business of creating and licensing software in the field of
 computational chemistry and represents and warrants to the
 licensee that it is not a competitor of Gaussian, Inc. and that
 it will not use this program in any manner prohibited above.
 ---------------------------------------------------------------
  

 Cite this work as:
 Gaussian 16, Revision A.03,
 M. J. Frisch, G. W. Trucks, H. B. Schlegel, G. E. Scuseria, 
 M. A. Robb, J. R. Cheeseman, G. Scalmani, V. Barone, 
 G. A. Petersson, H. Nakatsuji, X. Li, M. Caricato, A. V. Marenich, 
 J. Bloino, B. G. Janesko, R. Gomperts, B. Mennucci, H. P. Hratchian, 
 J. V. Ortiz, A. F. Izmaylov, J. L. Sonnenberg, D. Williams-Young, 
 F. Ding, F. Lipparini, F. Egidi, J. Goings, B. Peng, A. Petrone, 
 T. Henderson, D. Ranasinghe, V. G. Zakrzewski, J. Gao, N. Rega, 
 G. Zheng, W. Liang, M. Hada, M. Ehara, K. Toyota, R. Fukuda, 
 J. Hasegawa, M. Ishida, T. Nakajima, Y. Honda, O. Kitao, H. Nakai, 
 T. Vreven, K. Throssell, J. A. Montgomery, Jr., J. E. Peralta, 
 F. Ogliaro, M. J. Bearpark, J. J. Heyd, E. N. Brothers, K. N. Kudin, 
 V. N. Staroverov, T. A. Keith, R. Kobayashi, J. Normand, 
 K. Raghavachari, A. P. Rendell, J. C. Burant, S. S. Iyengar, 
 J. Tomasi, M. Cossi, J. M. Millam, M. Klene, C. Adamo, R. Cammi, 
 J. W. Ochterski, R. L. Martin, K. Morokuma, O. Farkas, 
 J. B. Foresman, and D. J. Fox, Gaussian, Inc., Wallingford CT, 2016.
 
 ******************************************
 Gaussian 16:  ES64L-G16RevA.03 25-Dec-2016
                11-Feb-2020 
 ******************************************
 %chk=checkpoint.chk
 %mem=3GB
 %nprocshared=4
 Will use up to    4 processors via shared memory.
 -----------------------------------------
 #t pop=none jul-cc-pvdz guess=read ub3lyp
 -----------------------------------------
 -------------------------
 theory_abbreviation b3lyp
 -------------------------
 Symbolic Z-matrix:
 Charge =  0 Multiplicity = 6
 O                    -0.30994  -0.18105  -0.74621 
 C                    -1.2103   -1.10125  -0.60182 
 C                    -2.83138  -0.24856   0.42533 
 C                    -2.49127   0.97283  -0.10365 
 C                    -2.96173   1.41674  -1.45026 
 Fe                    1.42125   0.11767  -0.00671 
 Cl                    2.00153   2.07843  -0.79626 
 C                    -1.60749   1.94342   0.60032 
 Cl                    2.61781  -1.58694  -0.6981 
 Cl                    1.18754   0.1223    2.19803 
 H                    -3.60487  -0.80211  -0.10373 
 H                    -2.22357   2.7962    0.92141 
 H                    -1.10974   1.53363   1.47722 
 H                    -0.85027   2.34141  -0.0845 
 H                    -3.39819   2.41981  -1.3655 
 H                    -2.10178   1.51242  -2.12647 
 H                    -3.70597   0.74983  -1.88936 
 C                    -2.72508  -0.55575   1.90457 
 H                    -3.49961   0.00071   2.44679 
 H                    -2.89297  -1.61684   2.10031 
 H                    -1.75832  -0.28086   2.33171 
 C                    -0.91084  -2.23118   0.3591 
 H                    -1.7648   -2.89557   0.50279 
 H                    -0.10122  -2.80268  -0.11573 
 H                    -0.53655  -1.87488   1.31789 
 C                    -1.87127  -1.54596  -1.89243 
 H                    -1.12172  -2.15997  -2.40828 
 H                    -2.75833  -2.15993  -1.72312 
 H                    -2.10583  -0.70816  -2.5466 
 
                    Distance matrix (angstroms):
                    1          2          3          4          5
     1  O    0.000000
     2  C    1.295475   0.000000
     3  C    2.781133   2.100001   0.000000
     4  C    2.550000   2.488138   1.373776   0.000000
     5  C    3.174997   3.182391   2.511578   1.493911   0.000000
     6  Fe   1.906071   2.960565   4.290180   4.006058   4.793949
     7  Cl   3.232744   4.523713   5.501287   4.678389   5.049707
     8  C    2.830215   3.297404   2.516604   1.489526   2.513216
     9  Cl   3.248167   3.860000   5.722504   5.745301   6.381155
    10  Cl   3.317077   3.884047   4.408141   4.422072   5.674685
    11  H    3.413950   2.464051   1.088401   2.095354   2.673957
    12  H    3.912409   4.305467   3.144216   2.108818   2.841242
    13  H    2.919492   3.357837   2.691972   2.173078   3.466080
    14  H    2.663193   3.499871   3.300399   2.136880   2.679288
    15  H    4.084762   4.215201   3.263205   2.123333   1.097195
    16  H    2.825539   3.154454   3.185128   2.129484   1.098149
    17  H    3.702203   3.363419   2.668225   2.171170   1.091538
    18  C    3.605538   2.978941   1.514544   2.534594   3.898930
    19  H    4.516881   3.968528   2.143587   2.909719   4.181082
    20  H    4.103192   3.224701   2.163690   3.424199   4.670531
    21  H    3.403134   3.094984   2.187877   2.835472   4.316637
    22  C    2.405369   1.513199   2.761096   3.602433   4.559299
    23  H    3.323437   2.178812   2.854872   3.982465   4.882936
    24  H    2.704448   2.088357   3.777582   4.468443   5.269444
    25  H    2.679723   2.176631   2.950911   3.735124   4.937505
    26  C    2.369511   1.516692   2.824373   3.150945   3.187821
    27  H    2.708805   2.095728   3.821755   4.123283   4.134770
    28  H    3.296201   2.185070   2.876543   3.536689   3.592822
    29  H    2.597013   2.176849   3.093537   2.990363   2.539623
                    6          7          8          9         10
     6  Fe   0.000000
     7  Cl   2.191959   0.000000
     8  C    3.588191   3.872167   0.000000
     9  Cl   2.194417   3.718112   5.657075   0.000000
    10  Cl   2.217105   3.668081   3.698828   3.654419   0.000000
    11  H    5.110510   6.341044   3.467444   6.300081   5.396279
    12  H    4.617431   4.617042   1.099952   6.728576   4.518313
    13  H    3.257749   3.891729   1.088415   5.325845   2.790858
    14  H    3.179763   2.951025   1.095786   5.275988   3.779824
    15  H    5.511187   5.440367   2.701482   7.258910   6.245495
    16  H    4.341714   4.350519   2.804547   5.824162   5.608334
    17  H    5.498393   5.961172   3.467961   6.846148   6.406785
    18  C    4.615033   6.047662   3.032484   6.031889   3.981757
    19  H    5.499834   6.715414   3.280806   7.059303   4.695312
    20  H    5.104955   6.782422   4.071594   6.180672   4.436742
    21  H    3.966950   5.430183   2.822744   5.480520   2.976315
    22  C    3.330095   5.328174   4.239195   3.739529   3.650167
    23  H    4.414760   6.372866   4.842532   4.728837   4.549470
    24  H    3.295184   5.358161   5.030616   3.034844   3.945873
    25  H    3.091568   5.151710   4.030046   3.754608   2.781338
    26  C    4.142983   5.416309   4.296415   4.645426   5.373204
    27  H    4.173950   5.506117   5.111311   4.151765   5.635561
    28  H    5.059880   6.440420   4.853893   5.502897   6.012807
    29  H    4.424173   5.263000   4.145151   5.148011   5.835018
                   11         12         13         14         15
    11  H    0.000000
    12  H    3.988331   0.000000
    13  H    3.765738   1.773030   0.000000
    14  H    4.179700   1.761999   1.777307   0.000000
    15  H    3.466342   2.598341   3.755450   2.852893   0.000000
    16  H    3.421668   3.309463   3.737812   2.534394   1.755881
    17  H    2.367947   3.779627   4.323030   3.734383   1.777074
    18  C    2.206363   3.528984   2.675341   3.983071   4.472185
    19  H    2.675961   3.430718   3.000225   4.348018   4.516177
    20  H    2.455278   4.616582   3.673361   4.961223   5.344305
    21  H    3.100461   3.416681   2.107880   3.679525   4.863348
    22  C    3.084519   5.226281   3.932370   4.594452   5.549128
    23  H    2.852425   5.725559   4.582188   5.348573   5.866153
    24  H    4.034608   6.076808   4.728450   5.198438   6.301303
    25  H    3.547744   4.982197   3.460041   4.454463   5.816698
    26  C    2.599640   5.186159   4.628001   4.407121   4.282113
    27  H    3.649768   6.071626   5.360970   5.073075   5.219595
    28  H    2.276557   5.642940   5.157752   5.156336   4.638031
    29  H    2.867667   4.931682   4.712635   4.115604   3.584600
                   16         17         18         19         20
    16  H    0.000000
    17  H    1.791977   0.000000
    18  C    4.573313   4.130447   0.000000
    19  H    5.015368   4.405213   1.097064   0.000000
    20  H    5.318265   4.709510   1.091971   1.761964   0.000000
    21  H    4.817595   4.761622   1.092078   1.767657   1.768001
    22  C    4.648755   4.664188   2.913245   4.005184   2.708890
    23  H    5.143635   4.772779   2.891694   3.895788   2.336668
    24  H    5.163863   5.362864   4.001872   5.096529   3.756459
    25  H    5.078133   5.217351   2.621824   3.684019   2.496300
    26  C    3.075975   2.938837   4.015813   4.885951   4.121999
    27  H    3.811356   3.926141   4.872885   5.821910   4.874396
    28  H    3.752321   3.064692   3.966690   4.754574   3.864151
    29  H    2.259975   2.262324   4.496620   5.232492   4.799896
                   21         22         23         24         25
    21  H    0.000000
    22  C    2.900546   0.000000
    23  H    3.190883   1.091472   0.000000
    24  H    3.885302   1.098897   1.777274   0.000000
    25  H    2.249772   1.089187   1.792988   1.762272   0.000000
    26  C    4.410967   2.541915   2.751338   2.805194   3.492256
    27  H    5.138469   2.776313   3.070664   2.590420   3.782599
    28  H    4.579581   2.784584   2.546158   3.171290   3.776943
    29  H    4.909299   3.491509   3.768264   3.783467   4.331068
                   26         27         28         29
    26  C    0.000000
    27  H    1.097701   0.000000
    28  H    1.092014   1.774249   0.000000
    29  H    1.088515   1.759372   1.792069   0.000000
 Framework group  C1[X(C8H16Cl3FeO)]
 Deg. of freedom    81
                         Standard orientation:                         
 ---------------------------------------------------------------------
 Center     Atomic      Atomic             Coordinates (Angstroms)
 Number     Number       Type             X           Y           Z
 ---------------------------------------------------------------------
      1          8           0       -0.309942   -0.181048   -0.746206
      2          6           0       -1.210300   -1.101245   -0.601815
      3          6           0       -2.831381   -0.248555    0.425327
      4          6           0       -2.491269    0.972827   -0.103645
      5          6           0       -2.961732    1.416738   -1.450262
      6         26           0        1.421250    0.117667   -0.006714
      7         17           0        2.001532    2.078425   -0.796261
      8          6           0       -1.607487    1.943421    0.600318
      9         17           0        2.617810   -1.586943   -0.698100
     10         17           0        1.187535    0.122298    2.198033
     11          1           0       -3.604873   -0.802108   -0.103734
     12          1           0       -2.223567    2.796204    0.921413
     13          1           0       -1.109740    1.533628    1.477224
     14          1           0       -0.850272    2.341409   -0.084501
     15          1           0       -3.398192    2.419811   -1.365498
     16          1           0       -2.101782    1.512422   -2.126474
     17          1           0       -3.705967    0.749830   -1.889355
     18          6           0       -2.725075   -0.555753    1.904574
     19          1           0       -3.499606    0.000712    2.446789
     20          1           0       -2.892972   -1.616837    2.100309
     21          1           0       -1.758317   -0.280858    2.331710
     22          6           0       -0.910841   -2.231177    0.359095
     23          1           0       -1.764799   -2.895572    0.502786
     24          1           0       -0.101216   -2.802684   -0.115734
     25          1           0       -0.536546   -1.874883    1.317889
     26          6           0       -1.871274   -1.545962   -1.892433
     27          1           0       -1.121717   -2.159974   -2.408282
     28          1           0       -2.758332   -2.159929   -1.723117
     29          1           0       -2.105835   -0.708157   -2.546595
 ---------------------------------------------------------------------
 Rotational constants (GHZ):           0.5779120           0.3412822           0.3198839
   427 basis functions,  1056 primitive gaussians,   461 cartesian basis functions
    77 alpha electrons       72 beta electrons
       nuclear repulsion energy      1648.9475058180 Hartrees.
 NAtoms=   29 NActive=   29 NUniq=   29 SFac= 1.00D+00 NAtFMM=   60 NAOKFM=F Big=F
 Initial guess from the checkpoint file:  "checkpoint.chk"
 B after Tr=     0.000000    0.000000    0.000000
         Rot=    1.000000    0.000000    0.000000    0.000000 Ang=   0.00 deg.
 Initial guess <Sx>= 0.0000 <Sy>= 0.0000 <Sz>= 2.5000 <S**2>= 8.7623 S= 2.5021
 SCF Done:  E(UB3LYP) =  -3034.32762998     A.U. after   13 cycles
            NFock= 13  Conv=0.64D-08     -V/T= 2.0024
 <Sx>= 0.0000 <Sy>= 0.0000 <Sz>= 2.5000 <S**2>= 8.7616 S= 2.5019
 <L.S>= 0.000000000000E+00
 Annihilation of the first spin contaminant:
 S**2 before annihilation     8.7616,   after     8.7500
 1\1\GINC-HOLY7C08610\SP\UB3LYP\Jul-CC-pVDZ\C8H16Cl3Fe1O1(6)\EKWAN\11-F
 eb-2020\0\\#t pop=none jul-cc-pvdz guess=read ub3lyp\\theory_abbreviat
 ion b3lyp\\0,6\O,0,-0.309942,-0.181048,-0.746206\C,0,-1.2103,-1.101245
 ,-0.601815\C,0,-2.831381,-0.248555,0.425327\C,0,-2.491269,0.972827,-0.
 103645\C,0,-2.961732,1.416738,-1.450262\Fe,0,1.42125,0.117667,-0.00671
 4\Cl,0,2.001532,2.078425,-0.796261\C,0,-1.607487,1.943421,0.600318\Cl,
 0,2.61781,-1.586943,-0.6981\Cl,0,1.187535,0.122298,2.198033\H,0,-3.604
 873,-0.802108,-0.103734\H,0,-2.223567,2.796204,0.921413\H,0,-1.10974,1
 .533628,1.477224\H,0,-0.850272,2.341409,-0.084501\H,0,-3.398192,2.4198
 11,-1.365498\H,0,-2.101782,1.512422,-2.126474\H,0,-3.705967,0.749829,-
 1.889355\C,0,-2.725075,-0.555753,1.904574\H,0,-3.499606,0.000712,2.446
 789\H,0,-2.892972,-1.616837,2.100309\H,0,-1.758317,-0.280858,2.33171\C
 ,0,-0.910841,-2.231177,0.359095\H,0,-1.764799,-2.895572,0.502786\H,0,-
 0.101216,-2.802684,-0.115734\H,0,-0.536546,-1.874883,1.317889\C,0,-1.8
 71274,-1.545962,-1.892433\H,0,-1.121717,-2.159974,-2.408282\H,0,-2.758
 332,-2.159929,-1.723117\H,0,-2.105835,-0.708157,-2.546595\\Version=ES6
 4L-G16RevA.03\HF=-3034.32763\S2=8.761596\S2-1=0.\S2A=8.750042\RMSD=6.3
 68e-09\PG=C01 [X(C8H16Cl3Fe1O1)]\\@


 THERE IS NO SCIENCE WITHOUT FANCY, NOR ART WITHOUT FACTS.
     -- VLADIMIR NABAKOV
 Job cpu time:       0 days  0 hours 56 minutes  5.4 seconds.
 Elapsed time:       0 days  0 hours 14 minutes  3.8 seconds.
 File lengths (MBytes):  RWF=    174 Int=      0 D2E=      0 Chk=     13 Scr=      1
 Normal termination of Gaussian 16 at Tue Feb 11 14:15:10 2020.
 Initial command:
 /n/sw/g16_nehalem/g16/l1.exe "/scratch/Gau-425460.inp" -scrdir="/scratch/"
 Entering Link 1 = /n/sw/g16_nehalem/g16/l1.exe PID=    428872.
  
 Copyright (c) 1988,1990,1992,1993,1995,1998,2003,2009,2016,
            Gaussian, Inc.  All Rights Reserved.
  
 This is part of the Gaussian(R) 16 program.  It is based on
 the Gaussian(R) 09 system (copyright 2009, Gaussian, Inc.),
 the Gaussian(R) 03 system (copyright 2003, Gaussian, Inc.),
 the Gaussian(R) 98 system (copyright 1998, Gaussian, Inc.),
 the Gaussian(R) 94 system (copyright 1995, Gaussian, Inc.),
 the Gaussian 92(TM) system (copyright 1992, Gaussian, Inc.),
 the Gaussian 90(TM) system (copyright 1990, Gaussian, Inc.),
 the Gaussian 88(TM) system (copyright 1988, Gaussian, Inc.),
 the Gaussian 86(TM) system (copyright 1986, Carnegie Mellon
 University), and the Gaussian 82(TM) system (copyright 1983,
 Carnegie Mellon University). Gaussian is a federally registered
 trademark of Gaussian, Inc.
  
 This software contains proprietary and confidential information,
 including trade secrets, belonging to Gaussian, Inc.
  
 This software is provided under written license and may be
 used, copied, transmitted, or stored only in accord with that
 written license.
  
 The following legend is applicable only to US Government
 contracts under FAR:
  
                    RESTRICTED RIGHTS LEGEND
  
 Use, reproduction and disclosure by the US Government is
 subject to restrictions as set forth in subparagraphs (a)
 and (c) of the Commercial Computer Software - Restricted
 Rights clause in FAR 52.227-19.
  
 Gaussian, Inc.
 340 Quinnipiac St., Bldg. 40, Wallingford CT 06492
  
  
 ---------------------------------------------------------------
 Warning -- This program may not be used in any manner that
 competes with the business of Gaussian, Inc. or will provide
 assistance to any competitor of Gaussian, Inc.  The licensee
 of this program is prohibited from giving any competitor of
 Gaussian, Inc. access to this program.  By using this program,
 the user acknowledges that Gaussian, Inc. is engaged in the
 business of creating and licensing software in the field of
 computational chemistry and represents and warrants to the
 licensee that it is not a competitor of Gaussian, Inc. and that
 it will not use this program in any manner prohibited above.
 ---------------------------------------------------------------
  

 Cite this work as:
 Gaussian 16, Revision A.03,
 M. J. Frisch, G. W. Trucks, H. B. Schlegel, G. E. Scuseria, 
 M. A. Robb, J. R. Cheeseman, G. Scalmani, V. Barone, 
 G. A. Petersson, H. Nakatsuji, X. Li, M. Caricato, A. V. Marenich, 
 J. Bloino, B. G. Janesko, R. Gomperts, B. Mennucci, H. P. Hratchian, 
 J. V. Ortiz, A. F. Izmaylov, J. L. Sonnenberg, D. Williams-Young, 
 F. Ding, F. Lipparini, F. Egidi, J. Goings, B. Peng, A. Petrone, 
 T. Henderson, D. Ranasinghe, V. G. Zakrzewski, J. Gao, N. Rega, 
 G. Zheng, W. Liang, M. Hada, M. Ehara, K. Toyota, R. Fukuda, 
 J. Hasegawa, M. Ishida, T. Nakajima, Y. Honda, O. Kitao, H. Nakai, 
 T. Vreven, K. Throssell, J. A. Montgomery, Jr., J. E. Peralta, 
 F. Ogliaro, M. J. Bearpark, J. J. Heyd, E. N. Brothers, K. N. Kudin, 
 V. N. Staroverov, T. A. Keith, R. Kobayashi, J. Normand, 
 K. Raghavachari, A. P. Rendell, J. C. Burant, S. S. Iyengar, 
 J. Tomasi, M. Cossi, J. M. Millam, M. Klene, C. Adamo, R. Cammi, 
 J. W. Ochterski, R. L. Martin, K. Morokuma, O. Farkas, 
 J. B. Foresman, and D. J. Fox, Gaussian, Inc., Wallingford CT, 2016.
 
 ******************************************
 Gaussian 16:  ES64L-G16RevA.03 25-Dec-2016
                11-Feb-2020 
 ******************************************
 %chk=checkpoint.chk
 %mem=3GB
 %nprocshared=4
 Will use up to    4 processors via shared memory.
 -------------------------------------------------------------------
 #t pop=none jul-cc-pvdz guess=read ub3lyp empiricaldispersion=gd3bj
 -------------------------------------------------------------------
 ------------------------------
 theory_abbreviation b3lyp_d3bj
 ------------------------------
 Symbolic Z-matrix:
 Charge =  0 Multiplicity = 6
 O                    -0.30994  -0.18105  -0.74621 
 C                    -1.2103   -1.10125  -0.60182 
 C                    -2.83138  -0.24856   0.42533 
 C                    -2.49127   0.97283  -0.10365 
 C                    -2.96173   1.41674  -1.45026 
 Fe                    1.42125   0.11767  -0.00671 
 Cl                    2.00153   2.07843  -0.79626 
 C                    -1.60749   1.94342   0.60032 
 Cl                    2.61781  -1.58694  -0.6981 
 Cl                    1.18754   0.1223    2.19803 
 H                    -3.60487  -0.80211  -0.10373 
 H                    -2.22357   2.7962    0.92141 
 H                    -1.10974   1.53363   1.47722 
 H                    -0.85027   2.34141  -0.0845 
 H                    -3.39819   2.41981  -1.3655 
 H                    -2.10178   1.51242  -2.12647 
 H                    -3.70597   0.74983  -1.88936 
 C                    -2.72508  -0.55575   1.90457 
 H                    -3.49961   0.00071   2.44679 
 H                    -2.89297  -1.61684   2.10031 
 H                    -1.75832  -0.28086   2.33171 
 C                    -0.91084  -2.23118   0.3591 
 H                    -1.7648   -2.89557   0.50279 
 H                    -0.10122  -2.80268  -0.11573 
 H                    -0.53655  -1.87488   1.31789 
 C                    -1.87127  -1.54596  -1.89243 
 H                    -1.12172  -2.15997  -2.40828 
 H                    -2.75833  -2.15993  -1.72312 
 H                    -2.10583  -0.70816  -2.5466 
 
                    Distance matrix (angstroms):
                    1          2          3          4          5
     1  O    0.000000
     2  C    1.295475   0.000000
     3  C    2.781133   2.100001   0.000000
     4  C    2.550000   2.488138   1.373776   0.000000
     5  C    3.174997   3.182391   2.511578   1.493911   0.000000
     6  Fe   1.906071   2.960565   4.290180   4.006058   4.793949
     7  Cl   3.232744   4.523713   5.501287   4.678389   5.049707
     8  C    2.830215   3.297404   2.516604   1.489526   2.513216
     9  Cl   3.248167   3.860000   5.722504   5.745301   6.381155
    10  Cl   3.317077   3.884047   4.408141   4.422072   5.674685
    11  H    3.413950   2.464051   1.088401   2.095354   2.673957
    12  H    3.912409   4.305467   3.144216   2.108818   2.841242
    13  H    2.919492   3.357837   2.691972   2.173078   3.466080
    14  H    2.663193   3.499871   3.300399   2.136880   2.679288
    15  H    4.084762   4.215201   3.263205   2.123333   1.097195
    16  H    2.825539   3.154454   3.185128   2.129484   1.098149
    17  H    3.702203   3.363419   2.668225   2.171170   1.091538
    18  C    3.605538   2.978941   1.514544   2.534594   3.898930
    19  H    4.516881   3.968528   2.143587   2.909719   4.181082
    20  H    4.103192   3.224701   2.163690   3.424199   4.670531
    21  H    3.403134   3.094984   2.187877   2.835472   4.316637
    22  C    2.405369   1.513199   2.761096   3.602433   4.559299
    23  H    3.323437   2.178812   2.854872   3.982465   4.882936
    24  H    2.704448   2.088357   3.777582   4.468443   5.269444
    25  H    2.679723   2.176631   2.950911   3.735124   4.937505
    26  C    2.369511   1.516692   2.824373   3.150945   3.187821
    27  H    2.708805   2.095728   3.821755   4.123283   4.134770
    28  H    3.296201   2.185070   2.876543   3.536689   3.592822
    29  H    2.597013   2.176849   3.093537   2.990363   2.539623
                    6          7          8          9         10
     6  Fe   0.000000
     7  Cl   2.191959   0.000000
     8  C    3.588191   3.872167   0.000000
     9  Cl   2.194417   3.718112   5.657075   0.000000
    10  Cl   2.217105   3.668081   3.698828   3.654419   0.000000
    11  H    5.110510   6.341044   3.467444   6.300081   5.396279
    12  H    4.617431   4.617042   1.099952   6.728576   4.518313
    13  H    3.257749   3.891729   1.088415   5.325845   2.790858
    14  H    3.179763   2.951025   1.095786   5.275988   3.779824
    15  H    5.511187   5.440367   2.701482   7.258910   6.245495
    16  H    4.341714   4.350519   2.804547   5.824162   5.608334
    17  H    5.498393   5.961172   3.467961   6.846148   6.406785
    18  C    4.615033   6.047662   3.032484   6.031889   3.981757
    19  H    5.499834   6.715414   3.280806   7.059303   4.695312
    20  H    5.104955   6.782422   4.071594   6.180672   4.436742
    21  H    3.966950   5.430183   2.822744   5.480520   2.976315
    22  C    3.330095   5.328174   4.239195   3.739529   3.650167
    23  H    4.414760   6.372866   4.842532   4.728837   4.549470
    24  H    3.295184   5.358161   5.030616   3.034844   3.945873
    25  H    3.091568   5.151710   4.030046   3.754608   2.781338
    26  C    4.142983   5.416309   4.296415   4.645426   5.373204
    27  H    4.173950   5.506117   5.111311   4.151765   5.635561
    28  H    5.059880   6.440420   4.853893   5.502897   6.012807
    29  H    4.424173   5.263000   4.145151   5.148011   5.835018
                   11         12         13         14         15
    11  H    0.000000
    12  H    3.988331   0.000000
    13  H    3.765738   1.773030   0.000000
    14  H    4.179700   1.761999   1.777307   0.000000
    15  H    3.466342   2.598341   3.755450   2.852893   0.000000
    16  H    3.421668   3.309463   3.737812   2.534394   1.755881
    17  H    2.367947   3.779627   4.323030   3.734383   1.777074
    18  C    2.206363   3.528984   2.675341   3.983071   4.472185
    19  H    2.675961   3.430718   3.000225   4.348018   4.516177
    20  H    2.455278   4.616582   3.673361   4.961223   5.344305
    21  H    3.100461   3.416681   2.107880   3.679525   4.863348
    22  C    3.084519   5.226281   3.932370   4.594452   5.549128
    23  H    2.852425   5.725559   4.582188   5.348573   5.866153
    24  H    4.034608   6.076808   4.728450   5.198438   6.301303
    25  H    3.547744   4.982197   3.460041   4.454463   5.816698
    26  C    2.599640   5.186159   4.628001   4.407121   4.282113
    27  H    3.649768   6.071626   5.360970   5.073075   5.219595
    28  H    2.276557   5.642940   5.157752   5.156336   4.638031
    29  H    2.867667   4.931682   4.712635   4.115604   3.584600
                   16         17         18         19         20
    16  H    0.000000
    17  H    1.791977   0.000000
    18  C    4.573313   4.130447   0.000000
    19  H    5.015368   4.405213   1.097064   0.000000
    20  H    5.318265   4.709510   1.091971   1.761964   0.000000
    21  H    4.817595   4.761622   1.092078   1.767657   1.768001
    22  C    4.648755   4.664188   2.913245   4.005184   2.708890
    23  H    5.143635   4.772779   2.891694   3.895788   2.336668
    24  H    5.163863   5.362864   4.001872   5.096529   3.756459
    25  H    5.078133   5.217351   2.621824   3.684019   2.496300
    26  C    3.075975   2.938837   4.015813   4.885951   4.121999
    27  H    3.811356   3.926141   4.872885   5.821910   4.874396
    28  H    3.752321   3.064692   3.966690   4.754574   3.864151
    29  H    2.259975   2.262324   4.496620   5.232492   4.799896
                   21         22         23         24         25
    21  H    0.000000
    22  C    2.900546   0.000000
    23  H    3.190883   1.091472   0.000000
    24  H    3.885302   1.098897   1.777274   0.000000
    25  H    2.249772   1.089187   1.792988   1.762272   0.000000
    26  C    4.410967   2.541915   2.751338   2.805194   3.492256
    27  H    5.138469   2.776313   3.070664   2.590420   3.782599
    28  H    4.579581   2.784584   2.546158   3.171290   3.776943
    29  H    4.909299   3.491509   3.768264   3.783467   4.331068
                   26         27         28         29
    26  C    0.000000
    27  H    1.097701   0.000000
    28  H    1.092014   1.774249   0.000000
    29  H    1.088515   1.759372   1.792069   0.000000
 Framework group  C1[X(C8H16Cl3FeO)]
 Deg. of freedom    81
                         Standard orientation:                         
 ---------------------------------------------------------------------
 Center     Atomic      Atomic             Coordinates (Angstroms)
 Number     Number       Type             X           Y           Z
 ---------------------------------------------------------------------
      1          8           0       -0.309942   -0.181048   -0.746206
      2          6           0       -1.210300   -1.101245   -0.601815
      3          6           0       -2.831381   -0.248555    0.425327
      4          6           0       -2.491269    0.972827   -0.103645
      5          6           0       -2.961732    1.416738   -1.450262
      6         26           0        1.421250    0.117667   -0.006714
      7         17           0        2.001532    2.078425   -0.796261
      8          6           0       -1.607487    1.943421    0.600318
      9         17           0        2.617810   -1.586943   -0.698100
     10         17           0        1.187535    0.122298    2.198033
     11          1           0       -3.604873   -0.802108   -0.103734
     12          1           0       -2.223567    2.796204    0.921413
     13          1           0       -1.109740    1.533628    1.477224
     14          1           0       -0.850272    2.341409   -0.084501
     15          1           0       -3.398192    2.419811   -1.365498
     16          1           0       -2.101782    1.512422   -2.126474
     17          1           0       -3.705967    0.749830   -1.889355
     18          6           0       -2.725075   -0.555753    1.904574
     19          1           0       -3.499606    0.000712    2.446789
     20          1           0       -2.892972   -1.616837    2.100309
     21          1           0       -1.758317   -0.280858    2.331710
     22          6           0       -0.910841   -2.231177    0.359095
     23          1           0       -1.764799   -2.895572    0.502786
     24          1           0       -0.101216   -2.802684   -0.115734
     25          1           0       -0.536546   -1.874883    1.317889
     26          6           0       -1.871274   -1.545962   -1.892433
     27          1           0       -1.121717   -2.159974   -2.408282
     28          1           0       -2.758332   -2.159929   -1.723117
     29          1           0       -2.105835   -0.708157   -2.546595
 ---------------------------------------------------------------------
 Rotational constants (GHZ):           0.5779120           0.3412822           0.3198839
   427 basis functions,  1056 primitive gaussians,   461 cartesian basis functions
    77 alpha electrons       72 beta electrons
       nuclear repulsion energy      1648.9475058180 Hartrees.
 NAtoms=   29 NActive=   29 NUniq=   29 SFac= 1.00D+00 NAtFMM=   60 NAOKFM=F Big=F
 Nuclear repulsion after empirical dispersion term =     1648.8773330909 Hartrees.
 Initial guess from the checkpoint file:  "checkpoint.chk"
 B after Tr=     0.000000    0.000000    0.000000
         Rot=    1.000000    0.000000    0.000000    0.000000 Ang=   0.00 deg.
 Initial guess <Sx>= 0.0000 <Sy>= 0.0000 <Sz>= 2.5000 <S**2>= 8.7616 S= 2.5019
 SCF Done:  E(UB3LYP) =  -3034.39780271     A.U. after    1 cycles
            NFock=  1  Conv=0.39D-08     -V/T= 2.0024
 <Sx>= 0.0000 <Sy>= 0.0000 <Sz>= 2.5000 <S**2>= 8.7616 S= 2.5019
 <L.S>= 0.000000000000E+00
 Annihilation of the first spin contaminant:
 S**2 before annihilation     8.7616,   after     8.7500
 1\1\GINC-HOLY7C08610\SP\UB3LYP\Jul-CC-pVDZ\C8H16Cl3Fe1O1(6)\EKWAN\11-F
 eb-2020\0\\#t pop=none jul-cc-pvdz guess=read ub3lyp empiricaldispersi
 on=gd3bj\\theory_abbreviation b3lyp_d3bj\\0,6\O,0,-0.309942,-0.181048,
 -0.746206\C,0,-1.2103,-1.101245,-0.601815\C,0,-2.831381,-0.248555,0.42
 5327\C,0,-2.491269,0.972827,-0.103645\C,0,-2.961732,1.416738,-1.450262
 \Fe,0,1.42125,0.117667,-0.006714\Cl,0,2.001532,2.078425,-0.796261\C,0,
 -1.607487,1.943421,0.600318\Cl,0,2.61781,-1.586943,-0.6981\Cl,0,1.1875
 35,0.122298,2.198033\H,0,-3.604873,-0.802108,-0.103734\H,0,-2.223567,2
 .796204,0.921413\H,0,-1.10974,1.533628,1.477224\H,0,-0.850272,2.341409
 ,-0.084501\H,0,-3.398192,2.419811,-1.365498\H,0,-2.101782,1.512422,-2.
 126474\H,0,-3.705967,0.749829,-1.889355\C,0,-2.725075,-0.555753,1.9045
 74\H,0,-3.499606,0.000712,2.446789\H,0,-2.892972,-1.616837,2.100309\H,
 0,-1.758317,-0.280858,2.33171\C,0,-0.910841,-2.231177,0.359095\H,0,-1.
 764799,-2.895572,0.502786\H,0,-0.101216,-2.802684,-0.115734\H,0,-0.536
 546,-1.874883,1.317889\C,0,-1.871274,-1.545962,-1.892433\H,0,-1.121717
 ,-2.159974,-2.408282\H,0,-2.758332,-2.159929,-1.723117\H,0,-2.105835,-
 0.708157,-2.546595\\Version=ES64L-G16RevA.03\HF=-3034.3978027\S2=8.761
 596\S2-1=0.\S2A=8.750042\RMSD=3.920e-09\PG=C01 [X(C8H16Cl3Fe1O1)]\\@


 DEPRESSION IS WAITING FOR YOUR SHIP TO COME IN,
 AND FINDING OUT IT'S THE TITANIC.
 Job cpu time:       0 days  0 hours  4 minutes 40.4 seconds.
 Elapsed time:       0 days  0 hours  1 minutes 10.6 seconds.
 File lengths (MBytes):  RWF=    170 Int=      0 D2E=      0 Chk=     13 Scr=      1
 Normal termination of Gaussian 16 at Tue Feb 11 14:16:21 2020.
 Initial command:
 /n/sw/g16_nehalem/g16/l1.exe "/scratch/Gau-425460.inp" -scrdir="/scratch/"
 Entering Link 1 = /n/sw/g16_nehalem/g16/l1.exe PID=    429232.
  
 Copyright (c) 1988,1990,1992,1993,1995,1998,2003,2009,2016,
            Gaussian, Inc.  All Rights Reserved.
  
 This is part of the Gaussian(R) 16 program.  It is based on
 the Gaussian(R) 09 system (copyright 2009, Gaussian, Inc.),
 the Gaussian(R) 03 system (copyright 2003, Gaussian, Inc.),
 the Gaussian(R) 98 system (copyright 1998, Gaussian, Inc.),
 the Gaussian(R) 94 system (copyright 1995, Gaussian, Inc.),
 the Gaussian 92(TM) system (copyright 1992, Gaussian, Inc.),
 the Gaussian 90(TM) system (copyright 1990, Gaussian, Inc.),
 the Gaussian 88(TM) system (copyright 1988, Gaussian, Inc.),
 the Gaussian 86(TM) system (copyright 1986, Carnegie Mellon
 University), and the Gaussian 82(TM) system (copyright 1983,
 Carnegie Mellon University). Gaussian is a federally registered
 trademark of Gaussian, Inc.
  
 This software contains proprietary and confidential information,
 including trade secrets, belonging to Gaussian, Inc.
  
 This software is provided under written license and may be
 used, copied, transmitted, or stored only in accord with that
 written license.
  
 The following legend is applicable only to US Government
 contracts under FAR:
  
                    RESTRICTED RIGHTS LEGEND
  
 Use, reproduction and disclosure by the US Government is
 subject to restrictions as set forth in subparagraphs (a)
 and (c) of the Commercial Computer Software - Restricted
 Rights clause in FAR 52.227-19.
  
 Gaussian, Inc.
 340 Quinnipiac St., Bldg. 40, Wallingford CT 06492
  
  
 ---------------------------------------------------------------
 Warning -- This program may not be used in any manner that
 competes with the business of Gaussian, Inc. or will provide
 assistance to any competitor of Gaussian, Inc.  The licensee
 of this program is prohibited from giving any competitor of
 Gaussian, Inc. access to this program.  By using this program,
 the user acknowledges that Gaussian, Inc. is engaged in the
 business of creating and licensing software in the field of
 computational chemistry and represents and warrants to the
 licensee that it is not a competitor of Gaussian, Inc. and that
 it will not use this program in any manner prohibited above.
 ---------------------------------------------------------------
  

 Cite this work as:
 Gaussian 16, Revision A.03,
 M. J. Frisch, G. W. Trucks, H. B. Schlegel, G. E. Scuseria, 
 M. A. Robb, J. R. Cheeseman, G. Scalmani, V. Barone, 
 G. A. Petersson, H. Nakatsuji, X. Li, M. Caricato, A. V. Marenich, 
 J. Bloino, B. G. Janesko, R. Gomperts, B. Mennucci, H. P. Hratchian, 
 J. V. Ortiz, A. F. Izmaylov, J. L. Sonnenberg, D. Williams-Young, 
 F. Ding, F. Lipparini, F. Egidi, J. Goings, B. Peng, A. Petrone, 
 T. Henderson, D. Ranasinghe, V. G. Zakrzewski, J. Gao, N. Rega, 
 G. Zheng, W. Liang, M. Hada, M. Ehara, K. Toyota, R. Fukuda, 
 J. Hasegawa, M. Ishida, T. Nakajima, Y. Honda, O. Kitao, H. Nakai, 
 T. Vreven, K. Throssell, J. A. Montgomery, Jr., J. E. Peralta, 
 F. Ogliaro, M. J. Bearpark, J. J. Heyd, E. N. Brothers, K. N. Kudin, 
 V. N. Staroverov, T. A. Keith, R. Kobayashi, J. Normand, 
 K. Raghavachari, A. P. Rendell, J. C. Burant, S. S. Iyengar, 
 J. Tomasi, M. Cossi, J. M. Millam, M. Klene, C. Adamo, R. Cammi, 
 J. W. Ochterski, R. L. Martin, K. Morokuma, O. Farkas, 
 J. B. Foresman, and D. J. Fox, Gaussian, Inc., Wallingford CT, 2016.
 
 ******************************************
 Gaussian 16:  ES64L-G16RevA.03 25-Dec-2016
                11-Feb-2020 
 ******************************************
 %chk=checkpoint.chk
 %mem=3GB
 %nprocshared=4
 Will use up to    4 processors via shared memory.
 ----------------------------------------
 #t pop=none jul-cc-pvdz guess=read ub97d
 ----------------------------------------
 ------------------------
 theory_abbreviation b97d
 ------------------------
 Symbolic Z-matrix:
 Charge =  0 Multiplicity = 6
 O                    -0.30994  -0.18105  -0.74621 
 C                    -1.2103   -1.10125  -0.60182 
 C                    -2.83138  -0.24856   0.42533 
 C                    -2.49127   0.97283  -0.10365 
 C                    -2.96173   1.41674  -1.45026 
 Fe                    1.42125   0.11767  -0.00671 
 Cl                    2.00153   2.07843  -0.79626 
 C                    -1.60749   1.94342   0.60032 
 Cl                    2.61781  -1.58694  -0.6981 
 Cl                    1.18754   0.1223    2.19803 
 H                    -3.60487  -0.80211  -0.10373 
 H                    -2.22357   2.7962    0.92141 
 H                    -1.10974   1.53363   1.47722 
 H                    -0.85027   2.34141  -0.0845 
 H                    -3.39819   2.41981  -1.3655 
 H                    -2.10178   1.51242  -2.12647 
 H                    -3.70597   0.74983  -1.88936 
 C                    -2.72508  -0.55575   1.90457 
 H                    -3.49961   0.00071   2.44679 
 H                    -2.89297  -1.61684   2.10031 
 H                    -1.75832  -0.28086   2.33171 
 C                    -0.91084  -2.23118   0.3591 
 H                    -1.7648   -2.89557   0.50279 
 H                    -0.10122  -2.80268  -0.11573 
 H                    -0.53655  -1.87488   1.31789 
 C                    -1.87127  -1.54596  -1.89243 
 H                    -1.12172  -2.15997  -2.40828 
 H                    -2.75833  -2.15993  -1.72312 
 H                    -2.10583  -0.70816  -2.5466 
 
                    Distance matrix (angstroms):
                    1          2          3          4          5
     1  O    0.000000
     2  C    1.295475   0.000000
     3  C    2.781133   2.100001   0.000000
     4  C    2.550000   2.488138   1.373776   0.000000
     5  C    3.174997   3.182391   2.511578   1.493911   0.000000
     6  Fe   1.906071   2.960565   4.290180   4.006058   4.793949
     7  Cl   3.232744   4.523713   5.501287   4.678389   5.049707
     8  C    2.830215   3.297404   2.516604   1.489526   2.513216
     9  Cl   3.248167   3.860000   5.722504   5.745301   6.381155
    10  Cl   3.317077   3.884047   4.408141   4.422072   5.674685
    11  H    3.413950   2.464051   1.088401   2.095354   2.673957
    12  H    3.912409   4.305467   3.144216   2.108818   2.841242
    13  H    2.919492   3.357837   2.691972   2.173078   3.466080
    14  H    2.663193   3.499871   3.300399   2.136880   2.679288
    15  H    4.084762   4.215201   3.263205   2.123333   1.097195
    16  H    2.825539   3.154454   3.185128   2.129484   1.098149
    17  H    3.702203   3.363419   2.668225   2.171170   1.091538
    18  C    3.605538   2.978941   1.514544   2.534594   3.898930
    19  H    4.516881   3.968528   2.143587   2.909719   4.181082
    20  H    4.103192   3.224701   2.163690   3.424199   4.670531
    21  H    3.403134   3.094984   2.187877   2.835472   4.316637
    22  C    2.405369   1.513199   2.761096   3.602433   4.559299
    23  H    3.323437   2.178812   2.854872   3.982465   4.882936
    24  H    2.704448   2.088357   3.777582   4.468443   5.269444
    25  H    2.679723   2.176631   2.950911   3.735124   4.937505
    26  C    2.369511   1.516692   2.824373   3.150945   3.187821
    27  H    2.708805   2.095728   3.821755   4.123283   4.134770
    28  H    3.296201   2.185070   2.876543   3.536689   3.592822
    29  H    2.597013   2.176849   3.093537   2.990363   2.539623
                    6          7          8          9         10
     6  Fe   0.000000
     7  Cl   2.191959   0.000000
     8  C    3.588191   3.872167   0.000000
     9  Cl   2.194417   3.718112   5.657075   0.000000
    10  Cl   2.217105   3.668081   3.698828   3.654419   0.000000
    11  H    5.110510   6.341044   3.467444   6.300081   5.396279
    12  H    4.617431   4.617042   1.099952   6.728576   4.518313
    13  H    3.257749   3.891729   1.088415   5.325845   2.790858
    14  H    3.179763   2.951025   1.095786   5.275988   3.779824
    15  H    5.511187   5.440367   2.701482   7.258910   6.245495
    16  H    4.341714   4.350519   2.804547   5.824162   5.608334
    17  H    5.498393   5.961172   3.467961   6.846148   6.406785
    18  C    4.615033   6.047662   3.032484   6.031889   3.981757
    19  H    5.499834   6.715414   3.280806   7.059303   4.695312
    20  H    5.104955   6.782422   4.071594   6.180672   4.436742
    21  H    3.966950   5.430183   2.822744   5.480520   2.976315
    22  C    3.330095   5.328174   4.239195   3.739529   3.650167
    23  H    4.414760   6.372866   4.842532   4.728837   4.549470
    24  H    3.295184   5.358161   5.030616   3.034844   3.945873
    25  H    3.091568   5.151710   4.030046   3.754608   2.781338
    26  C    4.142983   5.416309   4.296415   4.645426   5.373204
    27  H    4.173950   5.506117   5.111311   4.151765   5.635561
    28  H    5.059880   6.440420   4.853893   5.502897   6.012807
    29  H    4.424173   5.263000   4.145151   5.148011   5.835018
                   11         12         13         14         15
    11  H    0.000000
    12  H    3.988331   0.000000
    13  H    3.765738   1.773030   0.000000
    14  H    4.179700   1.761999   1.777307   0.000000
    15  H    3.466342   2.598341   3.755450   2.852893   0.000000
    16  H    3.421668   3.309463   3.737812   2.534394   1.755881
    17  H    2.367947   3.779627   4.323030   3.734383   1.777074
    18  C    2.206363   3.528984   2.675341   3.983071   4.472185
    19  H    2.675961   3.430718   3.000225   4.348018   4.516177
    20  H    2.455278   4.616582   3.673361   4.961223   5.344305
    21  H    3.100461   3.416681   2.107880   3.679525   4.863348
    22  C    3.084519   5.226281   3.932370   4.594452   5.549128
    23  H    2.852425   5.725559   4.582188   5.348573   5.866153
    24  H    4.034608   6.076808   4.728450   5.198438   6.301303
    25  H    3.547744   4.982197   3.460041   4.454463   5.816698
    26  C    2.599640   5.186159   4.628001   4.407121   4.282113
    27  H    3.649768   6.071626   5.360970   5.073075   5.219595
    28  H    2.276557   5.642940   5.157752   5.156336   4.638031
    29  H    2.867667   4.931682   4.712635   4.115604   3.584600
                   16         17         18         19         20
    16  H    0.000000
    17  H    1.791977   0.000000
    18  C    4.573313   4.130447   0.000000
    19  H    5.015368   4.405213   1.097064   0.000000
    20  H    5.318265   4.709510   1.091971   1.761964   0.000000
    21  H    4.817595   4.761622   1.092078   1.767657   1.768001
    22  C    4.648755   4.664188   2.913245   4.005184   2.708890
    23  H    5.143635   4.772779   2.891694   3.895788   2.336668
    24  H    5.163863   5.362864   4.001872   5.096529   3.756459
    25  H    5.078133   5.217351   2.621824   3.684019   2.496300
    26  C    3.075975   2.938837   4.015813   4.885951   4.121999
    27  H    3.811356   3.926141   4.872885   5.821910   4.874396
[...]
       nuclear repulsion energy      1648.9475058180 Hartrees.
 NAtoms=   29 NActive=   29 NUniq=   29 SFac= 1.00D+00 NAtFMM=   60 NAOKFM=F Big=F
 Nuclear repulsion after empirical dispersion term =     1648.9450777093 Hartrees.
 Initial guess from the checkpoint file:  "checkpoint.chk"
 B after Tr=     0.000000    0.000000    0.000000
         Rot=    1.000000    0.000000    0.000000    0.000000 Ang=   0.00 deg.
 Initial guess <Sx>= 0.0000 <Sy>= 0.0000 <Sz>= 2.5000 <S**2>= 8.7613 S= 2.5019
 SCF Done:  E(UM06L) =  -3034.19546642     A.U. after   18 cycles
            NFock= 18  Conv=0.18D-08     -V/T= 2.0020
 <Sx>= 0.0000 <Sy>= 0.0000 <Sz>= 2.5000 <S**2>= 8.7614 S= 2.5019
 <L.S>= 0.000000000000E+00
 Annihilation of the first spin contaminant:
 S**2 before annihilation     8.7614,   after     8.7500
 1\1\GINC-HOLY7C08610\SP\UM06L\Jul-CC-pVDZ\C8H16Cl3Fe1O1(6)\EKWAN\11-Fe
 b-2020\0\\#t pop=none jul-cc-pvdz guess=read um06l empiricaldispersion
 =gd3\\theory_abbreviation m06l_d3\\0,6\O,0,-0.309942,-0.181048,-0.7462
 06\C,0,-1.2103,-1.101245,-0.601815\C,0,-2.831381,-0.248555,0.425327\C,
 0,-2.491269,0.972827,-0.103645\C,0,-2.961732,1.416738,-1.450262\Fe,0,1
 .42125,0.117667,-0.006714\Cl,0,2.001532,2.078425,-0.796261\C,0,-1.6074
 87,1.943421,0.600318\Cl,0,2.61781,-1.586943,-0.6981\Cl,0,1.187535,0.12
 2298,2.198033\H,0,-3.604873,-0.802108,-0.103734\H,0,-2.223567,2.796204
 ,0.921413\H,0,-1.10974,1.533628,1.477224\H,0,-0.850272,2.341409,-0.084
 501\H,0,-3.398192,2.419811,-1.365498\H,0,-2.101782,1.512422,-2.126474\
 H,0,-3.705967,0.749829,-1.889355\C,0,-2.725075,-0.555753,1.904574\H,0,
 -3.499606,0.000712,2.446789\H,0,-2.892972,-1.616837,2.100309\H,0,-1.75
 8317,-0.280858,2.33171\C,0,-0.910841,-2.231177,0.359095\H,0,-1.764799,
 -2.895572,0.502786\H,0,-0.101216,-2.802684,-0.115734\H,0,-0.536546,-1.
 874883,1.317889\C,0,-1.871274,-1.545962,-1.892433\H,0,-1.121717,-2.159
 974,-2.408282\H,0,-2.758332,-2.159929,-1.723117\H,0,-2.105835,-0.70815
 7,-2.546595\\Version=ES64L-G16RevA.03\HF=-3034.1954664\S2=8.761418\S2-
 1=0.\S2A=8.750042\RMSD=1.834e-09\PG=C01 [X(C8H16Cl3Fe1O1)]\\@


      THE ONE-EYED VIEW OF OUR UNIVERSE SAYS YOU MUST NOT LOOK
      FAR AFIELD FOR PROBLEMS.  SUCH PROBLEMS MAY NEVER ARRIVE. 
      INSTEAD, TEND TO THE WOLF WITHIN YOUR FENCES.
      THE PACKS RANGING OUTSIDE MAY NOT EVEN EXIST.

                              -- THE AZHAR BOOK SHAMRA I:4
                                 CHILDREN OF DUNE, BY FRANK HERBERT
 Job cpu time:       0 days  1 hours 19 minutes 11.6 seconds.
 Elapsed time:       0 days  0 hours 19 minutes 51.4 seconds.
 File lengths (MBytes):  RWF=    174 Int=      0 D2E=      0 Chk=     13 Scr=      1
 Normal termination of Gaussian 16 at Tue Feb 11 23:52:09 2020.
 Initial command:
 /n/sw/g16_nehalem/g16/l1.exe "/scratch/Gau-425460.inp" -scrdir="/scratch/"
 Entering Link 1 = /n/sw/g16_nehalem/g16/l1.exe PID=     24975.
  
 Copyright (c) 1988,1990,1992,1993,1995,1998,2003,2009,2016,
            Gaussian, Inc.  All Rights Reserved.
  
 This is part of the Gaussian(R) 16 program.  It is based on
 the Gaussian(R) 09 system (copyright 2009, Gaussian, Inc.),
 the Gaussian(R) 03 system (copyright 2003, Gaussian, Inc.),
 the Gaussian(R) 98 system (copyright 1998, Gaussian, Inc.),
 the Gaussian(R) 94 system (copyright 1995, Gaussian, Inc.),
 the Gaussian 92(TM) system (copyright 1992, Gaussian, Inc.),
 the Gaussian 90(TM) system (copyright 1990, Gaussian, Inc.),
 the Gaussian 88(TM) system (copyright 1988, Gaussian, Inc.),
 the Gaussian 86(TM) system (copyright 1986, Carnegie Mellon
 University), and the Gaussian 82(TM) system (copyright 1983,
 Carnegie Mellon University). Gaussian is a federally registered
 trademark of Gaussian, Inc.
  
 This software contains proprietary and confidential information,
 including trade secrets, belonging to Gaussian, Inc.
  
 This software is provided under written license and may be
 used, copied, transmitted, or stored only in accord with that
 written license.
  
 The following legend is applicable only to US Government
 contracts under FAR:
  
                    RESTRICTED RIGHTS LEGEND
  
 Use, reproduction and disclosure by the US Government is
 subject to restrictions as set forth in subparagraphs (a)
 and (c) of the Commercial Computer Software - Restricted
 Rights clause in FAR 52.227-19.
  
 Gaussian, Inc.
 340 Quinnipiac St., Bldg. 40, Wallingford CT 06492
  
  
 ---------------------------------------------------------------
 Warning -- This program may not be used in any manner that
 competes with the business of Gaussian, Inc. or will provide
 assistance to any competitor of Gaussian, Inc.  The licensee
 of this program is prohibited from giving any competitor of
 Gaussian, Inc. access to this program.  By using this program,
 the user acknowledges that Gaussian, Inc. is engaged in the
 business of creating and licensing software in the field of
 computational chemistry and represents and warrants to the
 licensee that it is not a competitor of Gaussian, Inc. and that
 it will not use this program in any manner prohibited above.
 ---------------------------------------------------------------
  

 Cite this work as:
 Gaussian 16, Revision A.03,
 M. J. Frisch, G. W. Trucks, H. B. Schlegel, G. E. Scuseria, 
 M. A. Robb, J. R. Cheeseman, G. Scalmani, V. Barone, 
 G. A. Petersson, H. Nakatsuji, X. Li, M. Caricato, A. V. Marenich, 
 J. Bloino, B. G. Janesko, R. Gomperts, B. Mennucci, H. P. Hratchian, 
 J. V. Ortiz, A. F. Izmaylov, J. L. Sonnenberg, D. Williams-Young, 
 F. Ding, F. Lipparini, F. Egidi, J. Goings, B. Peng, A. Petrone, 
 T. Henderson, D. Ranasinghe, V. G. Zakrzewski, J. Gao, N. Rega, 
 G. Zheng, W. Liang, M. Hada, M. Ehara, K. Toyota, R. Fukuda, 
 J. Hasegawa, M. Ishida, T. Nakajima, Y. Honda, O. Kitao, H. Nakai, 
 T. Vreven, K. Throssell, J. A. Montgomery, Jr., J. E. Peralta, 
 F. Ogliaro, M. J. Bearpark, J. J. Heyd, E. N. Brothers, K. N. Kudin, 
 V. N. Staroverov, T. A. Keith, R. Kobayashi, J. Normand, 
 K. Raghavachari, A. P. Rendell, J. C. Burant, S. S. Iyengar, 
 J. Tomasi, M. Cossi, J. M. Millam, M. Klene, C. Adamo, R. Cammi, 
 J. W. Ochterski, R. L. Martin, K. Morokuma, O. Farkas, 
 J. B. Foresman, and D. J. Fox, Gaussian, Inc., Wallingford CT, 2016.
 
 ******************************************
 Gaussian 16:  ES64L-G16RevA.03 25-Dec-2016
                11-Feb-2020 
 ******************************************
 %chk=checkpoint.chk
 %mem=3GB
 %nprocshared=4
 Will use up to    4 processors via shared memory.
 -------------------------------------------------------------------
 #t pop=none jul-cc-pvdz guess=read ub97d3 empiricaldispersion=gd3bj
 -------------------------------------------------------------------
 ------------------------------
 theory_abbreviation b97d3_d3bj
 ------------------------------
 Symbolic Z-matrix:
 Charge =  0 Multiplicity = 6
 O                    -0.30994  -0.18105  -0.74621 
 C                    -1.2103   -1.10125  -0.60182 
 C                    -2.83138  -0.24856   0.42533 
 C                    -2.49127   0.97283  -0.10365 
 C                    -2.96173   1.41674  -1.45026 
 Fe                    1.42125   0.11767  -0.00671 
 Cl                    2.00153   2.07843  -0.79626 
 C                    -1.60749   1.94342   0.60032 
 Cl                    2.61781  -1.58694  -0.6981 
 Cl                    1.18754   0.1223    2.19803 
 H                    -3.60487  -0.80211  -0.10373 
 H                    -2.22357   2.7962    0.92141 
 H                    -1.10974   1.53363   1.47722 
 H                    -0.85027   2.34141  -0.0845 
 H                    -3.39819   2.41981  -1.3655 
 H                    -2.10178   1.51242  -2.12647 
 H                    -3.70597   0.74983  -1.88936 
 C                    -2.72508  -0.55575   1.90457 
 H                    -3.49961   0.00071   2.44679 
 H                    -2.89297  -1.61684   2.10031 
 H                    -1.75832  -0.28086   2.33171 
 C                    -0.91084  -2.23118   0.3591 
 H                    -1.7648   -2.89557   0.50279 
 H                    -0.10122  -2.80268  -0.11573 
 H                    -0.53655  -1.87488   1.31789 
 C                    -1.87127  -1.54596  -1.89243 
 H                    -1.12172  -2.15997  -2.40828 
 H                    -2.75833  -2.15993  -1.72312 
 H                    -2.10583  -0.70816  -2.5466 
 
                    Distance matrix (angstroms):
                    1          2          3          4          5
     1  O    0.000000
     2  C    1.295475   0.000000
     3  C    2.781133   2.100001   0.000000
     4  C    2.550000   2.488138   1.373776   0.000000
     5  C    3.174997   3.182391   2.511578   1.493911   0.000000
     6  Fe   1.906071   2.960565   4.290180   4.006058   4.793949
     7  Cl   3.232744   4.523713   5.501287   4.678389   5.049707
     8  C    2.830215   3.297404   2.516604   1.489526   2.513216
     9  Cl   3.248167   3.860000   5.722504   5.745301   6.381155
    10  Cl   3.317077   3.884047   4.408141   4.422072   5.674685
    11  H    3.413950   2.464051   1.088401   2.095354   2.673957
    12  H    3.912409   4.305467   3.144216   2.108818   2.841242
    13  H    2.919492   3.357837   2.691972   2.173078   3.466080
    14  H    2.663193   3.499871   3.300399   2.136880   2.679288
    15  H    4.084762   4.215201   3.263205   2.123333   1.097195
    16  H    2.825539   3.154454   3.185128   2.129484   1.098149
    17  H    3.702203   3.363419   2.668225   2.171170   1.091538
    18  C    3.605538   2.978941   1.514544   2.534594   3.898930
    19  H    4.516881   3.968528   2.143587   2.909719   4.181082
    20  H    4.103192   3.224701   2.163690   3.424199   4.670531
    21  H    3.403134   3.094984   2.187877   2.835472   4.316637
    22  C    2.405369   1.513199   2.761096   3.602433   4.559299
    23  H    3.323437   2.178812   2.854872   3.982465   4.882936
    24  H    2.704448   2.088357   3.777582   4.468443   5.269444
    25  H    2.679723   2.176631   2.950911   3.735124   4.937505
    26  C    2.369511   1.516692   2.824373   3.150945   3.187821
    27  H    2.708805   2.095728   3.821755   4.123283   4.134770
    28  H    3.296201   2.185070   2.876543   3.536689   3.592822
    29  H    2.597013   2.176849   3.093537   2.990363   2.539623
                    6          7          8          9         10
     6  Fe   0.000000
     7  Cl   2.191959   0.000000
     8  C    3.588191   3.872167   0.000000
     9  Cl   2.194417   3.718112   5.657075   0.000000
    10  Cl   2.217105   3.668081   3.698828   3.654419   0.000000
    11  H    5.110510   6.341044   3.467444   6.300081   5.396279
    12  H    4.617431   4.617042   1.099952   6.728576   4.518313
    13  H    3.257749   3.891729   1.088415   5.325845   2.790858
    14  H    3.179763   2.951025   1.095786   5.275988   3.779824
    15  H    5.511187   5.440367   2.701482   7.258910   6.245495
    16  H    4.341714   4.350519   2.804547   5.824162   5.608334
    17  H    5.498393   5.961172   3.467961   6.846148   6.406785
    18  C    4.615033   6.047662   3.032484   6.031889   3.981757
    19  H    5.499834   6.715414   3.280806   7.059303   4.695312
    20  H    5.104955   6.782422   4.071594   6.180672   4.436742
    21  H    3.966950   5.430183   2.822744   5.480520   2.976315
    22  C    3.330095   5.328174   4.239195   3.739529   3.650167
    23  H    4.414760   6.372866   4.842532   4.728837   4.549470
    24  H    3.295184   5.358161   5.030616   3.034844   3.945873
    25  H    3.091568   5.151710   4.030046   3.754608   2.781338
    26  C    4.142983   5.416309   4.296415   4.645426   5.373204
    27  H    4.173950   5.506117   5.111311   4.151765   5.635561
    28  H    5.059880   6.440420   4.853893   5.502897   6.012807
    29  H    4.424173   5.263000   4.145151   5.148011   5.835018
                   11         12         13         14         15
    11  H    0.000000
    12  H    3.988331   0.000000
    13  H    3.765738   1.773030   0.000000
    14  H    4.179700   1.761999   1.777307   0.000000
    15  H    3.466342   2.598341   3.755450   2.852893   0.000000
    16  H    3.421668   3.309463   3.737812   2.534394   1.755881
    17  H    2.367947   3.779627   4.323030   3.734383   1.777074
    18  C    2.206363   3.528984   2.675341   3.983071   4.472185
    19  H    2.675961   3.430718   3.000225   4.348018   4.516177
    20  H    2.455278   4.616582   3.673361   4.961223   5.344305
    21  H    3.100461   3.416681   2.107880   3.679525   4.863348
    22  C    3.084519   5.226281   3.932370   4.594452   5.549128
    23  H    2.852425   5.725559   4.582188   5.348573   5.866153
    24  H    4.034608   6.076808   4.728450   5.198438   6.301303
    25  H    3.547744   4.982197   3.460041   4.454463   5.816698
    26  C    2.599640   5.186159   4.628001   4.407121   4.282113
    27  H    3.649768   6.071626   5.360970   5.073075   5.219595
    28  H    2.276557   5.642940   5.157752   5.156336   4.638031
    29  H    2.867667   4.931682   4.712635   4.115604   3.584600
                   16         17         18         19         20
    16  H    0.000000
    17  H    1.791977   0.000000
    18  C    4.573313   4.130447   0.000000
    19  H    5.015368   4.405213   1.097064   0.000000
    20  H    5.318265   4.709510   1.091971   1.761964   0.000000
    21  H    4.817595   4.761622   1.092078   1.767657   1.768001
    22  C    4.648755   4.664188   2.913245   4.005184   2.708890
    23  H    5.143635   4.772779   2.891694   3.895788   2.336668
    24  H    5.163863   5.362864   4.001872   5.096529   3.756459
    25  H    5.078133   5.217351   2.621824   3.684019   2.496300
    26  C    3.075975   2.938837   4.015813   4.885951   4.121999
    27  H    3.811356   3.926141   4.872885   5.821910   4.874396
    28  H    3.752321   3.064692   3.966690   4.754574   3.864151
    29  H    2.259975   2.262324   4.496620   5.232492   4.799896
                   21         22         23         24         25
    21  H    0.000000
    22  C    2.900546   0.000000
    23  H    3.190883   1.091472   0.000000
    24  H    3.885302   1.098897   1.777274   0.000000
    25  H    2.249772   1.089187   1.792988   1.762272   0.000000
    26  C    4.410967   2.541915   2.751338   2.805194   3.492256
    27  H    5.138469   2.776313   3.070664   2.590420   3.782599
    28  H    4.579581   2.784584   2.546158   3.171290   3.776943
    29  H    4.909299   3.491509   3.768264   3.783467   4.331068
                   26         27         28         29
    26  C    0.000000
    27  H    1.097701   0.000000
    28  H    1.092014   1.774249   0.000000
    29  H    1.088515   1.759372   1.792069   0.000000
 Framework group  C1[X(C8H16Cl3FeO)]
 Deg. of freedom    81
                         Standard orientation:                         
 ---------------------------------------------------------------------
 Center     Atomic      Atomic             Coordinates (Angstroms)
 Number     Number       Type             X           Y           Z
 ---------------------------------------------------------------------
      1          8           0       -0.309942   -0.181048   -0.746206
      2          6           0       -1.210300   -1.101245   -0.601815
      3          6           0       -2.831381   -0.248555    0.425327
      4          6           0       -2.491269    0.972827   -0.103645
      5          6           0       -2.961732    1.416738   -1.450262
      6         26           0        1.421250    0.117667   -0.006714
      7         17           0        2.001532    2.078425   -0.796261
      8          6           0       -1.607487    1.943421    0.600318
      9         17           0        2.617810   -1.586943   -0.698100
     10         17           0        1.187535    0.122298    2.198033
     11          1           0       -3.604873   -0.802108   -0.103734
     12          1           0       -2.223567    2.796204    0.921413
     13          1           0       -1.109740    1.533628    1.477224
     14          1           0       -0.850272    2.341409   -0.084501
     15          1           0       -3.398192    2.419811   -1.365498
     16          1           0       -2.101782    1.512422   -2.126474
     17          1           0       -3.705967    0.749830   -1.889355
     18          6           0       -2.725075   -0.555753    1.904574
     19          1           0       -3.499606    0.000712    2.446789
     20          1           0       -2.892972   -1.616837    2.100309
     21          1           0       -1.758317   -0.280858    2.331710
     22          6           0       -0.910841   -2.231177    0.359095
     23          1           0       -1.764799   -2.895572    0.502786
     24          1           0       -0.101216   -2.802684   -0.115734
     25          1           0       -0.536546   -1.874883    1.317889
     26          6           0       -1.871274   -1.545962   -1.892433
     27          1           0       -1.121717   -2.159974   -2.408282
     28          1           0       -2.758332   -2.159929   -1.723117
     29          1           0       -2.105835   -0.708157   -2.546595
 ---------------------------------------------------------------------
 Rotational constants (GHZ):           0.5779120           0.3412822           0.3198839
   427 basis functions,  1056 primitive gaussians,   461 cartesian basis functions
    77 alpha electrons       72 beta electrons
       nuclear repulsion energy      1648.9475058180 Hartrees.
 NAtoms=   29 NActive=   29 NUniq=   29 SFac= 1.00D+00 NAtFMM=   60 NAOKFM=F Big=F
 Nuclear repulsion after empirical dispersion term =     1648.8442054276 Hartrees.
 Initial guess from the checkpoint file:  "checkpoint.chk"
 B after Tr=     0.000000    0.000000    0.000000
         Rot=    1.000000    0.000000    0.000000    0.000000 Ang=   0.00 deg.
 Initial guess <Sx>= 0.0000 <Sy>= 0.0000 <Sz>= 2.5000 <S**2>= 8.7614 S= 2.5019
 EnCoef did     1 forward-backward iterations
 SCF Done:  E(UB97D3) =  -3034.61760807     A.U. after   15 cycles
            NFock= 15  Conv=0.70D-08     -V/T= 2.0019
 <Sx>= 0.0000 <Sy>= 0.0000 <Sz>= 2.5000 <S**2>= 8.7594 S= 2.5016
 <L.S>= 0.000000000000E+00
 Annihilation of the first spin contaminant:
 S**2 before annihilation     8.7594,   after     8.7500
 1\1\GINC-HOLY7C08610\SP\UB97D3\Jul-CC-pVDZ\C8H16Cl3Fe1O1(6)\EKWAN\12-F
 eb-2020\0\\#t pop=none jul-cc-pvdz guess=read ub97d3 empiricaldispersi
 on=gd3bj\\theory_abbreviation b97d3_d3bj\\0,6\O,0,-0.309942,-0.181048,
 -0.746206\C,0,-1.2103,-1.101245,-0.601815\C,0,-2.831381,-0.248555,0.42
 5327\C,0,-2.491269,0.972827,-0.103645\C,0,-2.961732,1.416738,-1.450262
 \Fe,0,1.42125,0.117667,-0.006714\Cl,0,2.001532,2.078425,-0.796261\C,0,
 -1.607487,1.943421,0.600318\Cl,0,2.61781,-1.586943,-0.6981\Cl,0,1.1875
 35,0.122298,2.198033\H,0,-3.604873,-0.802108,-0.103734\H,0,-2.223567,2
 .796204,0.921413\H,0,-1.10974,1.533628,1.477224\H,0,-0.850272,2.341409
 ,-0.084501\H,0,-3.398192,2.419811,-1.365498\H,0,-2.101782,1.512422,-2.
 126474\H,0,-3.705967,0.749829,-1.889355\C,0,-2.725075,-0.555753,1.9045
 74\H,0,-3.499606,0.000712,2.446789\H,0,-2.892972,-1.616837,2.100309\H,
 0,-1.758317,-0.280858,2.33171\C,0,-0.910841,-2.231177,0.359095\H,0,-1.
 764799,-2.895572,0.502786\H,0,-0.101216,-2.802684,-0.115734\H,0,-0.536
 546,-1.874883,1.317889\C,0,-1.871274,-1.545962,-1.892433\H,0,-1.121717
 ,-2.159974,-2.408282\H,0,-2.758332,-2.159929,-1.723117\H,0,-2.105835,-
 0.708157,-2.546595\\Version=ES64L-G16RevA.03\HF=-3034.6176081\S2=8.759
 441\S2-1=0.\S2A=8.750028\RMSD=7.003e-09\PG=C01 [X(C8H16Cl3Fe1O1)]\\@


 IF YOU GET CONFUSED, LOGIC OUT YOUR DILEMMA

           --  PICKER X-RAY CORP.    DIGITAL PRINTER MANUAL CA. 1964
 Job cpu time:       0 days  0 hours 50 minutes 31.2 seconds.
 Elapsed time:       0 days  0 hours 12 minutes 54.2 seconds.
 File lengths (MBytes):  RWF=    174 Int=      0 D2E=      0 Chk=     13 Scr=      1
 Normal termination of Gaussian 16 at Wed Feb 12 00:05:03 2020.
