 Entering Gaussian System, Link 0=g16
 Input=simple-grid-165-260-b3lyp_d3bj-631gd-gas-singlepoint-DFT-juldz2-gas.gjf
 Output=simple-grid-165-260-b3lyp_d3bj-631gd-gas-singlepoint-DFT-juldz2-gas.out
 Initial command:
 /n/sw/g16_nehalem/g16/l1.exe "/scratch/Gau-454444.inp" -scrdir="/scratch/"
 Entering Link 1 = /n/sw/g16_nehalem/g16/l1.exe PID=    454446.
  
 Copyright (c) 1988,1990,1992,1993,1995,1998,2003,2009,2016,
            Gaussian, Inc.  All Rights Reserved.
  
 This is part of the Gaussian(R) 16 program.  It is based on
 the Gaussian(R) 09 system (copyright 2009, Gaussian, Inc.),
 the Gaussian(R) 03 system (copyright 2003, Gaussian, Inc.),
 the Gaussian(R) 98 system (copyright 1998, Gaussian, Inc.),
 the Gaussian(R) 94 system (copyright 1995, Gaussian, Inc.),
 the Gaussian 92(TM) system (copyright 1992, Gaussian, Inc.),
 the Gaussian 90(TM) system (copyright 1990, Gaussian, Inc.),
 the Gaussian 88(TM) system (copyright 1988, Gaussian, Inc.),
 the Gaussian 86(TM) system (copyright 1986, Carnegie Mellon
 University), and the Gaussian 82(TM) system (copyright 1983,
 Carnegie Mellon University). Gaussian is a federally registered
 trademark of Gaussian, Inc.
  
 This software contains proprietary and confidential information,
 including trade secrets, belonging to Gaussian, Inc.
  
 This software is provided under written license and may be
 used, copied, transmitted, or stored only in accord with that
 written license.
  
 The following legend is applicable only to US Government
 contracts under FAR:
  
                    RESTRICTED RIGHTS LEGEND
  
 Use, reproduction and disclosure by the US Government is
 subject to restrictions as set forth in subparagraphs (a)
 and (c) of the Commercial Computer Software - Restricted
 Rights clause in FAR 52.227-19.
  
 Gaussian, Inc.
 340 Quinnipiac St., Bldg. 40, Wallingford CT 06492
  
  
 ---------------------------------------------------------------
 Warning -- This program may not be used in any manner that
 competes with the business of Gaussian, Inc. or will provide
 assistance to any competitor of Gaussian, Inc.  The licensee
 of this program is prohibited from giving any competitor of
 Gaussian, Inc. access to this program.  By using this program,
 the user acknowledges that Gaussian, Inc. is engaged in the
 business of creating and licensing software in the field of
 computational chemistry and represents and warrants to the
 licensee that it is not a competitor of Gaussian, Inc. and that
 it will not use this program in any manner prohibited above.
 ---------------------------------------------------------------
  

 Cite this work as:
 Gaussian 16, Revision A.03,
 M. J. Frisch, G. W. Trucks, H. B. Schlegel, G. E. Scuseria, 
 M. A. Robb, J. R. Cheeseman, G. Scalmani, V. Barone, 
 G. A. Petersson, H. Nakatsuji, X. Li, M. Caricato, A. V. Marenich, 
 J. Bloino, B. G. Janesko, R. Gomperts, B. Mennucci, H. P. Hratchian, 
 J. V. Ortiz, A. F. Izmaylov, J. L. Sonnenberg, D. Williams-Young, 
 F. Ding, F. Lipparini, F. Egidi, J. Goings, B. Peng, A. Petrone, 
 T. Henderson, D. Ranasinghe, V. G. Zakrzewski, J. Gao, N. Rega, 
 G. Zheng, W. Liang, M. Hada, M. Ehara, K. Toyota, R. Fukuda, 
 J. Hasegawa, M. Ishida, T. Nakajima, Y. Honda, O. Kitao, H. Nakai, 
 T. Vreven, K. Throssell, J. A. Montgomery, Jr., J. E. Peralta, 
 F. Ogliaro, M. J. Bearpark, J. J. Heyd, E. N. Brothers, K. N. Kudin, 
 V. N. Staroverov, T. A. Keith, R. Kobayashi, J. Normand, 
 K. Raghavachari, A. P. Rendell, J. C. Burant, S. S. Iyengar, 
 J. Tomasi, M. Cossi, J. M. Millam, M. Klene, C. Adamo, R. Cammi, 
 J. W. Ochterski, R. L. Martin, K. Morokuma, O. Farkas, 
 J. B. Foresman, and D. J. Fox, Gaussian, Inc., Wallingford CT, 2016.
 
 ******************************************
 Gaussian 16:  ES64L-G16RevA.03 25-Dec-2016
                11-Feb-2020 
 ******************************************
 %chk=checkpoint.chk
 %mem=3GB
 %nprocshared=4
 Will use up to    4 processors via shared memory.
 --------------------------------
 #t pop=none jul-cc-pvdz upbe1pbe
 --------------------------------
 ------------------------
 theory_abbreviation pbe0
 ------------------------
 Symbolic Z-matrix:
 Charge =  0 Multiplicity = 6
 O                    -0.35367  -0.12386  -0.44965 
 C                    -1.26792  -1.1187   -0.29761 
 C                    -2.5008   -0.48633   0.59828 
 C                    -2.7627    0.77044  -0.05363 
 C                    -3.74757   0.86188  -1.15883 
 Fe                    1.441     0.16915  -0.07478 
 Cl                    1.63114   2.28012  -0.7325 
 C                    -2.00541   1.96391   0.27267 
 Cl                    2.61776  -1.3252   -1.18017 
 Cl                    1.67529  -0.00057   2.12837 
 H                    -3.33177  -1.18017   0.43857 
 H                    -2.38567   2.87994  -0.18108 
 H                    -1.78808   2.08415   1.33598 
 H                    -1.01014   1.71685  -0.18008 
 H                    -4.57345   1.49811  -0.80341 
 H                    -3.31682   1.38852  -2.02003 
 H                    -4.15546  -0.1013   -1.46421 
 C                    -2.11486  -0.38326   2.08091 
 H                    -2.82688   0.25174   2.61796 
 H                    -2.14161  -1.37204   2.54148 
 H                    -1.10896   0.0224    2.2106 
 C                    -0.72482  -2.32906   0.48166 
 H                    -1.50785  -3.06871   0.67758 
 H                     0.04581  -2.79121  -0.14366 
 H                    -0.25572  -2.03171   1.41945 
 C                    -1.77276  -1.5817   -1.67351 
 H                    -0.94439  -2.09484  -2.16992 
 H                    -2.61524  -2.27785  -1.5963 
 H                    -2.05065  -0.73775  -2.30787 
 
                    Distance matrix (angstroms):
                    1          2          3          4          5
     1  O    0.000000
     2  C    1.359658   0.000000
     3  C    2.416550   1.650002   0.000000
     4  C    2.600009   2.421306   1.439802   0.000000
     5  C    3.604609   3.288320   2.541561   1.483172   0.000000
     6  Fe   1.856665   3.007728   4.052213   4.246539   5.345681
     7  Cl   3.130267   4.488385   5.147535   4.695303   5.578866
     8  C    2.758395   3.220487   2.520929   1.450635   2.509740
     9  Cl   3.287291   3.990000   5.483274   5.883043   6.730622
    10  Cl   3.282995   3.974679   4.474019   5.005132   6.399761
    11  H    3.282344   2.192076   1.094270   2.090678   2.625739
    12  H    3.636475   4.153553   3.457223   2.146717   2.623610
    13  H    3.181402   3.632825   2.767585   2.146337   3.399656
    14  H    1.972776   2.849669   2.771630   1.995794   3.030265
    15  H    4.534587   4.246177   3.193523   2.090568   1.101447
    16  H    3.678813   3.667540   3.322120   2.134432   1.097525
    17  H    3.934905   3.276271   2.672083   2.165510   1.089647
    18  C    3.093999   2.629742   1.535501   2.511370   3.835627
    19  H    3.958289   3.578965   2.174894   2.722227   3.934977
    20  H    3.701560   2.981266   2.165529   3.422065   4.611047
    21  H    2.769260   2.760164   2.189884   2.901923   4.361199
    22  C    2.422394   1.538572   2.561907   3.747848   4.691516
    23  H    3.357819   2.193430   2.767842   4.104677   4.882448
    24  H    2.714402   2.132344   3.513997   4.536647   5.363336
    25  H    2.672642   2.192362   2.846560   4.038184   5.216647
    26  C    2.374226   1.536987   2.625056   3.022673   3.183689
    27  H    2.681984   2.136131   3.559865   3.999341   4.197891
    28  H    3.327040   2.201251   2.835285   3.419595   3.366223
    29  H    2.590288   2.190647   2.951539   2.804151   2.599743
                    6          7          8          9         10
     6  Fe   0.000000
     7  Cl   2.219218   0.000000
     8  C    3.901227   3.786135   0.000000
     9  Cl   2.199938   3.764585   5.856845   0.000000
    10  Cl   2.222069   3.658970   4.566216   3.686374   0.000000
    11  H    4.986326   6.162418   3.416423   6.167517   5.414562
    12  H    4.690742   4.098612   1.090689   6.611782   5.488379
    13  H    4.010539   4.001010   1.091941   6.112783   4.119326
    14  H    2.900782   2.756587   1.120971   4.838999   3.935734
    15  H    6.202467   6.254080   2.823074   7.734762   7.063150
    16  H    5.282775   5.189897   2.703207   6.579433   6.637768
    17  H    5.772695   6.300103   3.450295   6.888774   6.849412
    18  C    4.194796   5.389008   2.964952   5.824058   3.809717
    19  H    5.047023   5.934120   3.017731   6.823244   4.535732
    20  H    4.696295   6.187960   4.036658   6.041899   4.076803
    21  H    3.427363   4.611648   2.885941   5.215540   2.785560
    22  C    3.352822   5.316880   4.484766   3.865526   3.727467
    23  H    4.443590   6.360154   5.073338   4.848897   4.653024
    24  H    3.273381   5.345874   5.195378   3.136642   3.950316
    25  H    3.155209   5.175224   4.510148   3.938797   2.890823
    26  C    3.993698   5.233132   4.051303   4.425591   5.370595
    27  H    3.899400   5.276342   4.854418   3.776363   5.451971
    28  H    4.975529   6.289116   4.675194   5.335265   6.121096
    29  H    4.242728   5.014467   3.736331   4.838478   5.840060
                   11         12         13         14         15
    11  H    0.000000
    12  H    4.214676   0.000000
    13  H    3.720764   1.814357   0.000000
    14  H    3.763698   1.801349   1.743144   0.000000
    15  H    3.202722   2.661411   3.560720   3.624030   0.000000
    16  H    3.555707   2.544224   3.752835   2.968841   1.752508
    17  H    2.337306   3.696798   4.268696   3.853276   1.780300
    18  C    2.193902   3.979753   2.598044   3.277651   4.231253
    19  H    2.656128   3.864800   2.465820   3.643639   4.038520
    20  H    2.423945   5.054822   3.677426   4.269472   5.033868
    21  H    3.086605   3.938993   2.340292   2.931946   4.823342
    22  C    2.849208   5.507384   4.619176   4.109588   5.577684
    23  H    2.636362   6.074067   5.202307   4.887223   5.696234
    24  H    3.787144   6.170527   5.414944   4.630227   6.338066
    25  H    3.339060   5.587722   4.392647   4.144798   6.003623
    26  C    2.655674   4.744387   4.742968   3.700324   4.252786
    27  H    3.652447   5.548074   5.519701   4.300324   5.286462
    28  H    2.420538   5.353346   5.320671   4.532077   4.326793
    29  H    3.062667   4.209883   4.616248   3.411048   3.691478
                   16         17         18         19         20
    16  H    0.000000
    17  H    1.797719   0.000000
    18  C    4.626188   4.100176   0.000000
    19  H    4.800332   4.307418   1.094815   0.000000
    20  H    5.459774   4.660033   1.091109   1.764121   0.000000
    21  H    4.963784   4.775008   1.092344   1.780385   1.766441
    22  C    5.176613   4.529753   2.876792   3.955117   2.676943
    23  H    5.515107   4.516934   3.090214   4.065748   2.598930
    24  H    5.683151   5.160444   3.926247   5.013823   3.742833
    25  H    5.735706   5.220153   2.571244   3.641622   2.291438
    26  C    3.365477   2.812950   3.955876   4.784283   4.236285
    27  H    4.217189   3.844893   4.729592   5.654551   4.914571
    28  H    3.756867   2.669668   4.166739   4.919715   4.262159
    29  H    2.491401   2.355225   4.403545   5.083839   4.891502
                   21         22         23         24         25
    21  H    0.000000
    22  C    2.943833   0.000000
    23  H    3.473359   1.094812   0.000000
    24  H    3.846095   1.094749   1.779129   0.000000
    25  H    2.360781   1.089920   1.787060   1.763827   0.000000
    26  C    4.254419   2.510274   2.794461   2.666559   3.474237
    27  H    4.868136   2.670945   3.061729   2.360332   3.655386
    28  H    4.696012   2.809669   2.649966   3.074879   3.837016
    29  H    4.677736   3.474419   3.826352   3.646321   4.334634
                   26         27         28         29
    26  C    0.000000
    27  H    1.093581   0.000000
    28  H    1.095611   1.776025   0.000000
    29  H    1.091740   1.756281   1.788021   0.000000
 Framework group  C1[X(C8H16Cl3FeO)]
 Deg. of freedom    81
                         Standard orientation:                         
 ---------------------------------------------------------------------
 Center     Atomic      Atomic             Coordinates (Angstroms)
 Number     Number       Type             X           Y           Z
 ---------------------------------------------------------------------
      1          8           0       -0.353668   -0.123860   -0.449650
      2          6           0       -1.267920   -1.118696   -0.297612
      3          6           0       -2.500799   -0.486327    0.598281
      4          6           0       -2.762703    0.770435   -0.053628
      5          6           0       -3.747574    0.861877   -1.158828
      6         26           0        1.440998    0.169147   -0.074784
      7         17           0        1.631142    2.280115   -0.732499
      8          6           0       -2.005405    1.963906    0.272666
      9         17           0        2.617764   -1.325196   -1.180174
     10         17           0        1.675289   -0.000573    2.128371
     11          1           0       -3.331766   -1.180166    0.438567
     12          1           0       -2.385670    2.879936   -0.181084
     13          1           0       -1.788077    2.084149    1.335984
     14          1           0       -1.010135    1.716854   -0.180080
     15          1           0       -4.573449    1.498109   -0.803405
     16          1           0       -3.316824    1.388520   -2.020026
     17          1           0       -4.155462   -0.101295   -1.464210
     18          6           0       -2.114861   -0.383264    2.080911
     19          1           0       -2.826878    0.251744    2.617956
     20          1           0       -2.141613   -1.372043    2.541476
     21          1           0       -1.108962    0.022399    2.210602
     22          6           0       -0.724818   -2.329058    0.481661
     23          1           0       -1.507850   -3.068712    0.677584
     24          1           0        0.045808   -2.791212   -0.143659
     25          1           0       -0.255719   -2.031706    1.419453
     26          6           0       -1.772758   -1.581702   -1.673509
     27          1           0       -0.944394   -2.094839   -2.169919
     28          1           0       -2.615241   -2.277852   -1.596299
     29          1           0       -2.050648   -0.737749   -2.307873
 ---------------------------------------------------------------------
 Rotational constants (GHZ):           0.5879907           0.3315956           0.3122734
   427 basis functions,  1056 primitive gaussians,   461 cartesian basis functions
    77 alpha electrons       72 beta electrons
       nuclear repulsion energy      1647.8898105083 Hartrees.
 NAtoms=   29 NActive=   29 NUniq=   29 SFac= 1.00D+00 NAtFMM=   60 NAOKFM=F Big=F
 ExpMin= 1.40D-02 ExpMax= 4.32D+06 ExpMxC= 4.91D+03 IAcc=3 IRadAn=         5 AccDes= 0.00D+00
 Harris functional with IExCor= 1009 and IRadAn=       5 diagonalized for initial guess.
 HarFok:  IExCor= 1009 AccDes= 0.00D+00 IRadAn=         5 IDoV= 1 UseB2=F ITyADJ=14
 ICtDFT=  3500011 ScaDFX=  1.000000  1.000000  1.000000  1.000000
 FoFCou: FMM=F IPFlag=           0 FMFlag=      100000 FMFlg1=           0
         NFxFlg=           0 DoJE=T BraDBF=F KetDBF=T FulRan=T
         wScrn=  0.000000 ICntrl=       500 IOpCl=  0 I1Cent=   200000004 NGrid=           0
         NMat0=    1 NMatS0=      1 NMatT0=    0 NMatD0=    1 NMtDS0=    0 NMtDT0=    0
 Petite list used in FoFCou.
 Initial guess <Sx>= 0.0000 <Sy>= 0.0000 <Sz>= 2.5000 <S**2>= 8.7500 S= 2.5000
 EnCoef did     5 forward-backward iterations
 EnCoef did     6 forward-backward iterations
 Restarting incremental Fock formation.
 SCF Done:  E(UPBE1PBE) =  -3033.10717738     A.U. after   21 cycles
            NFock= 21  Conv=0.58D-08     -V/T= 2.0021
 <Sx>= 0.0000 <Sy>= 0.0000 <Sz>= 2.5000 <S**2>= 8.7623 S= 2.5021
 <L.S>= 0.000000000000E+00
 Annihilation of the first spin contaminant:
 S**2 before annihilation     8.7623,   after     8.7500
 1\1\GINC-HOLY7C04308\SP\UPBE1PBE\Jul-CC-pVDZ\C8H16Cl3Fe1O1(6)\EKWAN\11
 -Feb-2020\0\\#t pop=none jul-cc-pvdz upbe1pbe\\theory_abbreviation pbe
 0\\0,6\O,0,-0.353668,-0.12386,-0.44965\C,0,-1.26792,-1.118696,-0.29761
 2\C,0,-2.500799,-0.486327,0.598281\C,0,-2.762703,0.770435,-0.053628\C,
 0,-3.747574,0.861877,-1.158828\Fe,0,1.440998,0.169147,-0.074784\Cl,0,1
 .631142,2.280115,-0.732499\C,0,-2.005405,1.963906,0.272666\Cl,0,2.6177
 64,-1.325196,-1.180174\Cl,0,1.675289,-0.000573,2.128371\H,0,-3.331766,
 -1.180166,0.438567\H,0,-2.38567,2.879936,-0.181084\H,0,-1.788077,2.084
 149,1.335984\H,0,-1.010135,1.716854,-0.18008\H,0,-4.573449,1.498109,-0
 .803405\H,0,-3.316824,1.38852,-2.020026\H,0,-4.155462,-0.101295,-1.464
 21\C,0,-2.114861,-0.383264,2.080911\H,0,-2.826878,0.251744,2.617956\H,
 0,-2.141613,-1.372043,2.541476\H,0,-1.108962,0.022399,2.210602\C,0,-0.
 724818,-2.329058,0.481661\H,0,-1.50785,-3.068712,0.677584\H,0,0.045808
 ,-2.791212,-0.143659\H,0,-0.255719,-2.031706,1.419453\C,0,-1.772758,-1
 .581702,-1.673509\H,0,-0.944394,-2.094839,-2.169919\H,0,-2.615241,-2.2
 77852,-1.596299\H,0,-2.050648,-0.737749,-2.307873\\Version=ES64L-G16Re
 vA.03\HF=-3033.1071774\S2=8.762311\S2-1=0.\S2A=8.750047\RMSD=5.777e-09
 \PG=C01 [X(C8H16Cl3Fe1O1)]\\@


 WHEN YOU'VE SEEN ONE NUCLEAR WAR YOU'VE SEEN THEM ALL.
 Job cpu time:       0 days  1 hours 30 minutes 17.3 seconds.
 Elapsed time:       0 days  0 hours 22 minutes 38.1 seconds.
 File lengths (MBytes):  RWF=    173 Int=      0 D2E=      0 Chk=     13 Scr=      1
 Normal termination of Gaussian 16 at Tue Feb 11 13:57:16 2020.
 Initial command:
 /n/sw/g16_nehalem/g16/l1.exe "/scratch/Gau-454444.inp" -scrdir="/scratch/"
 Entering Link 1 = /n/sw/g16_nehalem/g16/l1.exe PID=    455849.
  
 Copyright (c) 1988,1990,1992,1993,1995,1998,2003,2009,2016,
            Gaussian, Inc.  All Rights Reserved.
  
 This is part of the Gaussian(R) 16 program.  It is based on
 the Gaussian(R) 09 system (copyright 2009, Gaussian, Inc.),
 the Gaussian(R) 03 system (copyright 2003, Gaussian, Inc.),
 the Gaussian(R) 98 system (copyright 1998, Gaussian, Inc.),
 the Gaussian(R) 94 system (copyright 1995, Gaussian, Inc.),
 the Gaussian 92(TM) system (copyright 1992, Gaussian, Inc.),
 the Gaussian 90(TM) system (copyright 1990, Gaussian, Inc.),
 the Gaussian 88(TM) system (copyright 1988, Gaussian, Inc.),
 the Gaussian 86(TM) system (copyright 1986, Carnegie Mellon
 University), and the Gaussian 82(TM) system (copyright 1983,
 Carnegie Mellon University). Gaussian is a federally registered
 trademark of Gaussian, Inc.
  
 This software contains proprietary and confidential information,
 including trade secrets, belonging to Gaussian, Inc.
  
 This software is provided under written license and may be
 used, copied, transmitted, or stored only in accord with that
 written license.
  
 The following legend is applicable only to US Government
 contracts under FAR:
  
                    RESTRICTED RIGHTS LEGEND
  
 Use, reproduction and disclosure by the US Government is
 subject to restrictions as set forth in subparagraphs (a)
 and (c) of the Commercial Computer Software - Restricted
 Rights clause in FAR 52.227-19.
  
 Gaussian, Inc.
 340 Quinnipiac St., Bldg. 40, Wallingford CT 06492
  
  
 ---------------------------------------------------------------
 Warning -- This program may not be used in any manner that
 competes with the business of Gaussian, Inc. or will provide
 assistance to any competitor of Gaussian, Inc.  The licensee
 of this program is prohibited from giving any competitor of
 Gaussian, Inc. access to this program.  By using this program,
 the user acknowledges that Gaussian, Inc. is engaged in the
 business of creating and licensing software in the field of
 computational chemistry and represents and warrants to the
 licensee that it is not a competitor of Gaussian, Inc. and that
 it will not use this program in any manner prohibited above.
 ---------------------------------------------------------------
  

 Cite this work as:
 Gaussian 16, Revision A.03,
 M. J. Frisch, G. W. Trucks, H. B. Schlegel, G. E. Scuseria, 
 M. A. Robb, J. R. Cheeseman, G. Scalmani, V. Barone, 
 G. A. Petersson, H. Nakatsuji, X. Li, M. Caricato, A. V. Marenich, 
 J. Bloino, B. G. Janesko, R. Gomperts, B. Mennucci, H. P. Hratchian, 
 J. V. Ortiz, A. F. Izmaylov, J. L. Sonnenberg, D. Williams-Young, 
 F. Ding, F. Lipparini, F. Egidi, J. Goings, B. Peng, A. Petrone, 
 T. Henderson, D. Ranasinghe, V. G. Zakrzewski, J. Gao, N. Rega, 
 G. Zheng, W. Liang, M. Hada, M. Ehara, K. Toyota, R. Fukuda, 
 J. Hasegawa, M. Ishida, T. Nakajima, Y. Honda, O. Kitao, H. Nakai, 
 T. Vreven, K. Throssell, J. A. Montgomery, Jr., J. E. Peralta, 
 F. Ogliaro, M. J. Bearpark, J. J. Heyd, E. N. Brothers, K. N. Kudin, 
 V. N. Staroverov, T. A. Keith, R. Kobayashi, J. Normand, 
 K. Raghavachari, A. P. Rendell, J. C. Burant, S. S. Iyengar, 
 J. Tomasi, M. Cossi, J. M. Millam, M. Klene, C. Adamo, R. Cammi, 
 J. W. Ochterski, R. L. Martin, K. Morokuma, O. Farkas, 
 J. B. Foresman, and D. J. Fox, Gaussian, Inc., Wallingford CT, 2016.
 
 ******************************************
 Gaussian 16:  ES64L-G16RevA.03 25-Dec-2016
                11-Feb-2020 
 ******************************************
 %chk=checkpoint.chk
 %mem=3GB
 %nprocshared=4
 Will use up to    4 processors via shared memory.
 ---------------------------------------------------------------------
 #t pop=none jul-cc-pvdz guess=read upbe1pbe empiricaldispersion=gd3bj
 ---------------------------------------------------------------------
 -----------------------------
 theory_abbreviation pbe0_d3bj
 -----------------------------
 Symbolic Z-matrix:
 Charge =  0 Multiplicity = 6
 O                    -0.35367  -0.12386  -0.44965 
 C                    -1.26792  -1.1187   -0.29761 
 C                    -2.5008   -0.48633   0.59828 
 C                    -2.7627    0.77044  -0.05363 
 C                    -3.74757   0.86188  -1.15883 
 Fe                    1.441     0.16915  -0.07478 
 Cl                    1.63114   2.28012  -0.7325 
 C                    -2.00541   1.96391   0.27267 
 Cl                    2.61776  -1.3252   -1.18017 
 Cl                    1.67529  -0.00057   2.12837 
 H                    -3.33177  -1.18017   0.43857 
 H                    -2.38567   2.87994  -0.18108 
 H                    -1.78808   2.08415   1.33598 
 H                    -1.01014   1.71685  -0.18008 
 H                    -4.57345   1.49811  -0.80341 
 H                    -3.31682   1.38852  -2.02003 
 H                    -4.15546  -0.1013   -1.46421 
 C                    -2.11486  -0.38326   2.08091 
 H                    -2.82688   0.25174   2.61796 
 H                    -2.14161  -1.37204   2.54148 
 H                    -1.10896   0.0224    2.2106 
 C                    -0.72482  -2.32906   0.48166 
 H                    -1.50785  -3.06871   0.67758 
 H                     0.04581  -2.79121  -0.14366 
 H                    -0.25572  -2.03171   1.41945 
 C                    -1.77276  -1.5817   -1.67351 
 H                    -0.94439  -2.09484  -2.16992 
 H                    -2.61524  -2.27785  -1.5963 
 H                    -2.05065  -0.73775  -2.30787 
 
                    Distance matrix (angstroms):
                    1          2          3          4          5
     1  O    0.000000
     2  C    1.359658   0.000000
     3  C    2.416550   1.650002   0.000000
     4  C    2.600009   2.421306   1.439802   0.000000
     5  C    3.604609   3.288320   2.541561   1.483172   0.000000
     6  Fe   1.856665   3.007728   4.052213   4.246539   5.345681
     7  Cl   3.130267   4.488385   5.147535   4.695303   5.578866
     8  C    2.758395   3.220487   2.520929   1.450635   2.509740
     9  Cl   3.287291   3.990000   5.483274   5.883043   6.730622
    10  Cl   3.282995   3.974679   4.474019   5.005132   6.399761
    11  H    3.282344   2.192076   1.094270   2.090678   2.625739
    12  H    3.636475   4.153553   3.457223   2.146717   2.623610
    13  H    3.181402   3.632825   2.767585   2.146337   3.399656
    14  H    1.972776   2.849669   2.771630   1.995794   3.030265
    15  H    4.534587   4.246177   3.193523   2.090568   1.101447
    16  H    3.678813   3.667540   3.322120   2.134432   1.097525
    17  H    3.934905   3.276271   2.672083   2.165510   1.089647
    18  C    3.093999   2.629742   1.535501   2.511370   3.835627
    19  H    3.958289   3.578965   2.174894   2.722227   3.934977
    20  H    3.701560   2.981266   2.165529   3.422065   4.611047
    21  H    2.769260   2.760164   2.189884   2.901923   4.361199
    22  C    2.422394   1.538572   2.561907   3.747848   4.691516
    23  H    3.357819   2.193430   2.767842   4.104677   4.882448
    24  H    2.714402   2.132344   3.513997   4.536647   5.363336
    25  H    2.672642   2.192362   2.846560   4.038184   5.216647
    26  C    2.374226   1.536987   2.625056   3.022673   3.183689
    27  H    2.681984   2.136131   3.559865   3.999341   4.197891
    28  H    3.327040   2.201251   2.835285   3.419595   3.366223
    29  H    2.590288   2.190647   2.951539   2.804151   2.599743
                    6          7          8          9         10
     6  Fe   0.000000
     7  Cl   2.219218   0.000000
     8  C    3.901227   3.786135   0.000000
     9  Cl   2.199938   3.764585   5.856845   0.000000
    10  Cl   2.222069   3.658970   4.566216   3.686374   0.000000
    11  H    4.986326   6.162418   3.416423   6.167517   5.414562
    12  H    4.690742   4.098612   1.090689   6.611782   5.488379
    13  H    4.010539   4.001010   1.091941   6.112783   4.119326
    14  H    2.900782   2.756587   1.120971   4.838999   3.935734
    15  H    6.202467   6.254080   2.823074   7.734762   7.063150
    16  H    5.282775   5.189897   2.703207   6.579433   6.637768
    17  H    5.772695   6.300103   3.450295   6.888774   6.849412
    18  C    4.194796   5.389008   2.964952   5.824058   3.809717
    19  H    5.047023   5.934120   3.017731   6.823244   4.535732
    20  H    4.696295   6.187960   4.036658   6.041899   4.076803
    21  H    3.427363   4.611648   2.885941   5.215540   2.785560
    22  C    3.352822   5.316880   4.484766   3.865526   3.727467
    23  H    4.443590   6.360154   5.073338   4.848897   4.653024
    24  H    3.273381   5.345874   5.195378   3.136642   3.950316
    25  H    3.155209   5.175224   4.510148   3.938797   2.890823
    26  C    3.993698   5.233132   4.051303   4.425591   5.370595
    27  H    3.899400   5.276342   4.854418   3.776363   5.451971
    28  H    4.975529   6.289116   4.675194   5.335265   6.121096
    29  H    4.242728   5.014467   3.736331   4.838478   5.840060
                   11         12         13         14         15
    11  H    0.000000
    12  H    4.214676   0.000000
    13  H    3.720764   1.814357   0.000000
    14  H    3.763698   1.801349   1.743144   0.000000
    15  H    3.202722   2.661411   3.560720   3.624030   0.000000
    16  H    3.555707   2.544224   3.752835   2.968841   1.752508
    17  H    2.337306   3.696798   4.268696   3.853276   1.780300
    18  C    2.193902   3.979753   2.598044   3.277651   4.231253
    19  H    2.656128   3.864800   2.465820   3.643639   4.038520
    20  H    2.423945   5.054822   3.677426   4.269472   5.033868
    21  H    3.086605   3.938993   2.340292   2.931946   4.823342
    22  C    2.849208   5.507384   4.619176   4.109588   5.577684
    23  H    2.636362   6.074067   5.202307   4.887223   5.696234
    24  H    3.787144   6.170527   5.414944   4.630227   6.338066
    25  H    3.339060   5.587722   4.392647   4.144798   6.003623
    26  C    2.655674   4.744387   4.742968   3.700324   4.252786
    27  H    3.652447   5.548074   5.519701   4.300324   5.286462
    28  H    2.420538   5.353346   5.320671   4.532077   4.326793
    29  H    3.062667   4.209883   4.616248   3.411048   3.691478
                   16         17         18         19         20
    16  H    0.000000
    17  H    1.797719   0.000000
    18  C    4.626188   4.100176   0.000000
    19  H    4.800332   4.307418   1.094815   0.000000
    20  H    5.459774   4.660033   1.091109   1.764121   0.000000
    21  H    4.963784   4.775008   1.092344   1.780385   1.766441
    22  C    5.176613   4.529753   2.876792   3.955117   2.676943
    23  H    5.515107   4.516934   3.090214   4.065748   2.598930
    24  H    5.683151   5.160444   3.926247   5.013823   3.742833
    25  H    5.735706   5.220153   2.571244   3.641622   2.291438
    26  C    3.365477   2.812950   3.955876   4.784283   4.236285
    27  H    4.217189   3.844893   4.729592   5.654551   4.914571
    28  H    3.756867   2.669668   4.166739   4.919715   4.262159
    29  H    2.491401   2.355225   4.403545   5.083839   4.891502
                   21         22         23         24         25
    21  H    0.000000
    22  C    2.943833   0.000000
    23  H    3.473359   1.094812   0.000000
    24  H    3.846095   1.094749   1.779129   0.000000
    25  H    2.360781   1.089920   1.787060   1.763827   0.000000
    26  C    4.254419   2.510274   2.794461   2.666559   3.474237
    27  H    4.868136   2.670945   3.061729   2.360332   3.655386
    28  H    4.696012   2.809669   2.649966   3.074879   3.837016
    29  H    4.677736   3.474419   3.826352   3.646321   4.334634
                   26         27         28         29
    26  C    0.000000
    27  H    1.093581   0.000000
    28  H    1.095611   1.776025   0.000000
    29  H    1.091740   1.756281   1.788021   0.000000
 Framework group  C1[X(C8H16Cl3FeO)]
 Deg. of freedom    81
                         Standard orientation:                         
 ---------------------------------------------------------------------
 Center     Atomic      Atomic             Coordinates (Angstroms)
 Number     Number       Type             X           Y           Z
 ---------------------------------------------------------------------
      1          8           0       -0.353668   -0.123860   -0.449650
      2          6           0       -1.267920   -1.118696   -0.297612
      3          6           0       -2.500799   -0.486327    0.598281
      4          6           0       -2.762703    0.770435   -0.053628
      5          6           0       -3.747574    0.861877   -1.158828
      6         26           0        1.440998    0.169147   -0.074784
      7         17           0        1.631142    2.280115   -0.732499
      8          6           0       -2.005405    1.963906    0.272666
      9         17           0        2.617764   -1.325196   -1.180174
     10         17           0        1.675289   -0.000573    2.128371
     11          1           0       -3.331766   -1.180166    0.438567
     12          1           0       -2.385670    2.879936   -0.181084
     13          1           0       -1.788077    2.084149    1.335984
     14          1           0       -1.010135    1.716854   -0.180080
     15          1           0       -4.573449    1.498109   -0.803405
     16          1           0       -3.316824    1.388520   -2.020026
     17          1           0       -4.155462   -0.101295   -1.464210
     18          6           0       -2.114861   -0.383264    2.080911
     19          1           0       -2.826878    0.251744    2.617956
     20          1           0       -2.141613   -1.372043    2.541476
     21          1           0       -1.108962    0.022399    2.210602
     22          6           0       -0.724818   -2.329058    0.481661
     23          1           0       -1.507850   -3.068712    0.677584
     24          1           0        0.045808   -2.791212   -0.143659
     25          1           0       -0.255719   -2.031706    1.419453
     26          6           0       -1.772758   -1.581702   -1.673509
     27          1           0       -0.944394   -2.094839   -2.169919
     28          1           0       -2.615241   -2.277852   -1.596299
     29          1           0       -2.050648   -0.737749   -2.307873
 ---------------------------------------------------------------------
 Rotational constants (GHZ):           0.5879907           0.3315956           0.3122734
   427 basis functions,  1056 primitive gaussians,   461 cartesian basis functions
    77 alpha electrons       72 beta electrons
       nuclear repulsion energy      1647.8898105083 Hartrees.
 NAtoms=   29 NActive=   29 NUniq=   29 SFac= 1.00D+00 NAtFMM=   60 NAOKFM=F Big=F
 Nuclear repulsion after empirical dispersion term =     1647.8531981578 Hartrees.
 Initial guess from the checkpoint file:  "checkpoint.chk"
 B after Tr=     0.000000    0.000000    0.000000
         Rot=    1.000000    0.000000    0.000000    0.000000 Ang=   0.00 deg.
 Initial guess <Sx>= 0.0000 <Sy>= 0.0000 <Sz>= 2.5000 <S**2>= 8.7623 S= 2.5021
 SCF Done:  E(UPBE1PBE) =  -3033.14378973     A.U. after    1 cycles
            NFock=  1  Conv=0.34D-08     -V/T= 2.0021
 <Sx>= 0.0000 <Sy>= 0.0000 <Sz>= 2.5000 <S**2>= 8.7623 S= 2.5021
 <L.S>= 0.000000000000E+00
 Annihilation of the first spin contaminant:
 S**2 before annihilation     8.7623,   after     8.7500
 1\1\GINC-HOLY7C04308\SP\UPBE1PBE\Jul-CC-pVDZ\C8H16Cl3Fe1O1(6)\EKWAN\11
 -Feb-2020\0\\#t pop=none jul-cc-pvdz guess=read upbe1pbe empiricaldisp
 ersion=gd3bj\\theory_abbreviation pbe0_d3bj\\0,6\O,0,-0.353668,-0.1238
 6,-0.44965\C,0,-1.26792,-1.118696,-0.297612\C,0,-2.500799,-0.486327,0.
 598281\C,0,-2.762703,0.770435,-0.053628\C,0,-3.747574,0.861877,-1.1588
 28\Fe,0,1.440998,0.169147,-0.074784\Cl,0,1.631142,2.280115,-0.732499\C
 ,0,-2.005405,1.963906,0.272666\Cl,0,2.617764,-1.325196,-1.180174\Cl,0,
 1.675289,-0.000573,2.128371\H,0,-3.331766,-1.180166,0.438567\H,0,-2.38
 567,2.879936,-0.181084\H,0,-1.788077,2.084149,1.335984\H,0,-1.010135,1
 .716854,-0.18008\H,0,-4.573449,1.498109,-0.803405\H,0,-3.316824,1.3885
 2,-2.020026\H,0,-4.155462,-0.101295,-1.46421\C,0,-2.114861,-0.383264,2
 .080911\H,0,-2.826878,0.251744,2.617956\H,0,-2.141613,-1.372043,2.5414
 76\H,0,-1.108962,0.022399,2.210602\C,0,-0.724818,-2.329058,0.481661\H,
 0,-1.50785,-3.068712,0.677584\H,0,0.045808,-2.791212,-0.143659\H,0,-0.
 255719,-2.031706,1.419453\C,0,-1.772758,-1.581702,-1.673509\H,0,-0.944
 394,-2.094839,-2.169919\H,0,-2.615241,-2.277852,-1.596299\H,0,-2.05064
 8,-0.737749,-2.307873\\Version=ES64L-G16RevA.03\HF=-3033.1437897\S2=8.
 762311\S2-1=0.\S2A=8.750047\RMSD=3.408e-09\PG=C01 [X(C8H16Cl3Fe1O1)]\\
 @


 MATERIAL COPIED FROM ONE SCHOLARLY BOOK WITHOUT CREDIT COMPRISES PLAGIARISM.
 MATERIAL COPIED FROM TWO SCHOLARLY BOOKS COMPRISES AN ESSAY.
 MATERIAL COPIED FROM THREE SCHOLARLY BOOKS COMPRISES A DISSERTATION.
 MATERIAL COPIED FROM FOUR SCHOLARLY BOOKS COMPRISES A FIFTH SCHOLARLY BOOK.

                               -- C&EN, 25 FEB 1980
 Job cpu time:       0 days  0 hours  4 minutes 37.3 seconds.
 Elapsed time:       0 days  0 hours  1 minutes  9.9 seconds.
 File lengths (MBytes):  RWF=    170 Int=      0 D2E=      0 Chk=     13 Scr=      1
 Normal termination of Gaussian 16 at Tue Feb 11 13:58:27 2020.
 Initial command:
 /n/sw/g16_nehalem/g16/l1.exe "/scratch/Gau-454444.inp" -scrdir="/scratch/"
 Entering Link 1 = /n/sw/g16_nehalem/g16/l1.exe PID=    455962.
  
 Copyright (c) 1988,1990,1992,1993,1995,1998,2003,2009,2016,
            Gaussian, Inc.  All Rights Reserved.
  
 This is part of the Gaussian(R) 16 program.  It is based on
 the Gaussian(R) 09 system (copyright 2009, Gaussian, Inc.),
 the Gaussian(R) 03 system (copyright 2003, Gaussian, Inc.),
 the Gaussian(R) 98 system (copyright 1998, Gaussian, Inc.),
 the Gaussian(R) 94 system (copyright 1995, Gaussian, Inc.),
 the Gaussian 92(TM) system (copyright 1992, Gaussian, Inc.),
 the Gaussian 90(TM) system (copyright 1990, Gaussian, Inc.),
 the Gaussian 88(TM) system (copyright 1988, Gaussian, Inc.),
 the Gaussian 86(TM) system (copyright 1986, Carnegie Mellon
 University), and the Gaussian 82(TM) system (copyright 1983,
 Carnegie Mellon University). Gaussian is a federally registered
 trademark of Gaussian, Inc.
  
 This software contains proprietary and confidential information,
 including trade secrets, belonging to Gaussian, Inc.
  
 This software is provided under written license and may be
 used, copied, transmitted, or stored only in accord with that
 written license.
  
 The following legend is applicable only to US Government
 contracts under FAR:
  
                    RESTRICTED RIGHTS LEGEND
  
 Use, reproduction and disclosure by the US Government is
 subject to restrictions as set forth in subparagraphs (a)
 and (c) of the Commercial Computer Software - Restricted
 Rights clause in FAR 52.227-19.
  
 Gaussian, Inc.
 340 Quinnipiac St., Bldg. 40, Wallingford CT 06492
  
  
 ---------------------------------------------------------------
 Warning -- This program may not be used in any manner that
 competes with the business of Gaussian, Inc. or will provide
 assistance to any competitor of Gaussian, Inc.  The licensee
 of this program is prohibited from giving any competitor of
 Gaussian, Inc. access to this program.  By using this program,
 the user acknowledges that Gaussian, Inc. is engaged in the
 business of creating and licensing software in the field of
 computational chemistry and represents and warrants to the
 licensee that it is not a competitor of Gaussian, Inc. and that
 it will not use this program in any manner prohibited above.
 ---------------------------------------------------------------
  

 Cite this work as:
 Gaussian 16, Revision A.03,
 M. J. Frisch, G. W. Trucks, H. B. Schlegel, G. E. Scuseria, 
 M. A. Robb, J. R. Cheeseman, G. Scalmani, V. Barone, 
 G. A. Petersson, H. Nakatsuji, X. Li, M. Caricato, A. V. Marenich, 
 J. Bloino, B. G. Janesko, R. Gomperts, B. Mennucci, H. P. Hratchian, 
 J. V. Ortiz, A. F. Izmaylov, J. L. Sonnenberg, D. Williams-Young, 
 F. Ding, F. Lipparini, F. Egidi, J. Goings, B. Peng, A. Petrone, 
 T. Henderson, D. Ranasinghe, V. G. Zakrzewski, J. Gao, N. Rega, 
 G. Zheng, W. Liang, M. Hada, M. Ehara, K. Toyota, R. Fukuda, 
 J. Hasegawa, M. Ishida, T. Nakajima, Y. Honda, O. Kitao, H. Nakai, 
 T. Vreven, K. Throssell, J. A. Montgomery, Jr., J. E. Peralta, 
 F. Ogliaro, M. J. Bearpark, J. J. Heyd, E. N. Brothers, K. N. Kudin, 
 V. N. Staroverov, T. A. Keith, R. Kobayashi, J. Normand, 
 K. Raghavachari, A. P. Rendell, J. C. Burant, S. S. Iyengar, 
 J. Tomasi, M. Cossi, J. M. Millam, M. Klene, C. Adamo, R. Cammi, 
 J. W. Ochterski, R. L. Martin, K. Morokuma, O. Farkas, 
 J. B. Foresman, and D. J. Fox, Gaussian, Inc., Wallingford CT, 2016.
 
 ******************************************
 Gaussian 16:  ES64L-G16RevA.03 25-Dec-2016
                11-Feb-2020 
 ******************************************
 %chk=checkpoint.chk
 %mem=3GB
 %nprocshared=4
 Will use up to    4 processors via shared memory.
 -----------------------------------------
 #t pop=none jul-cc-pvdz guess=read ub3lyp
 -----------------------------------------
 -------------------------
 theory_abbreviation b3lyp
 -------------------------
 Symbolic Z-matrix:
 Charge =  0 Multiplicity = 6
 O                    -0.35367  -0.12386  -0.44965 
 C                    -1.26792  -1.1187   -0.29761 
 C                    -2.5008   -0.48633   0.59828 
 C                    -2.7627    0.77044  -0.05363 
 C                    -3.74757   0.86188  -1.15883 
 Fe                    1.441     0.16915  -0.07478 
 Cl                    1.63114   2.28012  -0.7325 
 C                    -2.00541   1.96391   0.27267 
 Cl                    2.61776  -1.3252   -1.18017 
 Cl                    1.67529  -0.00057   2.12837 
 H                    -3.33177  -1.18017   0.43857 
 H                    -2.38567   2.87994  -0.18108 
 H                    -1.78808   2.08415   1.33598 
 H                    -1.01014   1.71685  -0.18008 
 H                    -4.57345   1.49811  -0.80341 
 H                    -3.31682   1.38852  -2.02003 
 H                    -4.15546  -0.1013   -1.46421 
 C                    -2.11486  -0.38326   2.08091 
 H                    -2.82688   0.25174   2.61796 
 H                    -2.14161  -1.37204   2.54148 
 H                    -1.10896   0.0224    2.2106 
 C                    -0.72482  -2.32906   0.48166 
 H                    -1.50785  -3.06871   0.67758 
 H                     0.04581  -2.79121  -0.14366 
 H                    -0.25572  -2.03171   1.41945 
 C                    -1.77276  -1.5817   -1.67351 
 H                    -0.94439  -2.09484  -2.16992 
 H                    -2.61524  -2.27785  -1.5963 
 H                    -2.05065  -0.73775  -2.30787 
 
                    Distance matrix (angstroms):
                    1          2          3          4          5
     1  O    0.000000
     2  C    1.359658   0.000000
     3  C    2.416550   1.650002   0.000000
     4  C    2.600009   2.421306   1.439802   0.000000
     5  C    3.604609   3.288320   2.541561   1.483172   0.000000
     6  Fe   1.856665   3.007728   4.052213   4.246539   5.345681
     7  Cl   3.130267   4.488385   5.147535   4.695303   5.578866
     8  C    2.758395   3.220487   2.520929   1.450635   2.509740
     9  Cl   3.287291   3.990000   5.483274   5.883043   6.730622
    10  Cl   3.282995   3.974679   4.474019   5.005132   6.399761
    11  H    3.282344   2.192076   1.094270   2.090678   2.625739
    12  H    3.636475   4.153553   3.457223   2.146717   2.623610
    13  H    3.181402   3.632825   2.767585   2.146337   3.399656
    14  H    1.972776   2.849669   2.771630   1.995794   3.030265
    15  H    4.534587   4.246177   3.193523   2.090568   1.101447
    16  H    3.678813   3.667540   3.322120   2.134432   1.097525
    17  H    3.934905   3.276271   2.672083   2.165510   1.089647
    18  C    3.093999   2.629742   1.535501   2.511370   3.835627
    19  H    3.958289   3.578965   2.174894   2.722227   3.934977
    20  H    3.701560   2.981266   2.165529   3.422065   4.611047
    21  H    2.769260   2.760164   2.189884   2.901923   4.361199
    22  C    2.422394   1.538572   2.561907   3.747848   4.691516
    23  H    3.357819   2.193430   2.767842   4.104677   4.882448
    24  H    2.714402   2.132344   3.513997   4.536647   5.363336
    25  H    2.672642   2.192362   2.846560   4.038184   5.216647
    26  C    2.374226   1.536987   2.625056   3.022673   3.183689
    27  H    2.681984   2.136131   3.559865   3.999341   4.197891
    28  H    3.327040   2.201251   2.835285   3.419595   3.366223
    29  H    2.590288   2.190647   2.951539   2.804151   2.599743
                    6          7          8          9         10
     6  Fe   0.000000
     7  Cl   2.219218   0.000000
     8  C    3.901227   3.786135   0.000000
     9  Cl   2.199938   3.764585   5.856845   0.000000
    10  Cl   2.222069   3.658970   4.566216   3.686374   0.000000
    11  H    4.986326   6.162418   3.416423   6.167517   5.414562
    12  H    4.690742   4.098612   1.090689   6.611782   5.488379
    13  H    4.010539   4.001010   1.091941   6.112783   4.119326
    14  H    2.900782   2.756587   1.120971   4.838999   3.935734
    15  H    6.202467   6.254080   2.823074   7.734762   7.063150
    16  H    5.282775   5.189897   2.703207   6.579433   6.637768
    17  H    5.772695   6.300103   3.450295   6.888774   6.849412
    18  C    4.194796   5.389008   2.964952   5.824058   3.809717
    19  H    5.047023   5.934120   3.017731   6.823244   4.535732
    20  H    4.696295   6.187960   4.036658   6.041899   4.076803
    21  H    3.427363   4.611648   2.885941   5.215540   2.785560
    22  C    3.352822   5.316880   4.484766   3.865526   3.727467
    23  H    4.443590   6.360154   5.073338   4.848897   4.653024
    24  H    3.273381   5.345874   5.195378   3.136642   3.950316
    25  H    3.155209   5.175224   4.510148   3.938797   2.890823
    26  C    3.993698   5.233132   4.051303   4.425591   5.370595
    27  H    3.899400   5.276342   4.854418   3.776363   5.451971
    28  H    4.975529   6.289116   4.675194   5.335265   6.121096
    29  H    4.242728   5.014467   3.736331   4.838478   5.840060
                   11         12         13         14         15
    11  H    0.000000
    12  H    4.214676   0.000000
    13  H    3.720764   1.814357   0.000000
    14  H    3.763698   1.801349   1.743144   0.000000
    15  H    3.202722   2.661411   3.560720   3.624030   0.000000
    16  H    3.555707   2.544224   3.752835   2.968841   1.752508
    17  H    2.337306   3.696798   4.268696   3.853276   1.780300
    18  C    2.193902   3.979753   2.598044   3.277651   4.231253
    19  H    2.656128   3.864800   2.465820   3.643639   4.038520
    20  H    2.423945   5.054822   3.677426   4.269472   5.033868
    21  H    3.086605   3.938993   2.340292   2.931946   4.823342
    22  C    2.849208   5.507384   4.619176   4.109588   5.577684
    23  H    2.636362   6.074067   5.202307   4.887223   5.696234
    24  H    3.787144   6.170527   5.414944   4.630227   6.338066
    25  H    3.339060   5.587722   4.392647   4.144798   6.003623
    26  C    2.655674   4.744387   4.742968   3.700324   4.252786
    27  H    3.652447   5.548074   5.519701   4.300324   5.286462
    28  H    2.420538   5.353346   5.320671   4.532077   4.326793
    29  H    3.062667   4.209883   4.616248   3.411048   3.691478
                   16         17         18         19         20
    16  H    0.000000
    17  H    1.797719   0.000000
    18  C    4.626188   4.100176   0.000000
    19  H    4.800332   4.307418   1.094815   0.000000
    20  H    5.459774   4.660033   1.091109   1.764121   0.000000
    21  H    4.963784   4.775008   1.092344   1.780385   1.766441
    22  C    5.176613   4.529753   2.876792   3.955117   2.676943
    23  H    5.515107   4.516934   3.090214   4.065748   2.598930
    24  H    5.683151   5.160444   3.926247   5.013823   3.742833
    25  H    5.735706   5.220153   2.571244   3.641622   2.291438
    26  C    3.365477   2.812950   3.955876   4.784283   4.236285
    27  H    4.217189   3.844893   4.729592   5.654551   4.914571
    28  H    3.756867   2.669668   4.166739   4.919715   4.262159
    29  H    2.491401   2.355225   4.403545   5.083839   4.891502
                   21         22         23         24         25
    21  H    0.000000
    22  C    2.943833   0.000000
    23  H    3.473359   1.094812   0.000000
    24  H    3.846095   1.094749   1.779129   0.000000
    25  H    2.360781   1.089920   1.787060   1.763827   0.000000
    26  C    4.254419   2.510274   2.794461   2.666559   3.474237
    27  H    4.868136   2.670945   3.061729   2.360332   3.655386
    28  H    4.696012   2.809669   2.649966   3.074879   3.837016
    29  H    4.677736   3.474419   3.826352   3.646321   4.334634
                   26         27         28         29
    26  C    0.000000
    27  H    1.093581   0.000000
    28  H    1.095611   1.776025   0.000000
    29  H    1.091740   1.756281   1.788021   0.000000
 Framework group  C1[X(C8H16Cl3FeO)]
 Deg. of freedom    81
                         Standard orientation:                         
 ---------------------------------------------------------------------
 Center     Atomic      Atomic             Coordinates (Angstroms)
 Number     Number       Type             X           Y           Z
 ---------------------------------------------------------------------
      1          8           0       -0.353668   -0.123860   -0.449650
      2          6           0       -1.267920   -1.118696   -0.297612
      3          6           0       -2.500799   -0.486327    0.598281
      4          6           0       -2.762703    0.770435   -0.053628
      5          6           0       -3.747574    0.861877   -1.158828
      6         26           0        1.440998    0.169147   -0.074784
      7         17           0        1.631142    2.280115   -0.732499
      8          6           0       -2.005405    1.963906    0.272666
      9         17           0        2.617764   -1.325196   -1.180174
     10         17           0        1.675289   -0.000573    2.128371
     11          1           0       -3.331766   -1.180166    0.438567
     12          1           0       -2.385670    2.879936   -0.181084
     13          1           0       -1.788077    2.084149    1.335984
     14          1           0       -1.010135    1.716854   -0.180080
     15          1           0       -4.573449    1.498109   -0.803405
     16          1           0       -3.316824    1.388520   -2.020026
     17          1           0       -4.155462   -0.101295   -1.464210
     18          6           0       -2.114861   -0.383264    2.080911
     19          1           0       -2.826878    0.251744    2.617956
     20          1           0       -2.141613   -1.372043    2.541476
     21          1           0       -1.108962    0.022399    2.210602
     22          6           0       -0.724818   -2.329058    0.481661
     23          1           0       -1.507850   -3.068712    0.677584
     24          1           0        0.045808   -2.791212   -0.143659
     25          1           0       -0.255719   -2.031706    1.419453
     26          6           0       -1.772758   -1.581702   -1.673509
     27          1           0       -0.944394   -2.094839   -2.169919
     28          1           0       -2.615241   -2.277852   -1.596299
     29          1           0       -2.050648   -0.737749   -2.307873
 ---------------------------------------------------------------------
 Rotational constants (GHZ):           0.5879907           0.3315956           0.3122734
   427 basis functions,  1056 primitive gaussians,   461 cartesian basis functions
    77 alpha electrons       72 beta electrons
       nuclear repulsion energy      1647.8898105083 Hartrees.
 NAtoms=   29 NActive=   29 NUniq=   29 SFac= 1.00D+00 NAtFMM=   60 NAOKFM=F Big=F
 Initial guess from the checkpoint file:  "checkpoint.chk"
 B after Tr=     0.000000    0.000000    0.000000
         Rot=    1.000000    0.000000    0.000000    0.000000 Ang=   0.00 deg.
 Initial guess <Sx>= 0.0000 <Sy>= 0.0000 <Sz>= 2.5000 <S**2>= 8.7623 S= 2.5021
 SCF Done:  E(UB3LYP) =  -3034.31802406     A.U. after   15 cycles
            NFock= 15  Conv=0.53D-08     -V/T= 2.0024
 <Sx>= 0.0000 <Sy>= 0.0000 <Sz>= 2.5000 <S**2>= 8.7617 S= 2.5019
 <L.S>= 0.000000000000E+00
 Annihilation of the first spin contaminant:
 S**2 before annihilation     8.7617,   after     8.7500
 1\1\GINC-HOLY7C04308\SP\UB3LYP\Jul-CC-pVDZ\C8H16Cl3Fe1O1(6)\EKWAN\11-F
 eb-2020\0\\#t pop=none jul-cc-pvdz guess=read ub3lyp\\theory_abbreviat
 ion b3lyp\\0,6\O,0,-0.353668,-0.12386,-0.44965\C,0,-1.26792,-1.118696,
 -0.297612\C,0,-2.500799,-0.486327,0.598281\C,0,-2.762703,0.770435,-0.0
 53628\C,0,-3.747574,0.861877,-1.158828\Fe,0,1.440998,0.169147,-0.07478
 4\Cl,0,1.631142,2.280115,-0.732499\C,0,-2.005405,1.963906,0.272666\Cl,
 0,2.617764,-1.325196,-1.180174\Cl,0,1.675289,-0.000573,2.128371\H,0,-3
 .331766,-1.180166,0.438567\H,0,-2.38567,2.879936,-0.181084\H,0,-1.7880
 77,2.084149,1.335984\H,0,-1.010135,1.716854,-0.18008\H,0,-4.573449,1.4
 98109,-0.803405\H,0,-3.316824,1.38852,-2.020026\H,0,-4.155462,-0.10129
 5,-1.46421\C,0,-2.114861,-0.383264,2.080911\H,0,-2.826878,0.251744,2.6
 17956\H,0,-2.141613,-1.372043,2.541476\H,0,-1.108962,0.022399,2.210602
 \C,0,-0.724818,-2.329058,0.481661\H,0,-1.50785,-3.068712,0.677584\H,0,
 0.045808,-2.791212,-0.143659\H,0,-0.255719,-2.031706,1.419453\C,0,-1.7
 72758,-1.581702,-1.673509\H,0,-0.944394,-2.094839,-2.169919\H,0,-2.615
 241,-2.277852,-1.596299\H,0,-2.050648,-0.737749,-2.307873\\Version=ES6
 4L-G16RevA.03\HF=-3034.3180241\S2=8.761676\S2-1=0.\S2A=8.750043\RMSD=5
 .283e-09\PG=C01 [X(C8H16Cl3Fe1O1)]\\@


 IF YOU'RE NOT PART OF THE SOLUTION,
 THEN YOU'RE PART OF THE PRECIPITATE.
 Job cpu time:       0 days  1 hours  2 minutes  6.4 seconds.
 Elapsed time:       0 days  0 hours 15 minutes 34.4 seconds.
 File lengths (MBytes):  RWF=    174 Int=      0 D2E=      0 Chk=     13 Scr=      1
 Normal termination of Gaussian 16 at Tue Feb 11 14:14:02 2020.
 Initial command:
 /n/sw/g16_nehalem/g16/l1.exe "/scratch/Gau-454444.inp" -scrdir="/scratch/"
 Entering Link 1 = /n/sw/g16_nehalem/g16/l1.exe PID=    457038.
  
 Copyright (c) 1988,1990,1992,1993,1995,1998,2003,2009,2016,
            Gaussian, Inc.  All Rights Reserved.
  
 This is part of the Gaussian(R) 16 program.  It is based on
 the Gaussian(R) 09 system (copyright 2009, Gaussian, Inc.),
 the Gaussian(R) 03 system (copyright 2003, Gaussian, Inc.),
 the Gaussian(R) 98 system (copyright 1998, Gaussian, Inc.),
 the Gaussian(R) 94 system (copyright 1995, Gaussian, Inc.),
 the Gaussian 92(TM) system (copyright 1992, Gaussian, Inc.),
 the Gaussian 90(TM) system (copyright 1990, Gaussian, Inc.),
 the Gaussian 88(TM) system (copyright 1988, Gaussian, Inc.),
 the Gaussian 86(TM) system (copyright 1986, Carnegie Mellon
 University), and the Gaussian 82(TM) system (copyright 1983,
 Carnegie Mellon University). Gaussian is a federally registered
 trademark of Gaussian, Inc.
  
 This software contains proprietary and confidential information,
 including trade secrets, belonging to Gaussian, Inc.
  
 This software is provided under written license and may be
 used, copied, transmitted, or stored only in accord with that
 written license.
  
 The following legend is applicable only to US Government
 contracts under FAR:
  
                    RESTRICTED RIGHTS LEGEND
  
 Use, reproduction and disclosure by the US Government is
 subject to restrictions as set forth in subparagraphs (a)
 and (c) of the Commercial Computer Software - Restricted
 Rights clause in FAR 52.227-19.
  
 Gaussian, Inc.
 340 Quinnipiac St., Bldg. 40, Wallingford CT 06492
  
  
 ---------------------------------------------------------------
 Warning -- This program may not be used in any manner that
 competes with the business of Gaussian, Inc. or will provide
 assistance to any competitor of Gaussian, Inc.  The licensee
 of this program is prohibited from giving any competitor of
 Gaussian, Inc. access to this program.  By using this program,
 the user acknowledges that Gaussian, Inc. is engaged in the
 business of creating and licensing software in the field of
 computational chemistry and represents and warrants to the
 licensee that it is not a competitor of Gaussian, Inc. and that
 it will not use this program in any manner prohibited above.
 ---------------------------------------------------------------
  

 Cite this work as:
 Gaussian 16, Revision A.03,
 M. J. Frisch, G. W. Trucks, H. B. Schlegel, G. E. Scuseria, 
 M. A. Robb, J. R. Cheeseman, G. Scalmani, V. Barone, 
 G. A. Petersson, H. Nakatsuji, X. Li, M. Caricato, A. V. Marenich, 
 J. Bloino, B. G. Janesko, R. Gomperts, B. Mennucci, H. P. Hratchian, 
 J. V. Ortiz, A. F. Izmaylov, J. L. Sonnenberg, D. Williams-Young, 
 F. Ding, F. Lipparini, F. Egidi, J. Goings, B. Peng, A. Petrone, 
 T. Henderson, D. Ranasinghe, V. G. Zakrzewski, J. Gao, N. Rega, 
 G. Zheng, W. Liang, M. Hada, M. Ehara, K. Toyota, R. Fukuda, 
 J. Hasegawa, M. Ishida, T. Nakajima, Y. Honda, O. Kitao, H. Nakai, 
 T. Vreven, K. Throssell, J. A. Montgomery, Jr., J. E. Peralta, 
 F. Ogliaro, M. J. Bearpark, J. J. Heyd, E. N. Brothers, K. N. Kudin, 
 V. N. Staroverov, T. A. Keith, R. Kobayashi, J. Normand, 
 K. Raghavachari, A. P. Rendell, J. C. Burant, S. S. Iyengar, 
 J. Tomasi, M. Cossi, J. M. Millam, M. Klene, C. Adamo, R. Cammi, 
 J. W. Ochterski, R. L. Martin, K. Morokuma, O. Farkas, 
 J. B. Foresman, and D. J. Fox, Gaussian, Inc., Wallingford CT, 2016.
 
 ******************************************
 Gaussian 16:  ES64L-G16RevA.03 25-Dec-2016
                11-Feb-2020 
 ******************************************
 %chk=checkpoint.chk
 %mem=3GB
 %nprocshared=4
 Will use up to    4 processors via shared memory.
 -------------------------------------------------------------------
 #t pop=none jul-cc-pvdz guess=read ub3lyp empiricaldispersion=gd3bj
 -------------------------------------------------------------------
 ------------------------------
 theory_abbreviation b3lyp_d3bj
 ------------------------------
 Symbolic Z-matrix:
 Charge =  0 Multiplicity = 6
 O                    -0.35367  -0.12386  -0.44965 
 C                    -1.26792  -1.1187   -0.29761 
 C                    -2.5008   -0.48633   0.59828 
 C                    -2.7627    0.77044  -0.05363 
 C                    -3.74757   0.86188  -1.15883 
 Fe                    1.441     0.16915  -0.07478 
 Cl                    1.63114   2.28012  -0.7325 
 C                    -2.00541   1.96391   0.27267 
 Cl                    2.61776  -1.3252   -1.18017 
 Cl                    1.67529  -0.00057   2.12837 
 H                    -3.33177  -1.18017   0.43857 
 H                    -2.38567   2.87994  -0.18108 
 H                    -1.78808   2.08415   1.33598 
 H                    -1.01014   1.71685  -0.18008 
 H                    -4.57345   1.49811  -0.80341 
 H                    -3.31682   1.38852  -2.02003 
 H                    -4.15546  -0.1013   -1.46421 
 C                    -2.11486  -0.38326   2.08091 
 H                    -2.82688   0.25174   2.61796 
 H                    -2.14161  -1.37204   2.54148 
 H                    -1.10896   0.0224    2.2106 
 C                    -0.72482  -2.32906   0.48166 
 H                    -1.50785  -3.06871   0.67758 
 H                     0.04581  -2.79121  -0.14366 
 H                    -0.25572  -2.03171   1.41945 
 C                    -1.77276  -1.5817   -1.67351 
 H                    -0.94439  -2.09484  -2.16992 
 H                    -2.61524  -2.27785  -1.5963 
 H                    -2.05065  -0.73775  -2.30787 
 
                    Distance matrix (angstroms):
                    1          2          3          4          5
     1  O    0.000000
     2  C    1.359658   0.000000
     3  C    2.416550   1.650002   0.000000
     4  C    2.600009   2.421306   1.439802   0.000000
     5  C    3.604609   3.288320   2.541561   1.483172   0.000000
     6  Fe   1.856665   3.007728   4.052213   4.246539   5.345681
     7  Cl   3.130267   4.488385   5.147535   4.695303   5.578866
     8  C    2.758395   3.220487   2.520929   1.450635   2.509740
     9  Cl   3.287291   3.990000   5.483274   5.883043   6.730622
    10  Cl   3.282995   3.974679   4.474019   5.005132   6.399761
    11  H    3.282344   2.192076   1.094270   2.090678   2.625739
    12  H    3.636475   4.153553   3.457223   2.146717   2.623610
    13  H    3.181402   3.632825   2.767585   2.146337   3.399656
    14  H    1.972776   2.849669   2.771630   1.995794   3.030265
    15  H    4.534587   4.246177   3.193523   2.090568   1.101447
    16  H    3.678813   3.667540   3.322120   2.134432   1.097525
    17  H    3.934905   3.276271   2.672083   2.165510   1.089647
    18  C    3.093999   2.629742   1.535501   2.511370   3.835627
    19  H    3.958289   3.578965   2.174894   2.722227   3.934977
    20  H    3.701560   2.981266   2.165529   3.422065   4.611047
    21  H    2.769260   2.760164   2.189884   2.901923   4.361199
    22  C    2.422394   1.538572   2.561907   3.747848   4.691516
    23  H    3.357819   2.193430   2.767842   4.104677   4.882448
    24  H    2.714402   2.132344   3.513997   4.536647   5.363336
    25  H    2.672642   2.192362   2.846560   4.038184   5.216647
    26  C    2.374226   1.536987   2.625056   3.022673   3.183689
    27  H    2.681984   2.136131   3.559865   3.999341   4.197891
    28  H    3.327040   2.201251   2.835285   3.419595   3.366223
    29  H    2.590288   2.190647   2.951539   2.804151   2.599743
                    6          7          8          9         10
     6  Fe   0.000000
     7  Cl   2.219218   0.000000
     8  C    3.901227   3.786135   0.000000
     9  Cl   2.199938   3.764585   5.856845   0.000000
    10  Cl   2.222069   3.658970   4.566216   3.686374   0.000000
    11  H    4.986326   6.162418   3.416423   6.167517   5.414562
    12  H    4.690742   4.098612   1.090689   6.611782   5.488379
    13  H    4.010539   4.001010   1.091941   6.112783   4.119326
    14  H    2.900782   2.756587   1.120971   4.838999   3.935734
    15  H    6.202467   6.254080   2.823074   7.734762   7.063150
    16  H    5.282775   5.189897   2.703207   6.579433   6.637768
    17  H    5.772695   6.300103   3.450295   6.888774   6.849412
    18  C    4.194796   5.389008   2.964952   5.824058   3.809717
    19  H    5.047023   5.934120   3.017731   6.823244   4.535732
    20  H    4.696295   6.187960   4.036658   6.041899   4.076803
    21  H    3.427363   4.611648   2.885941   5.215540   2.785560
    22  C    3.352822   5.316880   4.484766   3.865526   3.727467
    23  H    4.443590   6.360154   5.073338   4.848897   4.653024
    24  H    3.273381   5.345874   5.195378   3.136642   3.950316
    25  H    3.155209   5.175224   4.510148   3.938797   2.890823
    26  C    3.993698   5.233132   4.051303   4.425591   5.370595
    27  H    3.899400   5.276342   4.854418   3.776363   5.451971
    28  H    4.975529   6.289116   4.675194   5.335265   6.121096
    29  H    4.242728   5.014467   3.736331   4.838478   5.840060
                   11         12         13         14         15
    11  H    0.000000
    12  H    4.214676   0.000000
    13  H    3.720764   1.814357   0.000000
    14  H    3.763698   1.801349   1.743144   0.000000
    15  H    3.202722   2.661411   3.560720   3.624030   0.000000
    16  H    3.555707   2.544224   3.752835   2.968841   1.752508
    17  H    2.337306   3.696798   4.268696   3.853276   1.780300
    18  C    2.193902   3.979753   2.598044   3.277651   4.231253
    19  H    2.656128   3.864800   2.465820   3.643639   4.038520
    20  H    2.423945   5.054822   3.677426   4.269472   5.033868
    21  H    3.086605   3.938993   2.340292   2.931946   4.823342
    22  C    2.849208   5.507384   4.619176   4.109588   5.577684
    23  H    2.636362   6.074067   5.202307   4.887223   5.696234
    24  H    3.787144   6.170527   5.414944   4.630227   6.338066
    25  H    3.339060   5.587722   4.392647   4.144798   6.003623
    26  C    2.655674   4.744387   4.742968   3.700324   4.252786
    27  H    3.652447   5.548074   5.519701   4.300324   5.286462
    28  H    2.420538   5.353346   5.320671   4.532077   4.326793
    29  H    3.062667   4.209883   4.616248   3.411048   3.691478
                   16         17         18         19         20
    16  H    0.000000
    17  H    1.797719   0.000000
    18  C    4.626188   4.100176   0.000000
    19  H    4.800332   4.307418   1.094815   0.000000
    20  H    5.459774   4.660033   1.091109   1.764121   0.000000
    21  H    4.963784   4.775008   1.092344   1.780385   1.766441
    22  C    5.176613   4.529753   2.876792   3.955117   2.676943
    23  H    5.515107   4.516934   3.090214   4.065748   2.598930
    24  H    5.683151   5.160444   3.926247   5.013823   3.742833
    25  H    5.735706   5.220153   2.571244   3.641622   2.291438
    26  C    3.365477   2.812950   3.955876   4.784283   4.236285
    27  H    4.217189   3.844893   4.729592   5.654551   4.914571
    28  H    3.756867   2.669668   4.166739   4.919715   4.262159
    29  H    2.491401   2.355225   4.403545   5.083839   4.891502
                   21         22         23         24         25
    21  H    0.000000
    22  C    2.943833   0.000000
    23  H    3.473359   1.094812   0.000000
    24  H    3.846095   1.094749   1.779129   0.000000
    25  H    2.360781   1.089920   1.787060   1.763827   0.000000
    26  C    4.254419   2.510274   2.794461   2.666559   3.474237
    27  H    4.868136   2.670945   3.061729   2.360332   3.655386
    28  H    4.696012   2.809669   2.649966   3.074879   3.837016
    29  H    4.677736   3.474419   3.826352   3.646321   4.334634
                   26         27         28         29
    26  C    0.000000
    27  H    1.093581   0.000000
    28  H    1.095611   1.776025   0.000000
    29  H    1.091740   1.756281   1.788021   0.000000
 Framework group  C1[X(C8H16Cl3FeO)]
 Deg. of freedom    81
                         Standard orientation:                         
 ---------------------------------------------------------------------
 Center     Atomic      Atomic             Coordinates (Angstroms)
 Number     Number       Type             X           Y           Z
 ---------------------------------------------------------------------
      1          8           0       -0.353668   -0.123860   -0.449650
      2          6           0       -1.267920   -1.118696   -0.297612
      3          6           0       -2.500799   -0.486327    0.598281
      4          6           0       -2.762703    0.770435   -0.053628
      5          6           0       -3.747574    0.861877   -1.158828
      6         26           0        1.440998    0.169147   -0.074784
      7         17           0        1.631142    2.280115   -0.732499
      8          6           0       -2.005405    1.963906    0.272666
      9         17           0        2.617764   -1.325196   -1.180174
     10         17           0        1.675289   -0.000573    2.128371
     11          1           0       -3.331766   -1.180166    0.438567
     12          1           0       -2.385670    2.879936   -0.181084
     13          1           0       -1.788077    2.084149    1.335984
     14          1           0       -1.010135    1.716854   -0.180080
     15          1           0       -4.573449    1.498109   -0.803405
     16          1           0       -3.316824    1.388520   -2.020026
     17          1           0       -4.155462   -0.101295   -1.464210
     18          6           0       -2.114861   -0.383264    2.080911
     19          1           0       -2.826878    0.251744    2.617956
     20          1           0       -2.141613   -1.372043    2.541476
     21          1           0       -1.108962    0.022399    2.210602
     22          6           0       -0.724818   -2.329058    0.481661
     23          1           0       -1.507850   -3.068712    0.677584
     24          1           0        0.045808   -2.791212   -0.143659
     25          1           0       -0.255719   -2.031706    1.419453
     26          6           0       -1.772758   -1.581702   -1.673509
     27          1           0       -0.944394   -2.094839   -2.169919
     28          1           0       -2.615241   -2.277852   -1.596299
     29          1           0       -2.050648   -0.737749   -2.307873
 ---------------------------------------------------------------------
 Rotational constants (GHZ):           0.5879907           0.3315956           0.3122734
   427 basis functions,  1056 primitive gaussians,   461 cartesian basis functions
    77 alpha electrons       72 beta electrons
       nuclear repulsion energy      1647.8898105083 Hartrees.
 NAtoms=   29 NActive=   29 NUniq=   29 SFac= 1.00D+00 NAtFMM=   60 NAOKFM=F Big=F
 Nuclear repulsion after empirical dispersion term =     1647.8214772422 Hartrees.
 Initial guess from the checkpoint file:  "checkpoint.chk"
 B after Tr=     0.000000    0.000000    0.000000
         Rot=    1.000000    0.000000    0.000000    0.000000 Ang=   0.00 deg.
 Initial guess <Sx>= 0.0000 <Sy>= 0.0000 <Sz>= 2.5000 <S**2>= 8.7617 S= 2.5019
 SCF Done:  E(UB3LYP) =  -3034.38635733     A.U. after    1 cycles
            NFock=  1  Conv=0.16D-08     -V/T= 2.0024
 <Sx>= 0.0000 <Sy>= 0.0000 <Sz>= 2.5000 <S**2>= 8.7617 S= 2.5019
 <L.S>= 0.000000000000E+00
 Annihilation of the first spin contaminant:
 S**2 before annihilation     8.7617,   after     8.7500
 1\1\GINC-HOLY7C04308\SP\UB3LYP\Jul-CC-pVDZ\C8H16Cl3Fe1O1(6)\EKWAN\11-F
 eb-2020\0\\#t pop=none jul-cc-pvdz guess=read ub3lyp empiricaldispersi
 on=gd3bj\\theory_abbreviation b3lyp_d3bj\\0,6\O,0,-0.353668,-0.12386,-
 0.44965\C,0,-1.26792,-1.118696,-0.297612\C,0,-2.500799,-0.486327,0.598
 281\C,0,-2.762703,0.770435,-0.053628\C,0,-3.747574,0.861877,-1.158828\
 Fe,0,1.440998,0.169147,-0.074784\Cl,0,1.631142,2.280115,-0.732499\C,0,
 -2.005405,1.963906,0.272666\Cl,0,2.617764,-1.325196,-1.180174\Cl,0,1.6
 75289,-0.000573,2.128371\H,0,-3.331766,-1.180166,0.438567\H,0,-2.38567
 ,2.879936,-0.181084\H,0,-1.788077,2.084149,1.335984\H,0,-1.010135,1.71
 6854,-0.18008\H,0,-4.573449,1.498109,-0.803405\H,0,-3.316824,1.38852,-
 2.020026\H,0,-4.155462,-0.101295,-1.46421\C,0,-2.114861,-0.383264,2.08
 0911\H,0,-2.826878,0.251744,2.617956\H,0,-2.141613,-1.372043,2.541476\
 H,0,-1.108962,0.022399,2.210602\C,0,-0.724818,-2.329058,0.481661\H,0,-
 1.50785,-3.068712,0.677584\H,0,0.045808,-2.791212,-0.143659\H,0,-0.255
 719,-2.031706,1.419453\C,0,-1.772758,-1.581702,-1.673509\H,0,-0.944394
 ,-2.094839,-2.169919\H,0,-2.615241,-2.277852,-1.596299\H,0,-2.050648,-
 0.737749,-2.307873\\Version=ES64L-G16RevA.03\HF=-3034.3863573\S2=8.761
 676\S2-1=0.\S2A=8.750043\RMSD=1.600e-09\PG=C01 [X(C8H16Cl3Fe1O1)]\\@


 BREAD HAS TO MOLD IN ORDER TO GET PENICILLIN.
          -- JERRY BOATZ
 Job cpu time:       0 days  0 hours  4 minutes 35.0 seconds.
 Elapsed time:       0 days  0 hours  1 minutes  9.3 seconds.
 File lengths (MBytes):  RWF=    170 Int=      0 D2E=      0 Chk=     13 Scr=      1
 Normal termination of Gaussian 16 at Tue Feb 11 14:15:12 2020.
 Initial command:
 /n/sw/g16_nehalem/g16/l1.exe "/scratch/Gau-454444.inp" -scrdir="/scratch/"
 Entering Link 1 = /n/sw/g16_nehalem/g16/l1.exe PID=    457211.
  
 Copyright (c) 1988,1990,1992,1993,1995,1998,2003,2009,2016,
            Gaussian, Inc.  All Rights Reserved.
  
 This is part of the Gaussian(R) 16 program.  It is based on
 the Gaussian(R) 09 system (copyright 2009, Gaussian, Inc.),
 the Gaussian(R) 03 system (copyright 2003, Gaussian, Inc.),
 the Gaussian(R) 98 system (copyright 1998, Gaussian, Inc.),
 the Gaussian(R) 94 system (copyright 1995, Gaussian, Inc.),
 the Gaussian 92(TM) system (copyright 1992, Gaussian, Inc.),
 the Gaussian 90(TM) system (copyright 1990, Gaussian, Inc.),
 the Gaussian 88(TM) system (copyright 1988, Gaussian, Inc.),
 the Gaussian 86(TM) system (copyright 1986, Carnegie Mellon
 University), and the Gaussian 82(TM) system (copyright 1983,
 Carnegie Mellon University). Gaussian is a federally registered
 trademark of Gaussian, Inc.
  
 This software contains proprietary and confidential information,
 including trade secrets, belonging to Gaussian, Inc.
  
 This software is provided under written license and may be
 used, copied, transmitted, or stored only in accord with that
 written license.
  
 The following legend is applicable only to US Government
 contracts under FAR:
  
                    RESTRICTED RIGHTS LEGEND
  
 Use, reproduction and disclosure by the US Government is
 subject to restrictions as set forth in subparagraphs (a)
 and (c) of the Commercial Computer Software - Restricted
 Rights clause in FAR 52.227-19.
  
 Gaussian, Inc.
 340 Quinnipiac St., Bldg. 40, Wallingford CT 06492
  
  
 ---------------------------------------------------------------
 Warning -- This program may not be used in any manner that
 competes with the business of Gaussian, Inc. or will provide
 assistance to any competitor of Gaussian, Inc.  The licensee
 of this program is prohibited from giving any competitor of
 Gaussian, Inc. access to this program.  By using this program,
 the user acknowledges that Gaussian, Inc. is engaged in the
 business of creating and licensing software in the field of
 computational chemistry and represents and warrants to the
 licensee that it is not a competitor of Gaussian, Inc. and that
 it will not use this program in any manner prohibited above.
 ---------------------------------------------------------------
  

 Cite this work as:
 Gaussian 16, Revision A.03,
 M. J. Frisch, G. W. Trucks, H. B. Schlegel, G. E. Scuseria, 
 M. A. Robb, J. R. Cheeseman, G. Scalmani, V. Barone, 
 G. A. Petersson, H. Nakatsuji, X. Li, M. Caricato, A. V. Marenich, 
 J. Bloino, B. G. Janesko, R. Gomperts, B. Mennucci, H. P. Hratchian, 
 J. V. Ortiz, A. F. Izmaylov, J. L. Sonnenberg, D. Williams-Young, 
 F. Ding, F. Lipparini, F. Egidi, J. Goings, B. Peng, A. Petrone, 
 T. Henderson, D. Ranasinghe, V. G. Zakrzewski, J. Gao, N. Rega, 
 G. Zheng, W. Liang, M. Hada, M. Ehara, K. Toyota, R. Fukuda, 
 J. Hasegawa, M. Ishida, T. Nakajima, Y. Honda, O. Kitao, H. Nakai, 
 T. Vreven, K. Throssell, J. A. Montgomery, Jr., J. E. Peralta, 
 F. Ogliaro, M. J. Bearpark, J. J. Heyd, E. N. Brothers, K. N. Kudin, 
 V. N. Staroverov, T. A. Keith, R. Kobayashi, J. Normand, 
 K. Raghavachari, A. P. Rendell, J. C. Burant, S. S. Iyengar, 
 J. Tomasi, M. Cossi, J. M. Millam, M. Klene, C. Adamo, R. Cammi, 
 J. W. Ochterski, R. L. Martin, K. Morokuma, O. Farkas, 
 J. B. Foresman, and D. J. Fox, Gaussian, Inc., Wallingford CT, 2016.
 
 ******************************************
 Gaussian 16:  ES64L-G16RevA.03 25-Dec-2016
                11-Feb-2020 
 ******************************************
 %chk=checkpoint.chk
 %mem=3GB
 %nprocshared=4
 Will use up to    4 processors via shared memory.
 ----------------------------------------
 #t pop=none jul-cc-pvdz guess=read ub97d
 ----------------------------------------
 ------------------------
 theory_abbreviation b97d
 ------------------------
 Symbolic Z-matrix:
 Charge =  0 Multiplicity = 6
 O                    -0.35367  -0.12386  -0.44965 
 C                    -1.26792  -1.1187   -0.29761 
 C                    -2.5008   -0.48633   0.59828 
 C                    -2.7627    0.77044  -0.05363 
 C                    -3.74757   0.86188  -1.15883 
 Fe                    1.441     0.16915  -0.07478 
 Cl                    1.63114   2.28012  -0.7325 
 C                    -2.00541   1.96391   0.27267 
 Cl                    2.61776  -1.3252   -1.18017 
 Cl                    1.67529  -0.00057   2.12837 
 H                    -3.33177  -1.18017   0.43857 
 H                    -2.38567   2.87994  -0.18108 
 H                    -1.78808   2.08415   1.33598 
 H                    -1.01014   1.71685  -0.18008 
 H                    -4.57345   1.49811  -0.80341 
 H                    -3.31682   1.38852  -2.02003 
 H                    -4.15546  -0.1013   -1.46421 
 C                    -2.11486  -0.38326   2.08091 
 H                    -2.82688   0.25174   2.61796 
 H                    -2.14161  -1.37204   2.54148 
 H                    -1.10896   0.0224    2.2106 
 C                    -0.72482  -2.32906   0.48166 
 H                    -1.50785  -3.06871   0.67758 
 H                     0.04581  -2.79121  -0.14366 
 H                    -0.25572  -2.03171   1.41945 
 C                    -1.77276  -1.5817   -1.67351 
 H                    -0.94439  -2.09484  -2.16992 
 H                    -2.61524  -2.27785  -1.5963 
 H                    -2.05065  -0.73775  -2.30787 
 
                    Distance matrix (angstroms):
                    1          2          3          4          5
     1  O    0.000000
     2  C    1.359658   0.000000
     3  C    2.416550   1.650002   0.000000
     4  C    2.600009   2.421306   1.439802   0.000000
     5  C    3.604609   3.288320   2.541561   1.483172   0.000000
     6  Fe   1.856665   3.007728   4.052213   4.246539   5.345681
     7  Cl   3.130267   4.488385   5.147535   4.695303   5.578866
     8  C    2.758395   3.220487   2.520929   1.450635   2.509740
     9  Cl   3.287291   3.990000   5.483274   5.883043   6.730622
    10  Cl   3.282995   3.974679   4.474019   5.005132   6.399761
    11  H    3.282344   2.192076   1.094270   2.090678   2.625739
    12  H    3.636475   4.153553   3.457223   2.146717   2.623610
    13  H    3.181402   3.632825   2.767585   2.146337   3.399656
    14  H    1.972776   2.849669   2.771630   1.995794   3.030265
    15  H    4.534587   4.246177   3.193523   2.090568   1.101447
    16  H    3.678813   3.667540   3.322120   2.134432   1.097525
    17  H    3.934905   3.276271   2.672083   2.165510   1.089647
    18  C    3.093999   2.629742   1.535501   2.511370   3.835627
    19  H    3.958289   3.578965   2.174894   2.722227   3.934977
    20  H    3.701560   2.981266   2.165529   3.422065   4.611047
    21  H    2.769260   2.760164   2.189884   2.901923   4.361199
    22  C    2.422394   1.538572   2.561907   3.747848   4.691516
    23  H    3.357819   2.193430   2.767842   4.104677   4.882448
    24  H    2.714402   2.132344   3.513997   4.536647   5.363336
    25  H    2.672642   2.192362   2.846560   4.038184   5.216647
    26  C    2.374226   1.536987   2.625056   3.022673   3.183689
    27  H    2.681984   2.136131   3.559865   3.999341   4.197891
    28  H    3.327040   2.201251   2.835285   3.419595   3.366223
    29  H    2.590288   2.190647   2.951539   2.804151   2.599743
                    6          7          8          9         10
     6  Fe   0.000000
     7  Cl   2.219218   0.000000
     8  C    3.901227   3.786135   0.000000
     9  Cl   2.199938   3.764585   5.856845   0.000000
    10  Cl   2.222069   3.658970   4.566216   3.686374   0.000000
    11  H    4.986326   6.162418   3.416423   6.167517   5.414562
    12  H    4.690742   4.098612   1.090689   6.611782   5.488379
    13  H    4.010539   4.001010   1.091941   6.112783   4.119326
    14  H    2.900782   2.756587   1.120971   4.838999   3.935734
    15  H    6.202467   6.254080   2.823074   7.734762   7.063150
    16  H    5.282775   5.189897   2.703207   6.579433   6.637768
    17  H    5.772695   6.300103   3.450295   6.888774   6.849412
    18  C    4.194796   5.389008   2.964952   5.824058   3.809717
    19  H    5.047023   5.934120   3.017731   6.823244   4.535732
    20  H    4.696295   6.187960   4.036658   6.041899   4.076803
    21  H    3.427363   4.611648   2.885941   5.215540   2.785560
    22  C    3.352822   5.316880   4.484766   3.865526   3.727467
    23  H    4.443590   6.360154   5.073338   4.848897   4.653024
    24  H    3.273381   5.345874   5.195378   3.136642   3.950316
    25  H    3.155209   5.175224   4.510148   3.938797   2.890823
    26  C    3.993698   5.233132   4.051303   4.425591   5.370595
    27  H    3.899400   5.276342   4.854418   3.776363   5.451971
    28  H    4.975529   6.289116   4.675194   5.335265   6.121096
    29  H    4.242728   5.014467   3.736331   4.838478   5.840060
                   11         12         13         14         15
    11  H    0.000000
    12  H    4.214676   0.000000
    13  H    3.720764   1.814357   0.000000
    14  H    3.763698   1.801349   1.743144   0.000000
    15  H    3.202722   2.661411   3.560720   3.624030   0.000000
    16  H    3.555707   2.544224   3.752835   2.968841   1.752508
    17  H    2.337306   3.696798   4.268696   3.853276   1.780300
    18  C    2.193902   3.979753   2.598044   3.277651   4.231253
    19  H    2.656128   3.864800   2.465820   3.643639   4.038520
    20  H    2.423945   5.054822   3.677426   4.269472   5.033868
    21  H    3.086605   3.938993   2.340292   2.931946   4.823342
    22  C    2.849208   5.507384   4.619176   4.109588   5.577684
    23  H    2.636362   6.074067   5.202307   4.887223   5.696234
    24  H    3.787144   6.170527   5.414944   4.630227   6.338066
    25  H    3.339060   5.587722   4.392647   4.144798   6.003623
    26  C    2.655674   4.744387   4.742968   3.700324   4.252786
    27  H    3.652447   5.548074   5.519701   4.300324   5.286462
    28  H    2.420538   5.353346   5.320671   4.532077   4.326793
    29  H    3.062667   4.209883   4.616248   3.411048   3.691478
                   16         17         18         19         20
    16  H    0.000000
    17  H    1.797719   0.000000
    18  C    4.626188   4.100176   0.000000
    19  H    4.800332   4.307418   1.094815   0.000000
    20  H    5.459774   4.660033   1.091109   1.764121   0.000000
    21  H    4.963784   4.775008   1.092344   1.780385   1.766441
    22  C    5.176613   4.529753   2.876792   3.955117   2.676943
    23  H    5.515107   4.516934   3.090214   4.065748   2.598930
    24  H    5.683151   5.160444   3.926247   5.013823   3.742833
[...]
 ---------------------------------------------------------------------
 Rotational constants (GHZ):           0.5879907           0.3315956           0.3122734
   427 basis functions,  1056 primitive gaussians,   461 cartesian basis functions
    77 alpha electrons       72 beta electrons
       nuclear repulsion energy      1647.8898105083 Hartrees.
 NAtoms=   29 NActive=   29 NUniq=   29 SFac= 1.00D+00 NAtFMM=   60 NAOKFM=F Big=F
 Nuclear repulsion after empirical dispersion term =     1647.8873992821 Hartrees.
 Initial guess from the checkpoint file:  "checkpoint.chk"
 B after Tr=     0.000000    0.000000    0.000000
         Rot=    1.000000    0.000000    0.000000    0.000000 Ang=   0.00 deg.
 Initial guess <Sx>= 0.0000 <Sy>= 0.0000 <Sz>= 2.5000 <S**2>= 8.7614 S= 2.5019
 SCF Done:  E(UM06L) =  -3034.18489065     A.U. after   17 cycles
            NFock= 17  Conv=0.72D-08     -V/T= 2.0020
 <Sx>= 0.0000 <Sy>= 0.0000 <Sz>= 2.5000 <S**2>= 8.7622 S= 2.5020
 <L.S>= 0.000000000000E+00
 Annihilation of the first spin contaminant:
 S**2 before annihilation     8.7622,   after     8.7500
 1\1\GINC-HOLY7C04308\SP\UM06L\Jul-CC-pVDZ\C8H16Cl3Fe1O1(6)\EKWAN\11-Fe
 b-2020\0\\#t pop=none jul-cc-pvdz guess=read um06l empiricaldispersion
 =gd3\\theory_abbreviation m06l_d3\\0,6\O,0,-0.353668,-0.12386,-0.44965
 \C,0,-1.26792,-1.118696,-0.297612\C,0,-2.500799,-0.486327,0.598281\C,0
 ,-2.762703,0.770435,-0.053628\C,0,-3.747574,0.861877,-1.158828\Fe,0,1.
 440998,0.169147,-0.074784\Cl,0,1.631142,2.280115,-0.732499\C,0,-2.0054
 05,1.963906,0.272666\Cl,0,2.617764,-1.325196,-1.180174\Cl,0,1.675289,-
 0.000573,2.128371\H,0,-3.331766,-1.180166,0.438567\H,0,-2.38567,2.8799
 36,-0.181084\H,0,-1.788077,2.084149,1.335984\H,0,-1.010135,1.716854,-0
 .18008\H,0,-4.573449,1.498109,-0.803405\H,0,-3.316824,1.38852,-2.02002
 6\H,0,-4.155462,-0.101295,-1.46421\C,0,-2.114861,-0.383264,2.080911\H,
 0,-2.826878,0.251744,2.617956\H,0,-2.141613,-1.372043,2.541476\H,0,-1.
 108962,0.022399,2.210602\C,0,-0.724818,-2.329058,0.481661\H,0,-1.50785
 ,-3.068712,0.677584\H,0,0.045808,-2.791212,-0.143659\H,0,-0.255719,-2.
 031706,1.419453\C,0,-1.772758,-1.581702,-1.673509\H,0,-0.944394,-2.094
 839,-2.169919\H,0,-2.615241,-2.277852,-1.596299\H,0,-2.050648,-0.73774
 9,-2.307873\\Version=ES64L-G16RevA.03\HF=-3034.1848907\S2=8.762195\S2-
 1=0.\S2A=8.750048\RMSD=7.208e-09\PG=C01 [X(C8H16Cl3Fe1O1)]\\@


 HOW IS IT THAT THE SKY FEEDS THE STARS?

                           -- LUCRETIUS
 Job cpu time:       0 days  1 hours 14 minutes  2.4 seconds.
 Elapsed time:       0 days  0 hours 18 minutes 33.7 seconds.
 File lengths (MBytes):  RWF=    174 Int=      0 D2E=      0 Chk=     13 Scr=      1
 Normal termination of Gaussian 16 at Tue Feb 11 23:19:51 2020.
 Initial command:
 /n/sw/g16_nehalem/g16/l1.exe "/scratch/Gau-454444.inp" -scrdir="/scratch/"
 Entering Link 1 = /n/sw/g16_nehalem/g16/l1.exe PID=     43758.
  
 Copyright (c) 1988,1990,1992,1993,1995,1998,2003,2009,2016,
            Gaussian, Inc.  All Rights Reserved.
  
 This is part of the Gaussian(R) 16 program.  It is based on
 the Gaussian(R) 09 system (copyright 2009, Gaussian, Inc.),
 the Gaussian(R) 03 system (copyright 2003, Gaussian, Inc.),
 the Gaussian(R) 98 system (copyright 1998, Gaussian, Inc.),
 the Gaussian(R) 94 system (copyright 1995, Gaussian, Inc.),
 the Gaussian 92(TM) system (copyright 1992, Gaussian, Inc.),
 the Gaussian 90(TM) system (copyright 1990, Gaussian, Inc.),
 the Gaussian 88(TM) system (copyright 1988, Gaussian, Inc.),
 the Gaussian 86(TM) system (copyright 1986, Carnegie Mellon
 University), and the Gaussian 82(TM) system (copyright 1983,
 Carnegie Mellon University). Gaussian is a federally registered
 trademark of Gaussian, Inc.
  
 This software contains proprietary and confidential information,
 including trade secrets, belonging to Gaussian, Inc.
  
 This software is provided under written license and may be
 used, copied, transmitted, or stored only in accord with that
 written license.
  
 The following legend is applicable only to US Government
 contracts under FAR:
  
                    RESTRICTED RIGHTS LEGEND
  
 Use, reproduction and disclosure by the US Government is
 subject to restrictions as set forth in subparagraphs (a)
 and (c) of the Commercial Computer Software - Restricted
 Rights clause in FAR 52.227-19.
  
 Gaussian, Inc.
 340 Quinnipiac St., Bldg. 40, Wallingford CT 06492
  
  
 ---------------------------------------------------------------
 Warning -- This program may not be used in any manner that
 competes with the business of Gaussian, Inc. or will provide
 assistance to any competitor of Gaussian, Inc.  The licensee
 of this program is prohibited from giving any competitor of
 Gaussian, Inc. access to this program.  By using this program,
 the user acknowledges that Gaussian, Inc. is engaged in the
 business of creating and licensing software in the field of
 computational chemistry and represents and warrants to the
 licensee that it is not a competitor of Gaussian, Inc. and that
 it will not use this program in any manner prohibited above.
 ---------------------------------------------------------------
  

 Cite this work as:
 Gaussian 16, Revision A.03,
 M. J. Frisch, G. W. Trucks, H. B. Schlegel, G. E. Scuseria, 
 M. A. Robb, J. R. Cheeseman, G. Scalmani, V. Barone, 
 G. A. Petersson, H. Nakatsuji, X. Li, M. Caricato, A. V. Marenich, 
 J. Bloino, B. G. Janesko, R. Gomperts, B. Mennucci, H. P. Hratchian, 
 J. V. Ortiz, A. F. Izmaylov, J. L. Sonnenberg, D. Williams-Young, 
 F. Ding, F. Lipparini, F. Egidi, J. Goings, B. Peng, A. Petrone, 
 T. Henderson, D. Ranasinghe, V. G. Zakrzewski, J. Gao, N. Rega, 
 G. Zheng, W. Liang, M. Hada, M. Ehara, K. Toyota, R. Fukuda, 
 J. Hasegawa, M. Ishida, T. Nakajima, Y. Honda, O. Kitao, H. Nakai, 
 T. Vreven, K. Throssell, J. A. Montgomery, Jr., J. E. Peralta, 
 F. Ogliaro, M. J. Bearpark, J. J. Heyd, E. N. Brothers, K. N. Kudin, 
 V. N. Staroverov, T. A. Keith, R. Kobayashi, J. Normand, 
 K. Raghavachari, A. P. Rendell, J. C. Burant, S. S. Iyengar, 
 J. Tomasi, M. Cossi, J. M. Millam, M. Klene, C. Adamo, R. Cammi, 
 J. W. Ochterski, R. L. Martin, K. Morokuma, O. Farkas, 
 J. B. Foresman, and D. J. Fox, Gaussian, Inc., Wallingford CT, 2016.
 
 ******************************************
 Gaussian 16:  ES64L-G16RevA.03 25-Dec-2016
                11-Feb-2020 
 ******************************************
 %chk=checkpoint.chk
 %mem=3GB
 %nprocshared=4
 Will use up to    4 processors via shared memory.
 -------------------------------------------------------------------
 #t pop=none jul-cc-pvdz guess=read ub97d3 empiricaldispersion=gd3bj
 -------------------------------------------------------------------
 ------------------------------
 theory_abbreviation b97d3_d3bj
 ------------------------------
 Symbolic Z-matrix:
 Charge =  0 Multiplicity = 6
 O                    -0.35367  -0.12386  -0.44965 
 C                    -1.26792  -1.1187   -0.29761 
 C                    -2.5008   -0.48633   0.59828 
 C                    -2.7627    0.77044  -0.05363 
 C                    -3.74757   0.86188  -1.15883 
 Fe                    1.441     0.16915  -0.07478 
 Cl                    1.63114   2.28012  -0.7325 
 C                    -2.00541   1.96391   0.27267 
 Cl                    2.61776  -1.3252   -1.18017 
 Cl                    1.67529  -0.00057   2.12837 
 H                    -3.33177  -1.18017   0.43857 
 H                    -2.38567   2.87994  -0.18108 
 H                    -1.78808   2.08415   1.33598 
 H                    -1.01014   1.71685  -0.18008 
 H                    -4.57345   1.49811  -0.80341 
 H                    -3.31682   1.38852  -2.02003 
 H                    -4.15546  -0.1013   -1.46421 
 C                    -2.11486  -0.38326   2.08091 
 H                    -2.82688   0.25174   2.61796 
 H                    -2.14161  -1.37204   2.54148 
 H                    -1.10896   0.0224    2.2106 
 C                    -0.72482  -2.32906   0.48166 
 H                    -1.50785  -3.06871   0.67758 
 H                     0.04581  -2.79121  -0.14366 
 H                    -0.25572  -2.03171   1.41945 
 C                    -1.77276  -1.5817   -1.67351 
 H                    -0.94439  -2.09484  -2.16992 
 H                    -2.61524  -2.27785  -1.5963 
 H                    -2.05065  -0.73775  -2.30787 
 
                    Distance matrix (angstroms):
                    1          2          3          4          5
     1  O    0.000000
     2  C    1.359658   0.000000
     3  C    2.416550   1.650002   0.000000
     4  C    2.600009   2.421306   1.439802   0.000000
     5  C    3.604609   3.288320   2.541561   1.483172   0.000000
     6  Fe   1.856665   3.007728   4.052213   4.246539   5.345681
     7  Cl   3.130267   4.488385   5.147535   4.695303   5.578866
     8  C    2.758395   3.220487   2.520929   1.450635   2.509740
     9  Cl   3.287291   3.990000   5.483274   5.883043   6.730622
    10  Cl   3.282995   3.974679   4.474019   5.005132   6.399761
    11  H    3.282344   2.192076   1.094270   2.090678   2.625739
    12  H    3.636475   4.153553   3.457223   2.146717   2.623610
    13  H    3.181402   3.632825   2.767585   2.146337   3.399656
    14  H    1.972776   2.849669   2.771630   1.995794   3.030265
    15  H    4.534587   4.246177   3.193523   2.090568   1.101447
    16  H    3.678813   3.667540   3.322120   2.134432   1.097525
    17  H    3.934905   3.276271   2.672083   2.165510   1.089647
    18  C    3.093999   2.629742   1.535501   2.511370   3.835627
    19  H    3.958289   3.578965   2.174894   2.722227   3.934977
    20  H    3.701560   2.981266   2.165529   3.422065   4.611047
    21  H    2.769260   2.760164   2.189884   2.901923   4.361199
    22  C    2.422394   1.538572   2.561907   3.747848   4.691516
    23  H    3.357819   2.193430   2.767842   4.104677   4.882448
    24  H    2.714402   2.132344   3.513997   4.536647   5.363336
    25  H    2.672642   2.192362   2.846560   4.038184   5.216647
    26  C    2.374226   1.536987   2.625056   3.022673   3.183689
    27  H    2.681984   2.136131   3.559865   3.999341   4.197891
    28  H    3.327040   2.201251   2.835285   3.419595   3.366223
    29  H    2.590288   2.190647   2.951539   2.804151   2.599743
                    6          7          8          9         10
     6  Fe   0.000000
     7  Cl   2.219218   0.000000
     8  C    3.901227   3.786135   0.000000
     9  Cl   2.199938   3.764585   5.856845   0.000000
    10  Cl   2.222069   3.658970   4.566216   3.686374   0.000000
    11  H    4.986326   6.162418   3.416423   6.167517   5.414562
    12  H    4.690742   4.098612   1.090689   6.611782   5.488379
    13  H    4.010539   4.001010   1.091941   6.112783   4.119326
    14  H    2.900782   2.756587   1.120971   4.838999   3.935734
    15  H    6.202467   6.254080   2.823074   7.734762   7.063150
    16  H    5.282775   5.189897   2.703207   6.579433   6.637768
    17  H    5.772695   6.300103   3.450295   6.888774   6.849412
    18  C    4.194796   5.389008   2.964952   5.824058   3.809717
    19  H    5.047023   5.934120   3.017731   6.823244   4.535732
    20  H    4.696295   6.187960   4.036658   6.041899   4.076803
    21  H    3.427363   4.611648   2.885941   5.215540   2.785560
    22  C    3.352822   5.316880   4.484766   3.865526   3.727467
    23  H    4.443590   6.360154   5.073338   4.848897   4.653024
    24  H    3.273381   5.345874   5.195378   3.136642   3.950316
    25  H    3.155209   5.175224   4.510148   3.938797   2.890823
    26  C    3.993698   5.233132   4.051303   4.425591   5.370595
    27  H    3.899400   5.276342   4.854418   3.776363   5.451971
    28  H    4.975529   6.289116   4.675194   5.335265   6.121096
    29  H    4.242728   5.014467   3.736331   4.838478   5.840060
                   11         12         13         14         15
    11  H    0.000000
    12  H    4.214676   0.000000
    13  H    3.720764   1.814357   0.000000
    14  H    3.763698   1.801349   1.743144   0.000000
    15  H    3.202722   2.661411   3.560720   3.624030   0.000000
    16  H    3.555707   2.544224   3.752835   2.968841   1.752508
    17  H    2.337306   3.696798   4.268696   3.853276   1.780300
    18  C    2.193902   3.979753   2.598044   3.277651   4.231253
    19  H    2.656128   3.864800   2.465820   3.643639   4.038520
    20  H    2.423945   5.054822   3.677426   4.269472   5.033868
    21  H    3.086605   3.938993   2.340292   2.931946   4.823342
    22  C    2.849208   5.507384   4.619176   4.109588   5.577684
    23  H    2.636362   6.074067   5.202307   4.887223   5.696234
    24  H    3.787144   6.170527   5.414944   4.630227   6.338066
    25  H    3.339060   5.587722   4.392647   4.144798   6.003623
    26  C    2.655674   4.744387   4.742968   3.700324   4.252786
    27  H    3.652447   5.548074   5.519701   4.300324   5.286462
    28  H    2.420538   5.353346   5.320671   4.532077   4.326793
    29  H    3.062667   4.209883   4.616248   3.411048   3.691478
                   16         17         18         19         20
    16  H    0.000000
    17  H    1.797719   0.000000
    18  C    4.626188   4.100176   0.000000
    19  H    4.800332   4.307418   1.094815   0.000000
    20  H    5.459774   4.660033   1.091109   1.764121   0.000000
    21  H    4.963784   4.775008   1.092344   1.780385   1.766441
    22  C    5.176613   4.529753   2.876792   3.955117   2.676943
    23  H    5.515107   4.516934   3.090214   4.065748   2.598930
    24  H    5.683151   5.160444   3.926247   5.013823   3.742833
    25  H    5.735706   5.220153   2.571244   3.641622   2.291438
    26  C    3.365477   2.812950   3.955876   4.784283   4.236285
    27  H    4.217189   3.844893   4.729592   5.654551   4.914571
    28  H    3.756867   2.669668   4.166739   4.919715   4.262159
    29  H    2.491401   2.355225   4.403545   5.083839   4.891502
                   21         22         23         24         25
    21  H    0.000000
    22  C    2.943833   0.000000
    23  H    3.473359   1.094812   0.000000
    24  H    3.846095   1.094749   1.779129   0.000000
    25  H    2.360781   1.089920   1.787060   1.763827   0.000000
    26  C    4.254419   2.510274   2.794461   2.666559   3.474237
    27  H    4.868136   2.670945   3.061729   2.360332   3.655386
    28  H    4.696012   2.809669   2.649966   3.074879   3.837016
    29  H    4.677736   3.474419   3.826352   3.646321   4.334634
                   26         27         28         29
    26  C    0.000000
    27  H    1.093581   0.000000
    28  H    1.095611   1.776025   0.000000
    29  H    1.091740   1.756281   1.788021   0.000000
 Framework group  C1[X(C8H16Cl3FeO)]
 Deg. of freedom    81
                         Standard orientation:                         
 ---------------------------------------------------------------------
 Center     Atomic      Atomic             Coordinates (Angstroms)
 Number     Number       Type             X           Y           Z
 ---------------------------------------------------------------------
      1          8           0       -0.353668   -0.123860   -0.449650
      2          6           0       -1.267920   -1.118696   -0.297612
      3          6           0       -2.500799   -0.486327    0.598281
      4          6           0       -2.762703    0.770435   -0.053628
      5          6           0       -3.747574    0.861877   -1.158828
      6         26           0        1.440998    0.169147   -0.074784
      7         17           0        1.631142    2.280115   -0.732499
      8          6           0       -2.005405    1.963906    0.272666
      9         17           0        2.617764   -1.325196   -1.180174
     10         17           0        1.675289   -0.000573    2.128371
     11          1           0       -3.331766   -1.180166    0.438567
     12          1           0       -2.385670    2.879936   -0.181084
     13          1           0       -1.788077    2.084149    1.335984
     14          1           0       -1.010135    1.716854   -0.180080
     15          1           0       -4.573449    1.498109   -0.803405
     16          1           0       -3.316824    1.388520   -2.020026
     17          1           0       -4.155462   -0.101295   -1.464210
     18          6           0       -2.114861   -0.383264    2.080911
     19          1           0       -2.826878    0.251744    2.617956
     20          1           0       -2.141613   -1.372043    2.541476
     21          1           0       -1.108962    0.022399    2.210602
     22          6           0       -0.724818   -2.329058    0.481661
     23          1           0       -1.507850   -3.068712    0.677584
     24          1           0        0.045808   -2.791212   -0.143659
     25          1           0       -0.255719   -2.031706    1.419453
     26          6           0       -1.772758   -1.581702   -1.673509
     27          1           0       -0.944394   -2.094839   -2.169919
     28          1           0       -2.615241   -2.277852   -1.596299
     29          1           0       -2.050648   -0.737749   -2.307873
 ---------------------------------------------------------------------
 Rotational constants (GHZ):           0.5879907           0.3315956           0.3122734
   427 basis functions,  1056 primitive gaussians,   461 cartesian basis functions
    77 alpha electrons       72 beta electrons
       nuclear repulsion energy      1647.8898105083 Hartrees.
 NAtoms=   29 NActive=   29 NUniq=   29 SFac= 1.00D+00 NAtFMM=   60 NAOKFM=F Big=F
 Nuclear repulsion after empirical dispersion term =     1647.7887069322 Hartrees.
 Initial guess from the checkpoint file:  "checkpoint.chk"
 B after Tr=     0.000000    0.000000    0.000000
         Rot=    1.000000    0.000000    0.000000    0.000000 Ang=   0.00 deg.
 Initial guess <Sx>= 0.0000 <Sy>= 0.0000 <Sz>= 2.5000 <S**2>= 8.7622 S= 2.5020
 EnCoef did     3 forward-backward iterations
 SCF Done:  E(UB97D3) =  -3034.60420689     A.U. after   16 cycles
            NFock= 16  Conv=0.47D-08     -V/T= 2.0019
 <Sx>= 0.0000 <Sy>= 0.0000 <Sz>= 2.5000 <S**2>= 8.7609 S= 2.5018
 <L.S>= 0.000000000000E+00
 Annihilation of the first spin contaminant:
 S**2 before annihilation     8.7609,   after     8.7500
 1\1\GINC-HOLY7C04308\SP\UB97D3\Jul-CC-pVDZ\C8H16Cl3Fe1O1(6)\EKWAN\11-F
 eb-2020\0\\#t pop=none jul-cc-pvdz guess=read ub97d3 empiricaldispersi
 on=gd3bj\\theory_abbreviation b97d3_d3bj\\0,6\O,0,-0.353668,-0.12386,-
 0.44965\C,0,-1.26792,-1.118696,-0.297612\C,0,-2.500799,-0.486327,0.598
 281\C,0,-2.762703,0.770435,-0.053628\C,0,-3.747574,0.861877,-1.158828\
 Fe,0,1.440998,0.169147,-0.074784\Cl,0,1.631142,2.280115,-0.732499\C,0,
 -2.005405,1.963906,0.272666\Cl,0,2.617764,-1.325196,-1.180174\Cl,0,1.6
 75289,-0.000573,2.128371\H,0,-3.331766,-1.180166,0.438567\H,0,-2.38567
 ,2.879936,-0.181084\H,0,-1.788077,2.084149,1.335984\H,0,-1.010135,1.71
 6854,-0.18008\H,0,-4.573449,1.498109,-0.803405\H,0,-3.316824,1.38852,-
 2.020026\H,0,-4.155462,-0.101295,-1.46421\C,0,-2.114861,-0.383264,2.08
 0911\H,0,-2.826878,0.251744,2.617956\H,0,-2.141613,-1.372043,2.541476\
 H,0,-1.108962,0.022399,2.210602\C,0,-0.724818,-2.329058,0.481661\H,0,-
 1.50785,-3.068712,0.677584\H,0,0.045808,-2.791212,-0.143659\H,0,-0.255
 719,-2.031706,1.419453\C,0,-1.772758,-1.581702,-1.673509\H,0,-0.944394
 ,-2.094839,-2.169919\H,0,-2.615241,-2.277852,-1.596299\H,0,-2.050648,-
 0.737749,-2.307873\\Version=ES64L-G16RevA.03\HF=-3034.6042069\S2=8.760
 926\S2-1=0.\S2A=8.750037\RMSD=4.745e-09\PG=C01 [X(C8H16Cl3Fe1O1)]\\@


 TELEVISION IS CALLED A MEDIUM BECAUSE IT ISN'T
 RARE, AND IT ISN'T WELL DONE.
 Job cpu time:       0 days  0 hours 50 minutes 40.8 seconds.
 Elapsed time:       0 days  0 hours 12 minutes 42.5 seconds.
 File lengths (MBytes):  RWF=    174 Int=      0 D2E=      0 Chk=     13 Scr=      1
 Normal termination of Gaussian 16 at Tue Feb 11 23:32:34 2020.
