 Entering Gaussian System, Link 0=g16
 Input=simple-grid-165-195-b3lyp_d3bj-631gd-gas-singlepoint-DFT-juldz2-gas.gjf
 Output=simple-grid-165-195-b3lyp_d3bj-631gd-gas-singlepoint-DFT-juldz2-gas.out
 Initial command:
 /n/sw/g16_nehalem/g16/l1.exe "/scratch/Gau-377031.inp" -scrdir="/scratch/"
 Entering Link 1 = /n/sw/g16_nehalem/g16/l1.exe PID=    377035.
  
 Copyright (c) 1988,1990,1992,1993,1995,1998,2003,2009,2016,
            Gaussian, Inc.  All Rights Reserved.
  
 This is part of the Gaussian(R) 16 program.  It is based on
 the Gaussian(R) 09 system (copyright 2009, Gaussian, Inc.),
 the Gaussian(R) 03 system (copyright 2003, Gaussian, Inc.),
 the Gaussian(R) 98 system (copyright 1998, Gaussian, Inc.),
 the Gaussian(R) 94 system (copyright 1995, Gaussian, Inc.),
 the Gaussian 92(TM) system (copyright 1992, Gaussian, Inc.),
 the Gaussian 90(TM) system (copyright 1990, Gaussian, Inc.),
 the Gaussian 88(TM) system (copyright 1988, Gaussian, Inc.),
 the Gaussian 86(TM) system (copyright 1986, Carnegie Mellon
 University), and the Gaussian 82(TM) system (copyright 1983,
 Carnegie Mellon University). Gaussian is a federally registered
 trademark of Gaussian, Inc.
  
 This software contains proprietary and confidential information,
 including trade secrets, belonging to Gaussian, Inc.
  
 This software is provided under written license and may be
 used, copied, transmitted, or stored only in accord with that
 written license.
  
 The following legend is applicable only to US Government
 contracts under FAR:
  
                    RESTRICTED RIGHTS LEGEND
  
 Use, reproduction and disclosure by the US Government is
 subject to restrictions as set forth in subparagraphs (a)
 and (c) of the Commercial Computer Software - Restricted
 Rights clause in FAR 52.227-19.
  
 Gaussian, Inc.
 340 Quinnipiac St., Bldg. 40, Wallingford CT 06492
  
  
 ---------------------------------------------------------------
 Warning -- This program may not be used in any manner that
 competes with the business of Gaussian, Inc. or will provide
 assistance to any competitor of Gaussian, Inc.  The licensee
 of this program is prohibited from giving any competitor of
 Gaussian, Inc. access to this program.  By using this program,
 the user acknowledges that Gaussian, Inc. is engaged in the
 business of creating and licensing software in the field of
 computational chemistry and represents and warrants to the
 licensee that it is not a competitor of Gaussian, Inc. and that
 it will not use this program in any manner prohibited above.
 ---------------------------------------------------------------
  

 Cite this work as:
 Gaussian 16, Revision A.03,
 M. J. Frisch, G. W. Trucks, H. B. Schlegel, G. E. Scuseria, 
 M. A. Robb, J. R. Cheeseman, G. Scalmani, V. Barone, 
 G. A. Petersson, H. Nakatsuji, X. Li, M. Caricato, A. V. Marenich, 
 J. Bloino, B. G. Janesko, R. Gomperts, B. Mennucci, H. P. Hratchian, 
 J. V. Ortiz, A. F. Izmaylov, J. L. Sonnenberg, D. Williams-Young, 
 F. Ding, F. Lipparini, F. Egidi, J. Goings, B. Peng, A. Petrone, 
 T. Henderson, D. Ranasinghe, V. G. Zakrzewski, J. Gao, N. Rega, 
 G. Zheng, W. Liang, M. Hada, M. Ehara, K. Toyota, R. Fukuda, 
 J. Hasegawa, M. Ishida, T. Nakajima, Y. Honda, O. Kitao, H. Nakai, 
 T. Vreven, K. Throssell, J. A. Montgomery, Jr., J. E. Peralta, 
 F. Ogliaro, M. J. Bearpark, J. J. Heyd, E. N. Brothers, K. N. Kudin, 
 V. N. Staroverov, T. A. Keith, R. Kobayashi, J. Normand, 
 K. Raghavachari, A. P. Rendell, J. C. Burant, S. S. Iyengar, 
 J. Tomasi, M. Cossi, J. M. Millam, M. Klene, C. Adamo, R. Cammi, 
 J. W. Ochterski, R. L. Martin, K. Morokuma, O. Farkas, 
 J. B. Foresman, and D. J. Fox, Gaussian, Inc., Wallingford CT, 2016.
 
 ******************************************
 Gaussian 16:  ES64L-G16RevA.03 25-Dec-2016
                11-Feb-2020 
 ******************************************
 %chk=checkpoint.chk
 %mem=3GB
 %nprocshared=4
 Will use up to    4 processors via shared memory.
 --------------------------------
 #t pop=none jul-cc-pvdz upbe1pbe
 --------------------------------
 ------------------------
 theory_abbreviation pbe0
 ------------------------
 Symbolic Z-matrix:
 Charge =  0 Multiplicity = 6
 O                    -0.44063  -0.1502   -0.5052 
 C                    -1.47624  -1.1739   -0.32563 
 C                    -2.74429  -0.12105  -0.24781 
 C                    -1.88121   1.14205  -0.26579 
 C                    -1.80775   1.93828  -1.52097 
 Fe                    1.3736    0.03077   0.0324 
 Cl                    1.88718   1.98098  -0.8596 
 C                    -1.54665   1.84364   1.004 
 Cl                    2.38307  -1.74407  -0.75848 
 Cl                    1.40484   0.13577   2.23644 
 H                    -3.29448  -0.18509  -1.19143 
 H                    -2.41536   2.46431   1.27189 
 H                    -1.35131   1.1581    1.8285 
 H                    -0.68629   2.50392   0.87228 
 H                    -2.63845   2.66126  -1.50212 
 H                    -0.86914   2.49569  -1.57622 
 H                    -1.91974   1.31035  -2.40648 
 C                    -3.7142   -0.27443   0.91676 
 H                    -4.47757   0.51178   0.89747 
 H                    -4.23183  -1.23579   0.84194 
 H                    -3.21498  -0.23893   1.88788 
 C                    -1.23655  -1.97391   0.94108 
 H                    -2.0544   -2.68253   1.10795 
 H                    -0.30853  -2.54641   0.83687 
 H                    -1.13428  -1.33418   1.81975 
 C                    -1.51329  -2.04851  -1.56466 
 H                    -0.56231  -2.5818   -1.66548 
 H                    -2.32248  -2.78423  -1.49372 
 H                    -1.66298  -1.44355  -2.46381 
 
                    Distance matrix (angstroms):
                    1          2          3          4          5
     1  O    0.000000
     2  C    1.467205   0.000000
     3  C    2.318180   1.650000   0.000000
     4  C    1.950001   2.351848   1.529916   0.000000
     5  C    2.694920   3.350283   2.595931   1.488237   0.000000
     6  Fe   1.900839   3.114644   4.130207   3.452197   4.021516
     7  Cl   3.175886   4.642307   5.122827   3.906046   3.753904
     8  C    2.734292   3.298240   2.619420   1.488801   2.540197
     9  Cl   3.252362   3.925144   5.402300   5.172673   5.630643
    10  Cl   3.317243   4.071860   4.842805   4.251107   5.261935
    11  H    2.935407   2.243511   1.094174   2.148359   2.612983
    12  H    3.727366   4.082956   3.016909   2.097176   2.906194
    13  H    2.826145   3.177110   2.808496   2.160346   3.469288
    14  H    3.000359   3.947827   3.518581   2.139562   2.702825
    15  H    3.705207   4.176512   3.053798   2.099974   1.101409
    16  H    2.886428   3.924084   3.482551   2.138653   1.093048
    17  H    2.817069   3.270800   2.718204   2.147642   1.091318
    18  C    3.571225   2.713119   1.523308   2.600900   3.804356
    19  H    4.324651   3.653142   2.171727   2.914022   3.874493
    20  H    4.167315   2.993380   2.154764   3.522307   4.640503
    21  H    3.664932   2.965970   2.190118   2.885198   4.282617
    22  C    2.459902   1.517239   2.668306   3.403138   4.657597
    23  H    3.408688   2.159945   2.979131   4.067499   5.322021
    24  H    2.749617   2.144462   3.604418   4.158594   5.283891
    25  H    2.699691   2.178363   2.887670   3.322515   4.724720
    26  C    2.424172   1.517073   2.639045   3.464400   3.997886
    27  H    2.696988   2.147714   3.581362   4.191146   4.690756
    28  H    3.384773   2.161889   2.970317   4.137419   4.750560
    29  H    2.646331   2.163198   2.798019   3.400623   3.513785
                    6          7          8          9         10
     6  Fe   0.000000
     7  Cl   2.205167   0.000000
     8  C    3.571887   3.909356   0.000000
     9  Cl   2.189655   3.759278   5.605420   0.000000
    10  Cl   2.206761   3.636334   3.625884   3.668828   0.000000
    11  H    4.830669   5.625980   3.462739   5.903599   5.825535
    12  H    4.670618   4.825839   1.100750   6.697598   4.576722
    13  H    3.452821   4.288455   1.089921   5.390792   2.967818
    14  H    3.326416   3.145734   1.092490   5.488700   3.441210
    15  H    5.036939   4.621357   2.853267   6.721278   6.058307
    16  H    3.700459   2.894096   2.746214   5.405664   5.027582
    17  H    4.293202   4.163565   3.472029   5.528073   5.830028
    18  C    5.173099   6.294266   3.031846   6.491763   5.302301
    19  H    5.934304   6.764316   3.221105   7.409418   6.044586
    20  H    5.803484   7.119356   4.088934   6.824708   5.966396
    21  H    4.956880   6.205543   2.810996   6.372353   4.648085
    22  C    3.414284   5.351760   3.830643   4.005370   3.620174
    23  H    4.502218   6.415265   4.555744   4.904630   4.602459
    24  H    3.180974   5.310033   4.564362   3.230111   3.476859
    25  H    3.368558   5.224793   3.306665   4.380304   2.963364
    26  C    3.899756   5.319499   4.663464   3.990512   5.266389
    27  H    3.668251   5.241036   5.261138   3.193694   5.145855
    28  H    4.890229   6.389889   5.315801   4.874911   6.027727
    29  H    4.198275   5.186961   4.779629   4.401020   5.830792
                   11         12         13         14         15
    11  H    0.000000
    12  H    3.722915   0.000000
    13  H    3.834056   1.774318   0.000000
    14  H    4.276953   1.775086   1.779846   0.000000
    15  H    2.937450   2.789924   3.874171   3.077892   0.000000
    16  H    3.635514   3.240907   3.689677   2.455325   1.778579
    17  H    2.366987   3.886862   4.275669   3.700851   1.777462
    18  C    2.151411   3.051846   2.909746   4.109673   3.953027
    19  H    2.499761   2.864487   3.325365   4.282882   3.709536
    20  H    2.473293   4.144294   3.873162   5.153371   4.818765
    21  H    3.080798   2.885542   2.329913   3.866391   4.498395
    22  C    3.461579   4.604000   3.257321   4.512040   5.423956
    23  H    3.614152   5.162080   3.970377   5.369031   5.975748
    24  H    4.313429   5.453003   3.974174   5.064563   6.165965
    25  H    3.879954   4.045962   2.501720   3.978619   5.409327
    26  C    2.604664   5.406035   4.671402   5.229451   4.842702
    27  H    3.665206   6.125778   5.178532   5.685083   5.641518
    28  H    2.791360   5.933331   5.246166   6.019938   5.454653
    29  H    2.421671   5.458287   5.028876   5.259842   4.327334
                   16         17         18         19         20
    16  H    0.000000
    17  H    1.788338   0.000000
    18  C    4.688584   4.095792   0.000000
    19  H    4.803729   4.253977   1.096006   0.000000
    20  H    5.574870   4.730843   1.094426   1.765639   0.000000
    21  H    4.998109   4.745468   1.092496   1.771610   1.766829
    22  C    5.142871   4.739122   3.004594   4.084701   3.086479
    23  H    5.951767   5.320940   2.930944   4.014929   2.627737
    24  H    5.617833   5.290546   4.094734   5.170790   4.136423
    25  H    5.125505   5.046932   2.931628   3.928836   3.249707
    26  C    4.589641   3.486513   3.761487   4.626458   3.720580
    27  H    5.087544   4.188145   4.682556   5.609655   4.643737
    28  H    5.476918   4.214370   3.747854   4.607156   3.390960
    29  H    4.115293   2.766434   4.123421   4.800360   4.191681
                   21         22         23         24         25
    21  H    0.000000
    22  C    2.796566   0.000000
    23  H    2.815386   1.094923   0.000000
    24  H    3.857010   1.095367   1.772021   0.000000
    25  H    2.352345   1.091687   1.780820   1.765623   0.000000
    26  C    4.253271   2.522072   2.799570   2.732515   3.479671
    27  H    5.015182   2.760119   3.150929   2.515425   3.745733
    28  H    4.325543   2.786419   2.617423   3.089370   3.807045
    29  H    4.774623   3.472234   3.800756   3.734341   4.317452
                   26         27         28         29
    26  C    0.000000
    27  H    1.094957   0.000000
    28  H    1.095959   1.780084   0.000000
    29  H    1.094013   1.773258   1.781418   0.000000
 Framework group  C1[X(C8H16Cl3FeO)]
 Deg. of freedom    81
                         Standard orientation:                         
 ---------------------------------------------------------------------
 Center     Atomic      Atomic             Coordinates (Angstroms)
 Number     Number       Type             X           Y           Z
 ---------------------------------------------------------------------
      1          8           0       -0.440628   -0.150201   -0.505196
      2          6           0       -1.476241   -1.173896   -0.325626
      3          6           0       -2.744291   -0.121045   -0.247813
      4          6           0       -1.881210    1.142051   -0.265794
      5          6           0       -1.807754    1.938281   -1.520972
      6         26           0        1.373602    0.030770    0.032400
      7         17           0        1.887183    1.980983   -0.859600
      8          6           0       -1.546650    1.843641    1.003997
      9         17           0        2.383071   -1.744073   -0.758482
     10         17           0        1.404841    0.135770    2.236440
     11          1           0       -3.294483   -0.185093   -1.191425
     12          1           0       -2.415360    2.464308    1.271889
     13          1           0       -1.351311    1.158095    1.828495
     14          1           0       -0.686293    2.503922    0.872277
     15          1           0       -2.638448    2.661256   -1.502119
     16          1           0       -0.869142    2.495694   -1.576216
     17          1           0       -1.919741    1.310347   -2.406485
     18          6           0       -3.714199   -0.274426    0.916756
     19          1           0       -4.477573    0.511778    0.897468
     20          1           0       -4.231831   -1.235794    0.841943
     21          1           0       -3.214985   -0.238933    1.887876
     22          6           0       -1.236550   -1.973911    0.941078
     23          1           0       -2.054399   -2.682526    1.107947
     24          1           0       -0.308534   -2.546409    0.836866
     25          1           0       -1.134282   -1.334178    1.819750
     26          6           0       -1.513285   -2.048506   -1.564656
     27          1           0       -0.562307   -2.581804   -1.665475
     28          1           0       -2.322484   -2.784232   -1.493724
     29          1           0       -1.662978   -1.443549   -2.463813
 ---------------------------------------------------------------------
 Rotational constants (GHZ):           0.5735876           0.3653977           0.3260822
   427 basis functions,  1056 primitive gaussians,   461 cartesian basis functions
    77 alpha electrons       72 beta electrons
       nuclear repulsion energy      1664.3206075929 Hartrees.
 NAtoms=   29 NActive=   29 NUniq=   29 SFac= 1.00D+00 NAtFMM=   60 NAOKFM=F Big=F
 ExpMin= 1.40D-02 ExpMax= 4.32D+06 ExpMxC= 4.91D+03 IAcc=3 IRadAn=         5 AccDes= 0.00D+00
 Harris functional with IExCor= 1009 and IRadAn=       5 diagonalized for initial guess.
 HarFok:  IExCor= 1009 AccDes= 0.00D+00 IRadAn=         5 IDoV= 1 UseB2=F ITyADJ=14
 ICtDFT=  3500011 ScaDFX=  1.000000  1.000000  1.000000  1.000000
 FoFCou: FMM=F IPFlag=           0 FMFlag=      100000 FMFlg1=           0
         NFxFlg=           0 DoJE=T BraDBF=F KetDBF=T FulRan=T
         wScrn=  0.000000 ICntrl=       500 IOpCl=  0 I1Cent=   200000004 NGrid=           0
         NMat0=    1 NMatS0=      1 NMatT0=    0 NMatD0=    1 NMtDS0=    0 NMtDT0=    0
 Petite list used in FoFCou.
 Initial guess <Sx>= 0.0000 <Sy>= 0.0000 <Sz>= 2.5000 <S**2>= 8.7500 S= 2.5000
 EnCoef did     2 forward-backward iterations
 SCF Done:  E(UPBE1PBE) =  -3033.12883746     A.U. after   19 cycles
            NFock= 19  Conv=0.51D-08     -V/T= 2.0022
 <Sx>= 0.0000 <Sy>= 0.0000 <Sz>= 2.5000 <S**2>= 8.7627 S= 2.5021
 <L.S>= 0.000000000000E+00
 Annihilation of the first spin contaminant:
 S**2 before annihilation     8.7627,   after     8.7501
 1\1\GINC-HOLY7C06104\SP\UPBE1PBE\Jul-CC-pVDZ\C8H16Cl3Fe1O1(6)\EKWAN\11
 -Feb-2020\0\\#t pop=none jul-cc-pvdz upbe1pbe\\theory_abbreviation pbe
 0\\0,6\O,0,-0.440628,-0.150201,-0.505196\C,0,-1.476241,-1.173896,-0.32
 5626\C,0,-2.744291,-0.121045,-0.247813\C,0,-1.88121,1.142051,-0.265794
 \C,0,-1.807754,1.938281,-1.520972\Fe,0,1.373602,0.03077,0.0324\Cl,0,1.
 887183,1.980983,-0.8596\C,0,-1.54665,1.843641,1.003997\Cl,0,2.383071,-
 1.744073,-0.758482\Cl,0,1.404841,0.13577,2.23644\H,0,-3.294483,-0.1850
 93,-1.191425\H,0,-2.41536,2.464308,1.271889\H,0,-1.351311,1.158095,1.8
 28495\H,0,-0.686293,2.503922,0.872277\H,0,-2.638448,2.661256,-1.502119
 \H,0,-0.869142,2.495694,-1.576216\H,0,-1.919741,1.310347,-2.406485\C,0
 ,-3.714199,-0.274426,0.916756\H,0,-4.477573,0.511778,0.897468\H,0,-4.2
 31831,-1.235794,0.841943\H,0,-3.214985,-0.238933,1.887876\C,0,-1.23655
 ,-1.973911,0.941078\H,0,-2.054399,-2.682526,1.107947\H,0,-0.308534,-2.
 546409,0.836866\H,0,-1.134282,-1.334178,1.81975\C,0,-1.513285,-2.04850
 6,-1.564656\H,0,-0.562307,-2.581804,-1.665475\H,0,-2.322484,-2.784232,
 -1.493724\H,0,-1.662978,-1.443549,-2.463813\\Version=ES64L-G16RevA.03\
 HF=-3033.1288375\S2=8.762696\S2-1=0.\S2A=8.75005\RMSD=5.081e-09\PG=C01
  [X(C8H16Cl3Fe1O1)]\\@


 THERE'S A SUCKER BORN EVERY MINUTE

              -- PHINEAS TAYLOR (P.T.) BARNUM
 Job cpu time:       0 days  1 hours 22 minutes  4.8 seconds.
 Elapsed time:       0 days  0 hours 20 minutes 39.7 seconds.
 File lengths (MBytes):  RWF=    173 Int=      0 D2E=      0 Chk=     13 Scr=      1
 Normal termination of Gaussian 16 at Tue Feb 11 13:54:43 2020.
 Initial command:
 /n/sw/g16_nehalem/g16/l1.exe "/scratch/Gau-377031.inp" -scrdir="/scratch/"
 Entering Link 1 = /n/sw/g16_nehalem/g16/l1.exe PID=    378552.
  
 Copyright (c) 1988,1990,1992,1993,1995,1998,2003,2009,2016,
            Gaussian, Inc.  All Rights Reserved.
  
 This is part of the Gaussian(R) 16 program.  It is based on
 the Gaussian(R) 09 system (copyright 2009, Gaussian, Inc.),
 the Gaussian(R) 03 system (copyright 2003, Gaussian, Inc.),
 the Gaussian(R) 98 system (copyright 1998, Gaussian, Inc.),
 the Gaussian(R) 94 system (copyright 1995, Gaussian, Inc.),
 the Gaussian 92(TM) system (copyright 1992, Gaussian, Inc.),
 the Gaussian 90(TM) system (copyright 1990, Gaussian, Inc.),
 the Gaussian 88(TM) system (copyright 1988, Gaussian, Inc.),
 the Gaussian 86(TM) system (copyright 1986, Carnegie Mellon
 University), and the Gaussian 82(TM) system (copyright 1983,
 Carnegie Mellon University). Gaussian is a federally registered
 trademark of Gaussian, Inc.
  
 This software contains proprietary and confidential information,
 including trade secrets, belonging to Gaussian, Inc.
  
 This software is provided under written license and may be
 used, copied, transmitted, or stored only in accord with that
 written license.
  
 The following legend is applicable only to US Government
 contracts under FAR:
  
                    RESTRICTED RIGHTS LEGEND
  
 Use, reproduction and disclosure by the US Government is
 subject to restrictions as set forth in subparagraphs (a)
 and (c) of the Commercial Computer Software - Restricted
 Rights clause in FAR 52.227-19.
  
 Gaussian, Inc.
 340 Quinnipiac St., Bldg. 40, Wallingford CT 06492
  
  
 ---------------------------------------------------------------
 Warning -- This program may not be used in any manner that
 competes with the business of Gaussian, Inc. or will provide
 assistance to any competitor of Gaussian, Inc.  The licensee
 of this program is prohibited from giving any competitor of
 Gaussian, Inc. access to this program.  By using this program,
 the user acknowledges that Gaussian, Inc. is engaged in the
 business of creating and licensing software in the field of
 computational chemistry and represents and warrants to the
 licensee that it is not a competitor of Gaussian, Inc. and that
 it will not use this program in any manner prohibited above.
 ---------------------------------------------------------------
  

 Cite this work as:
 Gaussian 16, Revision A.03,
 M. J. Frisch, G. W. Trucks, H. B. Schlegel, G. E. Scuseria, 
 M. A. Robb, J. R. Cheeseman, G. Scalmani, V. Barone, 
 G. A. Petersson, H. Nakatsuji, X. Li, M. Caricato, A. V. Marenich, 
 J. Bloino, B. G. Janesko, R. Gomperts, B. Mennucci, H. P. Hratchian, 
 J. V. Ortiz, A. F. Izmaylov, J. L. Sonnenberg, D. Williams-Young, 
 F. Ding, F. Lipparini, F. Egidi, J. Goings, B. Peng, A. Petrone, 
 T. Henderson, D. Ranasinghe, V. G. Zakrzewski, J. Gao, N. Rega, 
 G. Zheng, W. Liang, M. Hada, M. Ehara, K. Toyota, R. Fukuda, 
 J. Hasegawa, M. Ishida, T. Nakajima, Y. Honda, O. Kitao, H. Nakai, 
 T. Vreven, K. Throssell, J. A. Montgomery, Jr., J. E. Peralta, 
 F. Ogliaro, M. J. Bearpark, J. J. Heyd, E. N. Brothers, K. N. Kudin, 
 V. N. Staroverov, T. A. Keith, R. Kobayashi, J. Normand, 
 K. Raghavachari, A. P. Rendell, J. C. Burant, S. S. Iyengar, 
 J. Tomasi, M. Cossi, J. M. Millam, M. Klene, C. Adamo, R. Cammi, 
 J. W. Ochterski, R. L. Martin, K. Morokuma, O. Farkas, 
 J. B. Foresman, and D. J. Fox, Gaussian, Inc., Wallingford CT, 2016.
 
 ******************************************
 Gaussian 16:  ES64L-G16RevA.03 25-Dec-2016
                11-Feb-2020 
 ******************************************
 %chk=checkpoint.chk
 %mem=3GB
 %nprocshared=4
 Will use up to    4 processors via shared memory.
 ---------------------------------------------------------------------
 #t pop=none jul-cc-pvdz guess=read upbe1pbe empiricaldispersion=gd3bj
 ---------------------------------------------------------------------
 -----------------------------
 theory_abbreviation pbe0_d3bj
 -----------------------------
 Symbolic Z-matrix:
 Charge =  0 Multiplicity = 6
 O                    -0.44063  -0.1502   -0.5052 
 C                    -1.47624  -1.1739   -0.32563 
 C                    -2.74429  -0.12105  -0.24781 
 C                    -1.88121   1.14205  -0.26579 
 C                    -1.80775   1.93828  -1.52097 
 Fe                    1.3736    0.03077   0.0324 
 Cl                    1.88718   1.98098  -0.8596 
 C                    -1.54665   1.84364   1.004 
 Cl                    2.38307  -1.74407  -0.75848 
 Cl                    1.40484   0.13577   2.23644 
 H                    -3.29448  -0.18509  -1.19143 
 H                    -2.41536   2.46431   1.27189 
 H                    -1.35131   1.1581    1.8285 
 H                    -0.68629   2.50392   0.87228 
 H                    -2.63845   2.66126  -1.50212 
 H                    -0.86914   2.49569  -1.57622 
 H                    -1.91974   1.31035  -2.40648 
 C                    -3.7142   -0.27443   0.91676 
 H                    -4.47757   0.51178   0.89747 
 H                    -4.23183  -1.23579   0.84194 
 H                    -3.21498  -0.23893   1.88788 
 C                    -1.23655  -1.97391   0.94108 
 H                    -2.0544   -2.68253   1.10795 
 H                    -0.30853  -2.54641   0.83687 
 H                    -1.13428  -1.33418   1.81975 
 C                    -1.51329  -2.04851  -1.56466 
 H                    -0.56231  -2.5818   -1.66548 
 H                    -2.32248  -2.78423  -1.49372 
 H                    -1.66298  -1.44355  -2.46381 
 
                    Distance matrix (angstroms):
                    1          2          3          4          5
     1  O    0.000000
     2  C    1.467205   0.000000
     3  C    2.318180   1.650000   0.000000
     4  C    1.950001   2.351848   1.529916   0.000000
     5  C    2.694920   3.350283   2.595931   1.488237   0.000000
     6  Fe   1.900839   3.114644   4.130207   3.452197   4.021516
     7  Cl   3.175886   4.642307   5.122827   3.906046   3.753904
     8  C    2.734292   3.298240   2.619420   1.488801   2.540197
     9  Cl   3.252362   3.925144   5.402300   5.172673   5.630643
    10  Cl   3.317243   4.071860   4.842805   4.251107   5.261935
    11  H    2.935407   2.243511   1.094174   2.148359   2.612983
    12  H    3.727366   4.082956   3.016909   2.097176   2.906194
    13  H    2.826145   3.177110   2.808496   2.160346   3.469288
    14  H    3.000359   3.947827   3.518581   2.139562   2.702825
    15  H    3.705207   4.176512   3.053798   2.099974   1.101409
    16  H    2.886428   3.924084   3.482551   2.138653   1.093048
    17  H    2.817069   3.270800   2.718204   2.147642   1.091318
    18  C    3.571225   2.713119   1.523308   2.600900   3.804356
    19  H    4.324651   3.653142   2.171727   2.914022   3.874493
    20  H    4.167315   2.993380   2.154764   3.522307   4.640503
    21  H    3.664932   2.965970   2.190118   2.885198   4.282617
    22  C    2.459902   1.517239   2.668306   3.403138   4.657597
    23  H    3.408688   2.159945   2.979131   4.067499   5.322021
    24  H    2.749617   2.144462   3.604418   4.158594   5.283891
    25  H    2.699691   2.178363   2.887670   3.322515   4.724720
    26  C    2.424172   1.517073   2.639045   3.464400   3.997886
    27  H    2.696988   2.147714   3.581362   4.191146   4.690756
    28  H    3.384773   2.161889   2.970317   4.137419   4.750560
    29  H    2.646331   2.163198   2.798019   3.400623   3.513785
                    6          7          8          9         10
     6  Fe   0.000000
     7  Cl   2.205167   0.000000
     8  C    3.571887   3.909356   0.000000
     9  Cl   2.189655   3.759278   5.605420   0.000000
    10  Cl   2.206761   3.636334   3.625884   3.668828   0.000000
    11  H    4.830669   5.625980   3.462739   5.903599   5.825535
    12  H    4.670618   4.825839   1.100750   6.697598   4.576722
    13  H    3.452821   4.288455   1.089921   5.390792   2.967818
    14  H    3.326416   3.145734   1.092490   5.488700   3.441210
    15  H    5.036939   4.621357   2.853267   6.721278   6.058307
    16  H    3.700459   2.894096   2.746214   5.405664   5.027582
    17  H    4.293202   4.163565   3.472029   5.528073   5.830028
    18  C    5.173099   6.294266   3.031846   6.491763   5.302301
    19  H    5.934304   6.764316   3.221105   7.409418   6.044586
    20  H    5.803484   7.119356   4.088934   6.824708   5.966396
    21  H    4.956880   6.205543   2.810996   6.372353   4.648085
    22  C    3.414284   5.351760   3.830643   4.005370   3.620174
    23  H    4.502218   6.415265   4.555744   4.904630   4.602459
    24  H    3.180974   5.310033   4.564362   3.230111   3.476859
    25  H    3.368558   5.224793   3.306665   4.380304   2.963364
    26  C    3.899756   5.319499   4.663464   3.990512   5.266389
    27  H    3.668251   5.241036   5.261138   3.193694   5.145855
    28  H    4.890229   6.389889   5.315801   4.874911   6.027727
    29  H    4.198275   5.186961   4.779629   4.401020   5.830792
                   11         12         13         14         15
    11  H    0.000000
    12  H    3.722915   0.000000
    13  H    3.834056   1.774318   0.000000
    14  H    4.276953   1.775086   1.779846   0.000000
    15  H    2.937450   2.789924   3.874171   3.077892   0.000000
    16  H    3.635514   3.240907   3.689677   2.455325   1.778579
    17  H    2.366987   3.886862   4.275669   3.700851   1.777462
    18  C    2.151411   3.051846   2.909746   4.109673   3.953027
    19  H    2.499761   2.864487   3.325365   4.282882   3.709536
    20  H    2.473293   4.144294   3.873162   5.153371   4.818765
    21  H    3.080798   2.885542   2.329913   3.866391   4.498395
    22  C    3.461579   4.604000   3.257321   4.512040   5.423956
    23  H    3.614152   5.162080   3.970377   5.369031   5.975748
    24  H    4.313429   5.453003   3.974174   5.064563   6.165965
    25  H    3.879954   4.045962   2.501720   3.978619   5.409327
    26  C    2.604664   5.406035   4.671402   5.229451   4.842702
    27  H    3.665206   6.125778   5.178532   5.685083   5.641518
    28  H    2.791360   5.933331   5.246166   6.019938   5.454653
    29  H    2.421671   5.458287   5.028876   5.259842   4.327334
                   16         17         18         19         20
    16  H    0.000000
    17  H    1.788338   0.000000
    18  C    4.688584   4.095792   0.000000
    19  H    4.803729   4.253977   1.096006   0.000000
    20  H    5.574870   4.730843   1.094426   1.765639   0.000000
    21  H    4.998109   4.745468   1.092496   1.771610   1.766829
    22  C    5.142871   4.739122   3.004594   4.084701   3.086479
    23  H    5.951767   5.320940   2.930944   4.014929   2.627737
    24  H    5.617833   5.290546   4.094734   5.170790   4.136423
    25  H    5.125505   5.046932   2.931628   3.928836   3.249707
    26  C    4.589641   3.486513   3.761487   4.626458   3.720580
    27  H    5.087544   4.188145   4.682556   5.609655   4.643737
    28  H    5.476918   4.214370   3.747854   4.607156   3.390960
    29  H    4.115293   2.766434   4.123421   4.800360   4.191681
                   21         22         23         24         25
    21  H    0.000000
    22  C    2.796566   0.000000
    23  H    2.815386   1.094923   0.000000
    24  H    3.857010   1.095367   1.772021   0.000000
    25  H    2.352345   1.091687   1.780820   1.765623   0.000000
    26  C    4.253271   2.522072   2.799570   2.732515   3.479671
    27  H    5.015182   2.760119   3.150929   2.515425   3.745733
    28  H    4.325543   2.786419   2.617423   3.089370   3.807045
    29  H    4.774623   3.472234   3.800756   3.734341   4.317452
                   26         27         28         29
    26  C    0.000000
    27  H    1.094957   0.000000
    28  H    1.095959   1.780084   0.000000
    29  H    1.094013   1.773258   1.781418   0.000000
 Framework group  C1[X(C8H16Cl3FeO)]
 Deg. of freedom    81
                         Standard orientation:                         
 ---------------------------------------------------------------------
 Center     Atomic      Atomic             Coordinates (Angstroms)
 Number     Number       Type             X           Y           Z
 ---------------------------------------------------------------------
      1          8           0       -0.440628   -0.150201   -0.505196
      2          6           0       -1.476241   -1.173896   -0.325626
      3          6           0       -2.744291   -0.121045   -0.247813
      4          6           0       -1.881210    1.142051   -0.265794
      5          6           0       -1.807754    1.938281   -1.520972
      6         26           0        1.373602    0.030770    0.032400
      7         17           0        1.887183    1.980983   -0.859600
      8          6           0       -1.546650    1.843641    1.003997
      9         17           0        2.383071   -1.744073   -0.758482
     10         17           0        1.404841    0.135770    2.236440
     11          1           0       -3.294483   -0.185093   -1.191425
     12          1           0       -2.415360    2.464308    1.271889
     13          1           0       -1.351311    1.158095    1.828495
     14          1           0       -0.686293    2.503922    0.872277
     15          1           0       -2.638448    2.661256   -1.502119
     16          1           0       -0.869142    2.495694   -1.576216
     17          1           0       -1.919741    1.310347   -2.406485
     18          6           0       -3.714199   -0.274426    0.916756
     19          1           0       -4.477573    0.511778    0.897468
     20          1           0       -4.231831   -1.235794    0.841943
     21          1           0       -3.214985   -0.238933    1.887876
     22          6           0       -1.236550   -1.973911    0.941078
     23          1           0       -2.054399   -2.682526    1.107947
     24          1           0       -0.308534   -2.546409    0.836866
     25          1           0       -1.134282   -1.334178    1.819750
     26          6           0       -1.513285   -2.048506   -1.564656
     27          1           0       -0.562307   -2.581804   -1.665475
     28          1           0       -2.322484   -2.784232   -1.493724
     29          1           0       -1.662978   -1.443549   -2.463813
 ---------------------------------------------------------------------
 Rotational constants (GHZ):           0.5735876           0.3653977           0.3260822
   427 basis functions,  1056 primitive gaussians,   461 cartesian basis functions
    77 alpha electrons       72 beta electrons
       nuclear repulsion energy      1664.3206075929 Hartrees.
 NAtoms=   29 NActive=   29 NUniq=   29 SFac= 1.00D+00 NAtFMM=   60 NAOKFM=F Big=F
 Nuclear repulsion after empirical dispersion term =     1664.2836686712 Hartrees.
 Initial guess from the checkpoint file:  "checkpoint.chk"
 B after Tr=     0.000000    0.000000    0.000000
         Rot=    1.000000    0.000000    0.000000    0.000000 Ang=   0.00 deg.
 Initial guess <Sx>= 0.0000 <Sy>= 0.0000 <Sz>= 2.5000 <S**2>= 8.7627 S= 2.5021
 SCF Done:  E(UPBE1PBE) =  -3033.16577638     A.U. after    1 cycles
            NFock=  1  Conv=0.24D-08     -V/T= 2.0022
 <Sx>= 0.0000 <Sy>= 0.0000 <Sz>= 2.5000 <S**2>= 8.7627 S= 2.5021
 <L.S>= 0.000000000000E+00
 Annihilation of the first spin contaminant:
 S**2 before annihilation     8.7627,   after     8.7501
 1\1\GINC-HOLY7C06104\SP\UPBE1PBE\Jul-CC-pVDZ\C8H16Cl3Fe1O1(6)\EKWAN\11
 -Feb-2020\0\\#t pop=none jul-cc-pvdz guess=read upbe1pbe empiricaldisp
 ersion=gd3bj\\theory_abbreviation pbe0_d3bj\\0,6\O,0,-0.440628,-0.1502
 01,-0.505196\C,0,-1.476241,-1.173896,-0.325626\C,0,-2.744291,-0.121045
 ,-0.247813\C,0,-1.88121,1.142051,-0.265794\C,0,-1.807754,1.938281,-1.5
 20972\Fe,0,1.373602,0.03077,0.0324\Cl,0,1.887183,1.980983,-0.8596\C,0,
 -1.54665,1.843641,1.003997\Cl,0,2.383071,-1.744073,-0.758482\Cl,0,1.40
 4841,0.13577,2.23644\H,0,-3.294483,-0.185093,-1.191425\H,0,-2.41536,2.
 464308,1.271889\H,0,-1.351311,1.158095,1.828495\H,0,-0.686293,2.503922
 ,0.872277\H,0,-2.638448,2.661256,-1.502119\H,0,-0.869142,2.495694,-1.5
 76216\H,0,-1.919741,1.310347,-2.406485\C,0,-3.714199,-0.274426,0.91675
 6\H,0,-4.477573,0.511778,0.897468\H,0,-4.231831,-1.235794,0.841943\H,0
 ,-3.214985,-0.238933,1.887876\C,0,-1.23655,-1.973911,0.941078\H,0,-2.0
 54399,-2.682526,1.107947\H,0,-0.308534,-2.546409,0.836866\H,0,-1.13428
 2,-1.334178,1.81975\C,0,-1.513285,-2.048506,-1.564656\H,0,-0.562307,-2
 .581804,-1.665475\H,0,-2.322484,-2.784232,-1.493724\H,0,-1.662978,-1.4
 43549,-2.463813\\Version=ES64L-G16RevA.03\HF=-3033.1657764\S2=8.762696
 \S2-1=0.\S2A=8.75005\RMSD=2.375e-09\PG=C01 [X(C8H16Cl3Fe1O1)]\\@


 One man practicing sportsmanship is far better than 50 preaching it.
 -- Knute K. Rockne
 Job cpu time:       0 days  0 hours  4 minutes 40.7 seconds.
 Elapsed time:       0 days  0 hours  1 minutes 11.2 seconds.
 File lengths (MBytes):  RWF=    170 Int=      0 D2E=      0 Chk=     13 Scr=      1
 Normal termination of Gaussian 16 at Tue Feb 11 13:55:55 2020.
 Initial command:
 /n/sw/g16_nehalem/g16/l1.exe "/scratch/Gau-377031.inp" -scrdir="/scratch/"
 Entering Link 1 = /n/sw/g16_nehalem/g16/l1.exe PID=    378689.
  
 Copyright (c) 1988,1990,1992,1993,1995,1998,2003,2009,2016,
            Gaussian, Inc.  All Rights Reserved.
  
 This is part of the Gaussian(R) 16 program.  It is based on
 the Gaussian(R) 09 system (copyright 2009, Gaussian, Inc.),
 the Gaussian(R) 03 system (copyright 2003, Gaussian, Inc.),
 the Gaussian(R) 98 system (copyright 1998, Gaussian, Inc.),
 the Gaussian(R) 94 system (copyright 1995, Gaussian, Inc.),
 the Gaussian 92(TM) system (copyright 1992, Gaussian, Inc.),
 the Gaussian 90(TM) system (copyright 1990, Gaussian, Inc.),
 the Gaussian 88(TM) system (copyright 1988, Gaussian, Inc.),
 the Gaussian 86(TM) system (copyright 1986, Carnegie Mellon
 University), and the Gaussian 82(TM) system (copyright 1983,
 Carnegie Mellon University). Gaussian is a federally registered
 trademark of Gaussian, Inc.
  
 This software contains proprietary and confidential information,
 including trade secrets, belonging to Gaussian, Inc.
  
 This software is provided under written license and may be
 used, copied, transmitted, or stored only in accord with that
 written license.
  
 The following legend is applicable only to US Government
 contracts under FAR:
  
                    RESTRICTED RIGHTS LEGEND
  
 Use, reproduction and disclosure by the US Government is
 subject to restrictions as set forth in subparagraphs (a)
 and (c) of the Commercial Computer Software - Restricted
 Rights clause in FAR 52.227-19.
  
 Gaussian, Inc.
 340 Quinnipiac St., Bldg. 40, Wallingford CT 06492
  
  
 ---------------------------------------------------------------
 Warning -- This program may not be used in any manner that
 competes with the business of Gaussian, Inc. or will provide
 assistance to any competitor of Gaussian, Inc.  The licensee
 of this program is prohibited from giving any competitor of
 Gaussian, Inc. access to this program.  By using this program,
 the user acknowledges that Gaussian, Inc. is engaged in the
 business of creating and licensing software in the field of
 computational chemistry and represents and warrants to the
 licensee that it is not a competitor of Gaussian, Inc. and that
 it will not use this program in any manner prohibited above.
 ---------------------------------------------------------------
  

 Cite this work as:
 Gaussian 16, Revision A.03,
 M. J. Frisch, G. W. Trucks, H. B. Schlegel, G. E. Scuseria, 
 M. A. Robb, J. R. Cheeseman, G. Scalmani, V. Barone, 
 G. A. Petersson, H. Nakatsuji, X. Li, M. Caricato, A. V. Marenich, 
 J. Bloino, B. G. Janesko, R. Gomperts, B. Mennucci, H. P. Hratchian, 
 J. V. Ortiz, A. F. Izmaylov, J. L. Sonnenberg, D. Williams-Young, 
 F. Ding, F. Lipparini, F. Egidi, J. Goings, B. Peng, A. Petrone, 
 T. Henderson, D. Ranasinghe, V. G. Zakrzewski, J. Gao, N. Rega, 
 G. Zheng, W. Liang, M. Hada, M. Ehara, K. Toyota, R. Fukuda, 
 J. Hasegawa, M. Ishida, T. Nakajima, Y. Honda, O. Kitao, H. Nakai, 
 T. Vreven, K. Throssell, J. A. Montgomery, Jr., J. E. Peralta, 
 F. Ogliaro, M. J. Bearpark, J. J. Heyd, E. N. Brothers, K. N. Kudin, 
 V. N. Staroverov, T. A. Keith, R. Kobayashi, J. Normand, 
 K. Raghavachari, A. P. Rendell, J. C. Burant, S. S. Iyengar, 
 J. Tomasi, M. Cossi, J. M. Millam, M. Klene, C. Adamo, R. Cammi, 
 J. W. Ochterski, R. L. Martin, K. Morokuma, O. Farkas, 
 J. B. Foresman, and D. J. Fox, Gaussian, Inc., Wallingford CT, 2016.
 
 ******************************************
 Gaussian 16:  ES64L-G16RevA.03 25-Dec-2016
                11-Feb-2020 
 ******************************************
 %chk=checkpoint.chk
 %mem=3GB
 %nprocshared=4
 Will use up to    4 processors via shared memory.
 -----------------------------------------
 #t pop=none jul-cc-pvdz guess=read ub3lyp
 -----------------------------------------
 -------------------------
 theory_abbreviation b3lyp
 -------------------------
 Symbolic Z-matrix:
 Charge =  0 Multiplicity = 6
 O                    -0.44063  -0.1502   -0.5052 
 C                    -1.47624  -1.1739   -0.32563 
 C                    -2.74429  -0.12105  -0.24781 
 C                    -1.88121   1.14205  -0.26579 
 C                    -1.80775   1.93828  -1.52097 
 Fe                    1.3736    0.03077   0.0324 
 Cl                    1.88718   1.98098  -0.8596 
 C                    -1.54665   1.84364   1.004 
 Cl                    2.38307  -1.74407  -0.75848 
 Cl                    1.40484   0.13577   2.23644 
 H                    -3.29448  -0.18509  -1.19143 
 H                    -2.41536   2.46431   1.27189 
 H                    -1.35131   1.1581    1.8285 
 H                    -0.68629   2.50392   0.87228 
 H                    -2.63845   2.66126  -1.50212 
 H                    -0.86914   2.49569  -1.57622 
 H                    -1.91974   1.31035  -2.40648 
 C                    -3.7142   -0.27443   0.91676 
 H                    -4.47757   0.51178   0.89747 
 H                    -4.23183  -1.23579   0.84194 
 H                    -3.21498  -0.23893   1.88788 
 C                    -1.23655  -1.97391   0.94108 
 H                    -2.0544   -2.68253   1.10795 
 H                    -0.30853  -2.54641   0.83687 
 H                    -1.13428  -1.33418   1.81975 
 C                    -1.51329  -2.04851  -1.56466 
 H                    -0.56231  -2.5818   -1.66548 
 H                    -2.32248  -2.78423  -1.49372 
 H                    -1.66298  -1.44355  -2.46381 
 
                    Distance matrix (angstroms):
                    1          2          3          4          5
     1  O    0.000000
     2  C    1.467205   0.000000
     3  C    2.318180   1.650000   0.000000
     4  C    1.950001   2.351848   1.529916   0.000000
     5  C    2.694920   3.350283   2.595931   1.488237   0.000000
     6  Fe   1.900839   3.114644   4.130207   3.452197   4.021516
     7  Cl   3.175886   4.642307   5.122827   3.906046   3.753904
     8  C    2.734292   3.298240   2.619420   1.488801   2.540197
     9  Cl   3.252362   3.925144   5.402300   5.172673   5.630643
    10  Cl   3.317243   4.071860   4.842805   4.251107   5.261935
    11  H    2.935407   2.243511   1.094174   2.148359   2.612983
    12  H    3.727366   4.082956   3.016909   2.097176   2.906194
    13  H    2.826145   3.177110   2.808496   2.160346   3.469288
    14  H    3.000359   3.947827   3.518581   2.139562   2.702825
    15  H    3.705207   4.176512   3.053798   2.099974   1.101409
    16  H    2.886428   3.924084   3.482551   2.138653   1.093048
    17  H    2.817069   3.270800   2.718204   2.147642   1.091318
    18  C    3.571225   2.713119   1.523308   2.600900   3.804356
    19  H    4.324651   3.653142   2.171727   2.914022   3.874493
    20  H    4.167315   2.993380   2.154764   3.522307   4.640503
    21  H    3.664932   2.965970   2.190118   2.885198   4.282617
    22  C    2.459902   1.517239   2.668306   3.403138   4.657597
    23  H    3.408688   2.159945   2.979131   4.067499   5.322021
    24  H    2.749617   2.144462   3.604418   4.158594   5.283891
    25  H    2.699691   2.178363   2.887670   3.322515   4.724720
    26  C    2.424172   1.517073   2.639045   3.464400   3.997886
    27  H    2.696988   2.147714   3.581362   4.191146   4.690756
    28  H    3.384773   2.161889   2.970317   4.137419   4.750560
    29  H    2.646331   2.163198   2.798019   3.400623   3.513785
                    6          7          8          9         10
     6  Fe   0.000000
     7  Cl   2.205167   0.000000
     8  C    3.571887   3.909356   0.000000
     9  Cl   2.189655   3.759278   5.605420   0.000000
    10  Cl   2.206761   3.636334   3.625884   3.668828   0.000000
    11  H    4.830669   5.625980   3.462739   5.903599   5.825535
    12  H    4.670618   4.825839   1.100750   6.697598   4.576722
    13  H    3.452821   4.288455   1.089921   5.390792   2.967818
    14  H    3.326416   3.145734   1.092490   5.488700   3.441210
    15  H    5.036939   4.621357   2.853267   6.721278   6.058307
    16  H    3.700459   2.894096   2.746214   5.405664   5.027582
    17  H    4.293202   4.163565   3.472029   5.528073   5.830028
    18  C    5.173099   6.294266   3.031846   6.491763   5.302301
    19  H    5.934304   6.764316   3.221105   7.409418   6.044586
    20  H    5.803484   7.119356   4.088934   6.824708   5.966396
    21  H    4.956880   6.205543   2.810996   6.372353   4.648085
    22  C    3.414284   5.351760   3.830643   4.005370   3.620174
    23  H    4.502218   6.415265   4.555744   4.904630   4.602459
    24  H    3.180974   5.310033   4.564362   3.230111   3.476859
    25  H    3.368558   5.224793   3.306665   4.380304   2.963364
    26  C    3.899756   5.319499   4.663464   3.990512   5.266389
    27  H    3.668251   5.241036   5.261138   3.193694   5.145855
    28  H    4.890229   6.389889   5.315801   4.874911   6.027727
    29  H    4.198275   5.186961   4.779629   4.401020   5.830792
                   11         12         13         14         15
    11  H    0.000000
    12  H    3.722915   0.000000
    13  H    3.834056   1.774318   0.000000
    14  H    4.276953   1.775086   1.779846   0.000000
    15  H    2.937450   2.789924   3.874171   3.077892   0.000000
    16  H    3.635514   3.240907   3.689677   2.455325   1.778579
    17  H    2.366987   3.886862   4.275669   3.700851   1.777462
    18  C    2.151411   3.051846   2.909746   4.109673   3.953027
    19  H    2.499761   2.864487   3.325365   4.282882   3.709536
    20  H    2.473293   4.144294   3.873162   5.153371   4.818765
    21  H    3.080798   2.885542   2.329913   3.866391   4.498395
    22  C    3.461579   4.604000   3.257321   4.512040   5.423956
    23  H    3.614152   5.162080   3.970377   5.369031   5.975748
    24  H    4.313429   5.453003   3.974174   5.064563   6.165965
    25  H    3.879954   4.045962   2.501720   3.978619   5.409327
    26  C    2.604664   5.406035   4.671402   5.229451   4.842702
    27  H    3.665206   6.125778   5.178532   5.685083   5.641518
    28  H    2.791360   5.933331   5.246166   6.019938   5.454653
    29  H    2.421671   5.458287   5.028876   5.259842   4.327334
                   16         17         18         19         20
    16  H    0.000000
    17  H    1.788338   0.000000
    18  C    4.688584   4.095792   0.000000
    19  H    4.803729   4.253977   1.096006   0.000000
    20  H    5.574870   4.730843   1.094426   1.765639   0.000000
    21  H    4.998109   4.745468   1.092496   1.771610   1.766829
    22  C    5.142871   4.739122   3.004594   4.084701   3.086479
    23  H    5.951767   5.320940   2.930944   4.014929   2.627737
    24  H    5.617833   5.290546   4.094734   5.170790   4.136423
    25  H    5.125505   5.046932   2.931628   3.928836   3.249707
    26  C    4.589641   3.486513   3.761487   4.626458   3.720580
    27  H    5.087544   4.188145   4.682556   5.609655   4.643737
    28  H    5.476918   4.214370   3.747854   4.607156   3.390960
    29  H    4.115293   2.766434   4.123421   4.800360   4.191681
                   21         22         23         24         25
    21  H    0.000000
    22  C    2.796566   0.000000
    23  H    2.815386   1.094923   0.000000
    24  H    3.857010   1.095367   1.772021   0.000000
    25  H    2.352345   1.091687   1.780820   1.765623   0.000000
    26  C    4.253271   2.522072   2.799570   2.732515   3.479671
    27  H    5.015182   2.760119   3.150929   2.515425   3.745733
    28  H    4.325543   2.786419   2.617423   3.089370   3.807045
    29  H    4.774623   3.472234   3.800756   3.734341   4.317452
                   26         27         28         29
    26  C    0.000000
    27  H    1.094957   0.000000
    28  H    1.095959   1.780084   0.000000
    29  H    1.094013   1.773258   1.781418   0.000000
 Framework group  C1[X(C8H16Cl3FeO)]
 Deg. of freedom    81
                         Standard orientation:                         
 ---------------------------------------------------------------------
 Center     Atomic      Atomic             Coordinates (Angstroms)
 Number     Number       Type             X           Y           Z
 ---------------------------------------------------------------------
      1          8           0       -0.440628   -0.150201   -0.505196
      2          6           0       -1.476241   -1.173896   -0.325626
      3          6           0       -2.744291   -0.121045   -0.247813
      4          6           0       -1.881210    1.142051   -0.265794
      5          6           0       -1.807754    1.938281   -1.520972
      6         26           0        1.373602    0.030770    0.032400
      7         17           0        1.887183    1.980983   -0.859600
      8          6           0       -1.546650    1.843641    1.003997
      9         17           0        2.383071   -1.744073   -0.758482
     10         17           0        1.404841    0.135770    2.236440
     11          1           0       -3.294483   -0.185093   -1.191425
     12          1           0       -2.415360    2.464308    1.271889
     13          1           0       -1.351311    1.158095    1.828495
     14          1           0       -0.686293    2.503922    0.872277
     15          1           0       -2.638448    2.661256   -1.502119
     16          1           0       -0.869142    2.495694   -1.576216
     17          1           0       -1.919741    1.310347   -2.406485
     18          6           0       -3.714199   -0.274426    0.916756
     19          1           0       -4.477573    0.511778    0.897468
     20          1           0       -4.231831   -1.235794    0.841943
     21          1           0       -3.214985   -0.238933    1.887876
     22          6           0       -1.236550   -1.973911    0.941078
     23          1           0       -2.054399   -2.682526    1.107947
     24          1           0       -0.308534   -2.546409    0.836866
     25          1           0       -1.134282   -1.334178    1.819750
     26          6           0       -1.513285   -2.048506   -1.564656
     27          1           0       -0.562307   -2.581804   -1.665475
     28          1           0       -2.322484   -2.784232   -1.493724
     29          1           0       -1.662978   -1.443549   -2.463813
 ---------------------------------------------------------------------
 Rotational constants (GHZ):           0.5735876           0.3653977           0.3260822
   427 basis functions,  1056 primitive gaussians,   461 cartesian basis functions
    77 alpha electrons       72 beta electrons
       nuclear repulsion energy      1664.3206075929 Hartrees.
 NAtoms=   29 NActive=   29 NUniq=   29 SFac= 1.00D+00 NAtFMM=   60 NAOKFM=F Big=F
 Initial guess from the checkpoint file:  "checkpoint.chk"
 B after Tr=     0.000000    0.000000    0.000000
         Rot=    1.000000    0.000000    0.000000    0.000000 Ang=   0.00 deg.
 Initial guess <Sx>= 0.0000 <Sy>= 0.0000 <Sz>= 2.5000 <S**2>= 8.7627 S= 2.5021
 SCF Done:  E(UB3LYP) =  -3034.34074321     A.U. after   13 cycles
            NFock= 13  Conv=0.90D-08     -V/T= 2.0025
 <Sx>= 0.0000 <Sy>= 0.0000 <Sz>= 2.5000 <S**2>= 8.7620 S= 2.5020
 <L.S>= 0.000000000000E+00
 Annihilation of the first spin contaminant:
 S**2 before annihilation     8.7620,   after     8.7500
 1\1\GINC-HOLY7C06104\SP\UB3LYP\Jul-CC-pVDZ\C8H16Cl3Fe1O1(6)\EKWAN\11-F
 eb-2020\0\\#t pop=none jul-cc-pvdz guess=read ub3lyp\\theory_abbreviat
 ion b3lyp\\0,6\O,0,-0.440628,-0.150201,-0.505196\C,0,-1.476241,-1.1738
 96,-0.325626\C,0,-2.744291,-0.121045,-0.247813\C,0,-1.88121,1.142051,-
 0.265794\C,0,-1.807754,1.938281,-1.520972\Fe,0,1.373602,0.03077,0.0324
 \Cl,0,1.887183,1.980983,-0.8596\C,0,-1.54665,1.843641,1.003997\Cl,0,2.
 383071,-1.744073,-0.758482\Cl,0,1.404841,0.13577,2.23644\H,0,-3.294483
 ,-0.185093,-1.191425\H,0,-2.41536,2.464308,1.271889\H,0,-1.351311,1.15
 8095,1.828495\H,0,-0.686293,2.503922,0.872277\H,0,-2.638448,2.661256,-
 1.502119\H,0,-0.869142,2.495694,-1.576216\H,0,-1.919741,1.310347,-2.40
 6485\C,0,-3.714199,-0.274426,0.916756\H,0,-4.477573,0.511778,0.897468\
 H,0,-4.231831,-1.235794,0.841943\H,0,-3.214985,-0.238933,1.887876\C,0,
 -1.23655,-1.973911,0.941078\H,0,-2.054399,-2.682526,1.107947\H,0,-0.30
 8534,-2.546409,0.836866\H,0,-1.134282,-1.334178,1.81975\C,0,-1.513285,
 -2.048506,-1.564656\H,0,-0.562307,-2.581804,-1.665475\H,0,-2.322484,-2
 .784232,-1.493724\H,0,-1.662978,-1.443549,-2.463813\\Version=ES64L-G16
 RevA.03\HF=-3034.3407432\S2=8.761978\S2-1=0.\S2A=8.750045\RMSD=8.976e-
 09\PG=C01 [X(C8H16Cl3Fe1O1)]\\@


 IT IS BY LOGIC THAT WE PROVE, BUT BY INTUITION THAT WE DISCOVER.
     -- J.H.POINCARE (1854-1912)
 Job cpu time:       0 days  0 hours 54 minutes 59.7 seconds.
 Elapsed time:       0 days  0 hours 13 minutes 48.2 seconds.
 File lengths (MBytes):  RWF=    174 Int=      0 D2E=      0 Chk=     13 Scr=      1
 Normal termination of Gaussian 16 at Tue Feb 11 14:09:44 2020.
 Initial command:
 /n/sw/g16_nehalem/g16/l1.exe "/scratch/Gau-377031.inp" -scrdir="/scratch/"
 Entering Link 1 = /n/sw/g16_nehalem/g16/l1.exe PID=    380889.
  
 Copyright (c) 1988,1990,1992,1993,1995,1998,2003,2009,2016,
            Gaussian, Inc.  All Rights Reserved.
  
 This is part of the Gaussian(R) 16 program.  It is based on
 the Gaussian(R) 09 system (copyright 2009, Gaussian, Inc.),
 the Gaussian(R) 03 system (copyright 2003, Gaussian, Inc.),
 the Gaussian(R) 98 system (copyright 1998, Gaussian, Inc.),
 the Gaussian(R) 94 system (copyright 1995, Gaussian, Inc.),
 the Gaussian 92(TM) system (copyright 1992, Gaussian, Inc.),
 the Gaussian 90(TM) system (copyright 1990, Gaussian, Inc.),
 the Gaussian 88(TM) system (copyright 1988, Gaussian, Inc.),
 the Gaussian 86(TM) system (copyright 1986, Carnegie Mellon
 University), and the Gaussian 82(TM) system (copyright 1983,
 Carnegie Mellon University). Gaussian is a federally registered
 trademark of Gaussian, Inc.
  
 This software contains proprietary and confidential information,
 including trade secrets, belonging to Gaussian, Inc.
  
 This software is provided under written license and may be
 used, copied, transmitted, or stored only in accord with that
 written license.
  
 The following legend is applicable only to US Government
 contracts under FAR:
  
                    RESTRICTED RIGHTS LEGEND
  
 Use, reproduction and disclosure by the US Government is
 subject to restrictions as set forth in subparagraphs (a)
 and (c) of the Commercial Computer Software - Restricted
 Rights clause in FAR 52.227-19.
  
 Gaussian, Inc.
 340 Quinnipiac St., Bldg. 40, Wallingford CT 06492
  
  
 ---------------------------------------------------------------
 Warning -- This program may not be used in any manner that
 competes with the business of Gaussian, Inc. or will provide
 assistance to any competitor of Gaussian, Inc.  The licensee
 of this program is prohibited from giving any competitor of
 Gaussian, Inc. access to this program.  By using this program,
 the user acknowledges that Gaussian, Inc. is engaged in the
 business of creating and licensing software in the field of
 computational chemistry and represents and warrants to the
 licensee that it is not a competitor of Gaussian, Inc. and that
 it will not use this program in any manner prohibited above.
 ---------------------------------------------------------------
  

 Cite this work as:
 Gaussian 16, Revision A.03,
 M. J. Frisch, G. W. Trucks, H. B. Schlegel, G. E. Scuseria, 
 M. A. Robb, J. R. Cheeseman, G. Scalmani, V. Barone, 
 G. A. Petersson, H. Nakatsuji, X. Li, M. Caricato, A. V. Marenich, 
 J. Bloino, B. G. Janesko, R. Gomperts, B. Mennucci, H. P. Hratchian, 
 J. V. Ortiz, A. F. Izmaylov, J. L. Sonnenberg, D. Williams-Young, 
 F. Ding, F. Lipparini, F. Egidi, J. Goings, B. Peng, A. Petrone, 
 T. Henderson, D. Ranasinghe, V. G. Zakrzewski, J. Gao, N. Rega, 
 G. Zheng, W. Liang, M. Hada, M. Ehara, K. Toyota, R. Fukuda, 
 J. Hasegawa, M. Ishida, T. Nakajima, Y. Honda, O. Kitao, H. Nakai, 
 T. Vreven, K. Throssell, J. A. Montgomery, Jr., J. E. Peralta, 
 F. Ogliaro, M. J. Bearpark, J. J. Heyd, E. N. Brothers, K. N. Kudin, 
 V. N. Staroverov, T. A. Keith, R. Kobayashi, J. Normand, 
 K. Raghavachari, A. P. Rendell, J. C. Burant, S. S. Iyengar, 
 J. Tomasi, M. Cossi, J. M. Millam, M. Klene, C. Adamo, R. Cammi, 
 J. W. Ochterski, R. L. Martin, K. Morokuma, O. Farkas, 
 J. B. Foresman, and D. J. Fox, Gaussian, Inc., Wallingford CT, 2016.
 
 ******************************************
 Gaussian 16:  ES64L-G16RevA.03 25-Dec-2016
                11-Feb-2020 
 ******************************************
 %chk=checkpoint.chk
 %mem=3GB
 %nprocshared=4
 Will use up to    4 processors via shared memory.
 -------------------------------------------------------------------
 #t pop=none jul-cc-pvdz guess=read ub3lyp empiricaldispersion=gd3bj
 -------------------------------------------------------------------
 ------------------------------
 theory_abbreviation b3lyp_d3bj
 ------------------------------
 Symbolic Z-matrix:
 Charge =  0 Multiplicity = 6
 O                    -0.44063  -0.1502   -0.5052 
 C                    -1.47624  -1.1739   -0.32563 
 C                    -2.74429  -0.12105  -0.24781 
 C                    -1.88121   1.14205  -0.26579 
 C                    -1.80775   1.93828  -1.52097 
 Fe                    1.3736    0.03077   0.0324 
 Cl                    1.88718   1.98098  -0.8596 
 C                    -1.54665   1.84364   1.004 
 Cl                    2.38307  -1.74407  -0.75848 
 Cl                    1.40484   0.13577   2.23644 
 H                    -3.29448  -0.18509  -1.19143 
 H                    -2.41536   2.46431   1.27189 
 H                    -1.35131   1.1581    1.8285 
 H                    -0.68629   2.50392   0.87228 
 H                    -2.63845   2.66126  -1.50212 
 H                    -0.86914   2.49569  -1.57622 
 H                    -1.91974   1.31035  -2.40648 
 C                    -3.7142   -0.27443   0.91676 
 H                    -4.47757   0.51178   0.89747 
 H                    -4.23183  -1.23579   0.84194 
 H                    -3.21498  -0.23893   1.88788 
 C                    -1.23655  -1.97391   0.94108 
 H                    -2.0544   -2.68253   1.10795 
 H                    -0.30853  -2.54641   0.83687 
 H                    -1.13428  -1.33418   1.81975 
 C                    -1.51329  -2.04851  -1.56466 
 H                    -0.56231  -2.5818   -1.66548 
 H                    -2.32248  -2.78423  -1.49372 
 H                    -1.66298  -1.44355  -2.46381 
 
                    Distance matrix (angstroms):
                    1          2          3          4          5
     1  O    0.000000
     2  C    1.467205   0.000000
     3  C    2.318180   1.650000   0.000000
     4  C    1.950001   2.351848   1.529916   0.000000
     5  C    2.694920   3.350283   2.595931   1.488237   0.000000
     6  Fe   1.900839   3.114644   4.130207   3.452197   4.021516
     7  Cl   3.175886   4.642307   5.122827   3.906046   3.753904
     8  C    2.734292   3.298240   2.619420   1.488801   2.540197
     9  Cl   3.252362   3.925144   5.402300   5.172673   5.630643
    10  Cl   3.317243   4.071860   4.842805   4.251107   5.261935
    11  H    2.935407   2.243511   1.094174   2.148359   2.612983
    12  H    3.727366   4.082956   3.016909   2.097176   2.906194
    13  H    2.826145   3.177110   2.808496   2.160346   3.469288
    14  H    3.000359   3.947827   3.518581   2.139562   2.702825
    15  H    3.705207   4.176512   3.053798   2.099974   1.101409
    16  H    2.886428   3.924084   3.482551   2.138653   1.093048
    17  H    2.817069   3.270800   2.718204   2.147642   1.091318
    18  C    3.571225   2.713119   1.523308   2.600900   3.804356
    19  H    4.324651   3.653142   2.171727   2.914022   3.874493
    20  H    4.167315   2.993380   2.154764   3.522307   4.640503
    21  H    3.664932   2.965970   2.190118   2.885198   4.282617
    22  C    2.459902   1.517239   2.668306   3.403138   4.657597
    23  H    3.408688   2.159945   2.979131   4.067499   5.322021
    24  H    2.749617   2.144462   3.604418   4.158594   5.283891
    25  H    2.699691   2.178363   2.887670   3.322515   4.724720
    26  C    2.424172   1.517073   2.639045   3.464400   3.997886
    27  H    2.696988   2.147714   3.581362   4.191146   4.690756
    28  H    3.384773   2.161889   2.970317   4.137419   4.750560
    29  H    2.646331   2.163198   2.798019   3.400623   3.513785
                    6          7          8          9         10
     6  Fe   0.000000
     7  Cl   2.205167   0.000000
     8  C    3.571887   3.909356   0.000000
     9  Cl   2.189655   3.759278   5.605420   0.000000
    10  Cl   2.206761   3.636334   3.625884   3.668828   0.000000
    11  H    4.830669   5.625980   3.462739   5.903599   5.825535
    12  H    4.670618   4.825839   1.100750   6.697598   4.576722
    13  H    3.452821   4.288455   1.089921   5.390792   2.967818
    14  H    3.326416   3.145734   1.092490   5.488700   3.441210
    15  H    5.036939   4.621357   2.853267   6.721278   6.058307
    16  H    3.700459   2.894096   2.746214   5.405664   5.027582
    17  H    4.293202   4.163565   3.472029   5.528073   5.830028
    18  C    5.173099   6.294266   3.031846   6.491763   5.302301
    19  H    5.934304   6.764316   3.221105   7.409418   6.044586
    20  H    5.803484   7.119356   4.088934   6.824708   5.966396
    21  H    4.956880   6.205543   2.810996   6.372353   4.648085
    22  C    3.414284   5.351760   3.830643   4.005370   3.620174
    23  H    4.502218   6.415265   4.555744   4.904630   4.602459
    24  H    3.180974   5.310033   4.564362   3.230111   3.476859
    25  H    3.368558   5.224793   3.306665   4.380304   2.963364
    26  C    3.899756   5.319499   4.663464   3.990512   5.266389
    27  H    3.668251   5.241036   5.261138   3.193694   5.145855
    28  H    4.890229   6.389889   5.315801   4.874911   6.027727
    29  H    4.198275   5.186961   4.779629   4.401020   5.830792
                   11         12         13         14         15
    11  H    0.000000
    12  H    3.722915   0.000000
    13  H    3.834056   1.774318   0.000000
    14  H    4.276953   1.775086   1.779846   0.000000
    15  H    2.937450   2.789924   3.874171   3.077892   0.000000
    16  H    3.635514   3.240907   3.689677   2.455325   1.778579
    17  H    2.366987   3.886862   4.275669   3.700851   1.777462
    18  C    2.151411   3.051846   2.909746   4.109673   3.953027
    19  H    2.499761   2.864487   3.325365   4.282882   3.709536
    20  H    2.473293   4.144294   3.873162   5.153371   4.818765
    21  H    3.080798   2.885542   2.329913   3.866391   4.498395
    22  C    3.461579   4.604000   3.257321   4.512040   5.423956
    23  H    3.614152   5.162080   3.970377   5.369031   5.975748
    24  H    4.313429   5.453003   3.974174   5.064563   6.165965
    25  H    3.879954   4.045962   2.501720   3.978619   5.409327
    26  C    2.604664   5.406035   4.671402   5.229451   4.842702
    27  H    3.665206   6.125778   5.178532   5.685083   5.641518
    28  H    2.791360   5.933331   5.246166   6.019938   5.454653
    29  H    2.421671   5.458287   5.028876   5.259842   4.327334
                   16         17         18         19         20
    16  H    0.000000
    17  H    1.788338   0.000000
    18  C    4.688584   4.095792   0.000000
    19  H    4.803729   4.253977   1.096006   0.000000
    20  H    5.574870   4.730843   1.094426   1.765639   0.000000
    21  H    4.998109   4.745468   1.092496   1.771610   1.766829
    22  C    5.142871   4.739122   3.004594   4.084701   3.086479
    23  H    5.951767   5.320940   2.930944   4.014929   2.627737
    24  H    5.617833   5.290546   4.094734   5.170790   4.136423
    25  H    5.125505   5.046932   2.931628   3.928836   3.249707
    26  C    4.589641   3.486513   3.761487   4.626458   3.720580
    27  H    5.087544   4.188145   4.682556   5.609655   4.643737
    28  H    5.476918   4.214370   3.747854   4.607156   3.390960
    29  H    4.115293   2.766434   4.123421   4.800360   4.191681
                   21         22         23         24         25
    21  H    0.000000
    22  C    2.796566   0.000000
    23  H    2.815386   1.094923   0.000000
    24  H    3.857010   1.095367   1.772021   0.000000
    25  H    2.352345   1.091687   1.780820   1.765623   0.000000
    26  C    4.253271   2.522072   2.799570   2.732515   3.479671
    27  H    5.015182   2.760119   3.150929   2.515425   3.745733
    28  H    4.325543   2.786419   2.617423   3.089370   3.807045
    29  H    4.774623   3.472234   3.800756   3.734341   4.317452
                   26         27         28         29
    26  C    0.000000
    27  H    1.094957   0.000000
    28  H    1.095959   1.780084   0.000000
    29  H    1.094013   1.773258   1.781418   0.000000
 Framework group  C1[X(C8H16Cl3FeO)]
 Deg. of freedom    81
                         Standard orientation:                         
 ---------------------------------------------------------------------
 Center     Atomic      Atomic             Coordinates (Angstroms)
 Number     Number       Type             X           Y           Z
 ---------------------------------------------------------------------
      1          8           0       -0.440628   -0.150201   -0.505196
      2          6           0       -1.476241   -1.173896   -0.325626
      3          6           0       -2.744291   -0.121045   -0.247813
      4          6           0       -1.881210    1.142051   -0.265794
      5          6           0       -1.807754    1.938281   -1.520972
      6         26           0        1.373602    0.030770    0.032400
      7         17           0        1.887183    1.980983   -0.859600
      8          6           0       -1.546650    1.843641    1.003997
      9         17           0        2.383071   -1.744073   -0.758482
     10         17           0        1.404841    0.135770    2.236440
     11          1           0       -3.294483   -0.185093   -1.191425
     12          1           0       -2.415360    2.464308    1.271889
     13          1           0       -1.351311    1.158095    1.828495
     14          1           0       -0.686293    2.503922    0.872277
     15          1           0       -2.638448    2.661256   -1.502119
     16          1           0       -0.869142    2.495694   -1.576216
     17          1           0       -1.919741    1.310347   -2.406485
     18          6           0       -3.714199   -0.274426    0.916756
     19          1           0       -4.477573    0.511778    0.897468
     20          1           0       -4.231831   -1.235794    0.841943
     21          1           0       -3.214985   -0.238933    1.887876
     22          6           0       -1.236550   -1.973911    0.941078
     23          1           0       -2.054399   -2.682526    1.107947
     24          1           0       -0.308534   -2.546409    0.836866
     25          1           0       -1.134282   -1.334178    1.819750
     26          6           0       -1.513285   -2.048506   -1.564656
     27          1           0       -0.562307   -2.581804   -1.665475
     28          1           0       -2.322484   -2.784232   -1.493724
     29          1           0       -1.662978   -1.443549   -2.463813
 ---------------------------------------------------------------------
 Rotational constants (GHZ):           0.5735876           0.3653977           0.3260822
   427 basis functions,  1056 primitive gaussians,   461 cartesian basis functions
    77 alpha electrons       72 beta electrons
       nuclear repulsion energy      1664.3206075929 Hartrees.
 NAtoms=   29 NActive=   29 NUniq=   29 SFac= 1.00D+00 NAtFMM=   60 NAOKFM=F Big=F
 Nuclear repulsion after empirical dispersion term =     1664.2518471763 Hartrees.
 Initial guess from the checkpoint file:  "checkpoint.chk"
 B after Tr=     0.000000    0.000000    0.000000
         Rot=    1.000000    0.000000    0.000000    0.000000 Ang=   0.00 deg.
 Initial guess <Sx>= 0.0000 <Sy>= 0.0000 <Sz>= 2.5000 <S**2>= 8.7620 S= 2.5020
 SCF Done:  E(UB3LYP) =  -3034.40950362     A.U. after    1 cycles
            NFock=  1  Conv=0.68D-08     -V/T= 2.0025
 <Sx>= 0.0000 <Sy>= 0.0000 <Sz>= 2.5000 <S**2>= 8.7620 S= 2.5020
 <L.S>= 0.000000000000E+00
 Annihilation of the first spin contaminant:
 S**2 before annihilation     8.7620,   after     8.7500
 1\1\GINC-HOLY7C06104\SP\UB3LYP\Jul-CC-pVDZ\C8H16Cl3Fe1O1(6)\EKWAN\11-F
 eb-2020\0\\#t pop=none jul-cc-pvdz guess=read ub3lyp empiricaldispersi
 on=gd3bj\\theory_abbreviation b3lyp_d3bj\\0,6\O,0,-0.440628,-0.150201,
 -0.505196\C,0,-1.476241,-1.173896,-0.325626\C,0,-2.744291,-0.121045,-0
 .247813\C,0,-1.88121,1.142051,-0.265794\C,0,-1.807754,1.938281,-1.5209
 72\Fe,0,1.373602,0.03077,0.0324\Cl,0,1.887183,1.980983,-0.8596\C,0,-1.
 54665,1.843641,1.003997\Cl,0,2.383071,-1.744073,-0.758482\Cl,0,1.40484
 1,0.13577,2.23644\H,0,-3.294483,-0.185093,-1.191425\H,0,-2.41536,2.464
 308,1.271889\H,0,-1.351311,1.158095,1.828495\H,0,-0.686293,2.503922,0.
 872277\H,0,-2.638448,2.661256,-1.502119\H,0,-0.869142,2.495694,-1.5762
 16\H,0,-1.919741,1.310347,-2.406485\C,0,-3.714199,-0.274426,0.916756\H
 ,0,-4.477573,0.511778,0.897468\H,0,-4.231831,-1.235794,0.841943\H,0,-3
 .214985,-0.238933,1.887876\C,0,-1.23655,-1.973911,0.941078\H,0,-2.0543
 99,-2.682526,1.107947\H,0,-0.308534,-2.546409,0.836866\H,0,-1.134282,-
 1.334178,1.81975\C,0,-1.513285,-2.048506,-1.564656\H,0,-0.562307,-2.58
 1804,-1.665475\H,0,-2.322484,-2.784232,-1.493724\H,0,-1.662978,-1.4435
 49,-2.463813\\Version=ES64L-G16RevA.03\HF=-3034.4095036\S2=8.761978\S2
 -1=0.\S2A=8.750045\RMSD=6.832e-09\PG=C01 [X(C8H16Cl3Fe1O1)]\\@


 THERE IS AN OLD, OLD RECIPE IN MAINE FOR STEWING COOT. PLACE THE
 BIRD IN A KETTLE OF WATER WITH A RED BUILDING BRICK FREE OF MORTAR AND
 BLEMISHES. PARBOIL THE COOT AND BRICK TOGETHER FOR THREE HOURS.
 POUR OFF THE WATER, REFILL THE KETTLE, AND AGAIN PARBOIL FOR THREE HOURS.
 ONCE AGAIN POUR OFF THE WATER, FOR THE LAST TIME ADD FRESH WATER,
 AND LET THE COOT AND BRICK SIMMER TOGETHER OVERNIGHT. IN THE MORNING,
 THROW AWAY THE COOT AND EAT THE BRICK.
 Job cpu time:       0 days  0 hours  4 minutes 43.4 seconds.
 Elapsed time:       0 days  0 hours  1 minutes 12.3 seconds.
 File lengths (MBytes):  RWF=    170 Int=      0 D2E=      0 Chk=     13 Scr=      1
 Normal termination of Gaussian 16 at Tue Feb 11 14:10:57 2020.
 Initial command:
 /n/sw/g16_nehalem/g16/l1.exe "/scratch/Gau-377031.inp" -scrdir="/scratch/"
 Entering Link 1 = /n/sw/g16_nehalem/g16/l1.exe PID=    381039.
  
 Copyright (c) 1988,1990,1992,1993,1995,1998,2003,2009,2016,
            Gaussian, Inc.  All Rights Reserved.
  
 This is part of the Gaussian(R) 16 program.  It is based on
 the Gaussian(R) 09 system (copyright 2009, Gaussian, Inc.),
 the Gaussian(R) 03 system (copyright 2003, Gaussian, Inc.),
 the Gaussian(R) 98 system (copyright 1998, Gaussian, Inc.),
 the Gaussian(R) 94 system (copyright 1995, Gaussian, Inc.),
 the Gaussian 92(TM) system (copyright 1992, Gaussian, Inc.),
 the Gaussian 90(TM) system (copyright 1990, Gaussian, Inc.),
 the Gaussian 88(TM) system (copyright 1988, Gaussian, Inc.),
 the Gaussian 86(TM) system (copyright 1986, Carnegie Mellon
 University), and the Gaussian 82(TM) system (copyright 1983,
 Carnegie Mellon University). Gaussian is a federally registered
 trademark of Gaussian, Inc.
  
 This software contains proprietary and confidential information,
 including trade secrets, belonging to Gaussian, Inc.
  
 This software is provided under written license and may be
 used, copied, transmitted, or stored only in accord with that
 written license.
  
 The following legend is applicable only to US Government
 contracts under FAR:
  
                    RESTRICTED RIGHTS LEGEND
  
 Use, reproduction and disclosure by the US Government is
 subject to restrictions as set forth in subparagraphs (a)
 and (c) of the Commercial Computer Software - Restricted
 Rights clause in FAR 52.227-19.
  
 Gaussian, Inc.
 340 Quinnipiac St., Bldg. 40, Wallingford CT 06492
  
  
 ---------------------------------------------------------------
 Warning -- This program may not be used in any manner that
 competes with the business of Gaussian, Inc. or will provide
 assistance to any competitor of Gaussian, Inc.  The licensee
 of this program is prohibited from giving any competitor of
 Gaussian, Inc. access to this program.  By using this program,
 the user acknowledges that Gaussian, Inc. is engaged in the
 business of creating and licensing software in the field of
 computational chemistry and represents and warrants to the
 licensee that it is not a competitor of Gaussian, Inc. and that
 it will not use this program in any manner prohibited above.
 ---------------------------------------------------------------
  

 Cite this work as:
 Gaussian 16, Revision A.03,
 M. J. Frisch, G. W. Trucks, H. B. Schlegel, G. E. Scuseria, 
 M. A. Robb, J. R. Cheeseman, G. Scalmani, V. Barone, 
 G. A. Petersson, H. Nakatsuji, X. Li, M. Caricato, A. V. Marenich, 
 J. Bloino, B. G. Janesko, R. Gomperts, B. Mennucci, H. P. Hratchian, 
 J. V. Ortiz, A. F. Izmaylov, J. L. Sonnenberg, D. Williams-Young, 
 F. Ding, F. Lipparini, F. Egidi, J. Goings, B. Peng, A. Petrone, 
 T. Henderson, D. Ranasinghe, V. G. Zakrzewski, J. Gao, N. Rega, 
 G. Zheng, W. Liang, M. Hada, M. Ehara, K. Toyota, R. Fukuda, 
 J. Hasegawa, M. Ishida, T. Nakajima, Y. Honda, O. Kitao, H. Nakai, 
 T. Vreven, K. Throssell, J. A. Montgomery, Jr., J. E. Peralta, 
 F. Ogliaro, M. J. Bearpark, J. J. Heyd, E. N. Brothers, K. N. Kudin, 
 V. N. Staroverov, T. A. Keith, R. Kobayashi, J. Normand, 
 K. Raghavachari, A. P. Rendell, J. C. Burant, S. S. Iyengar, 
 J. Tomasi, M. Cossi, J. M. Millam, M. Klene, C. Adamo, R. Cammi, 
 J. W. Ochterski, R. L. Martin, K. Morokuma, O. Farkas, 
 J. B. Foresman, and D. J. Fox, Gaussian, Inc., Wallingford CT, 2016.
 
 ******************************************
 Gaussian 16:  ES64L-G16RevA.03 25-Dec-2016
                11-Feb-2020 
 ******************************************
 %chk=checkpoint.chk
 %mem=3GB
 %nprocshared=4
 Will use up to    4 processors via shared memory.
 ----------------------------------------
 #t pop=none jul-cc-pvdz guess=read ub97d
 ----------------------------------------
 ------------------------
 theory_abbreviation b97d
 ------------------------
 Symbolic Z-matrix:
 Charge =  0 Multiplicity = 6
 O                    -0.44063  -0.1502   -0.5052 
 C                    -1.47624  -1.1739   -0.32563 
 C                    -2.74429  -0.12105  -0.24781 
 C                    -1.88121   1.14205  -0.26579 
 C                    -1.80775   1.93828  -1.52097 
 Fe                    1.3736    0.03077   0.0324 
 Cl                    1.88718   1.98098  -0.8596 
 C                    -1.54665   1.84364   1.004 
 Cl                    2.38307  -1.74407  -0.75848 
 Cl                    1.40484   0.13577   2.23644 
 H                    -3.29448  -0.18509  -1.19143 
 H                    -2.41536   2.46431   1.27189 
 H                    -1.35131   1.1581    1.8285 
 H                    -0.68629   2.50392   0.87228 
 H                    -2.63845   2.66126  -1.50212 
 H                    -0.86914   2.49569  -1.57622 
 H                    -1.91974   1.31035  -2.40648 
 C                    -3.7142   -0.27443   0.91676 
 H                    -4.47757   0.51178   0.89747 
 H                    -4.23183  -1.23579   0.84194 
 H                    -3.21498  -0.23893   1.88788 
 C                    -1.23655  -1.97391   0.94108 
 H                    -2.0544   -2.68253   1.10795 
 H                    -0.30853  -2.54641   0.83687 
 H                    -1.13428  -1.33418   1.81975 
 C                    -1.51329  -2.04851  -1.56466 
 H                    -0.56231  -2.5818   -1.66548 
 H                    -2.32248  -2.78423  -1.49372 
 H                    -1.66298  -1.44355  -2.46381 
 
                    Distance matrix (angstroms):
                    1          2          3          4          5
     1  O    0.000000
     2  C    1.467205   0.000000
     3  C    2.318180   1.650000   0.000000
     4  C    1.950001   2.351848   1.529916   0.000000
     5  C    2.694920   3.350283   2.595931   1.488237   0.000000
     6  Fe   1.900839   3.114644   4.130207   3.452197   4.021516
     7  Cl   3.175886   4.642307   5.122827   3.906046   3.753904
     8  C    2.734292   3.298240   2.619420   1.488801   2.540197
     9  Cl   3.252362   3.925144   5.402300   5.172673   5.630643
    10  Cl   3.317243   4.071860   4.842805   4.251107   5.261935
    11  H    2.935407   2.243511   1.094174   2.148359   2.612983
    12  H    3.727366   4.082956   3.016909   2.097176   2.906194
    13  H    2.826145   3.177110   2.808496   2.160346   3.469288
    14  H    3.000359   3.947827   3.518581   2.139562   2.702825
    15  H    3.705207   4.176512   3.053798   2.099974   1.101409
    16  H    2.886428   3.924084   3.482551   2.138653   1.093048
    17  H    2.817069   3.270800   2.718204   2.147642   1.091318
    18  C    3.571225   2.713119   1.523308   2.600900   3.804356
    19  H    4.324651   3.653142   2.171727   2.914022   3.874493
    20  H    4.167315   2.993380   2.154764   3.522307   4.640503
    21  H    3.664932   2.965970   2.190118   2.885198   4.282617
    22  C    2.459902   1.517239   2.668306   3.403138   4.657597
    23  H    3.408688   2.159945   2.979131   4.067499   5.322021
    24  H    2.749617   2.144462   3.604418   4.158594   5.283891
    25  H    2.699691   2.178363   2.887670   3.322515   4.724720
    26  C    2.424172   1.517073   2.639045   3.464400   3.997886
    27  H    2.696988   2.147714   3.581362   4.191146   4.690756
    28  H    3.384773   2.161889   2.970317   4.137419   4.750560
    29  H    2.646331   2.163198   2.798019   3.400623   3.513785
                    6          7          8          9         10
     6  Fe   0.000000
     7  Cl   2.205167   0.000000
     8  C    3.571887   3.909356   0.000000
     9  Cl   2.189655   3.759278   5.605420   0.000000
    10  Cl   2.206761   3.636334   3.625884   3.668828   0.000000
    11  H    4.830669   5.625980   3.462739   5.903599   5.825535
    12  H    4.670618   4.825839   1.100750   6.697598   4.576722
    13  H    3.452821   4.288455   1.089921   5.390792   2.967818
    14  H    3.326416   3.145734   1.092490   5.488700   3.441210
    15  H    5.036939   4.621357   2.853267   6.721278   6.058307
    16  H    3.700459   2.894096   2.746214   5.405664   5.027582
    17  H    4.293202   4.163565   3.472029   5.528073   5.830028
    18  C    5.173099   6.294266   3.031846   6.491763   5.302301
    19  H    5.934304   6.764316   3.221105   7.409418   6.044586
    20  H    5.803484   7.119356   4.088934   6.824708   5.966396
    21  H    4.956880   6.205543   2.810996   6.372353   4.648085
    22  C    3.414284   5.351760   3.830643   4.005370   3.620174
    23  H    4.502218   6.415265   4.555744   4.904630   4.602459
    24  H    3.180974   5.310033   4.564362   3.230111   3.476859
    25  H    3.368558   5.224793   3.306665   4.380304   2.963364
    26  C    3.899756   5.319499   4.663464   3.990512   5.266389
    27  H    3.668251   5.241036   5.261138   3.193694   5.145855
    28  H    4.890229   6.389889   5.315801   4.874911   6.027727
    29  H    4.198275   5.186961   4.779629   4.401020   5.830792
                   11         12         13         14         15
    11  H    0.000000
    12  H    3.722915   0.000000
    13  H    3.834056   1.774318   0.000000
    14  H    4.276953   1.775086   1.779846   0.000000
    15  H    2.937450   2.789924   3.874171   3.077892   0.000000
    16  H    3.635514   3.240907   3.689677   2.455325   1.778579
    17  H    2.366987   3.886862   4.275669   3.700851   1.777462
    18  C    2.151411   3.051846   2.909746   4.109673   3.953027
    19  H    2.499761   2.864487   3.325365   4.282882   3.709536
    20  H    2.473293   4.144294   3.873162   5.153371   4.818765
    21  H    3.080798   2.885542   2.329913   3.866391   4.498395
    22  C    3.461579   4.604000   3.257321   4.512040   5.423956
    23  H    3.614152   5.162080   3.970377   5.369031   5.975748
    24  H    4.313429   5.453003   3.974174   5.064563   6.165965
    25  H    3.879954   4.045962   2.501720   3.978619   5.409327
    26  C    2.604664   5.406035   4.671402   5.229451   4.842702
    27  H    3.665206   6.125778   5.178532   5.685083   5.641518
    28  H    2.791360   5.933331   5.246166   6.019938   5.454653
    29  H    2.421671   5.458287   5.028876   5.259842   4.327334
                   16         17         18         19         20
    16  H    0.000000
    17  H    1.788338   0.000000
    18  C    4.688584   4.095792   0.000000
    19  H    4.803729   4.253977   1.096006   0.000000
    20  H    5.574870   4.730843   1.094426   1.765639   0.000000
    21  H    4.998109   4.745468   1.092496   1.771610   1.766829
    22  C    5.142871   4.739122   3.004594   4.084701   3.086479
    23  H    5.951767   5.320940   2.930944   4.014929   2.627737
[...]
     29          1           0       -1.662978   -1.443549   -2.463813
 ---------------------------------------------------------------------
 Rotational constants (GHZ):           0.5735876           0.3653977           0.3260822
   427 basis functions,  1056 primitive gaussians,   461 cartesian basis functions
    77 alpha electrons       72 beta electrons
       nuclear repulsion energy      1664.3206075929 Hartrees.
 NAtoms=   29 NActive=   29 NUniq=   29 SFac= 1.00D+00 NAtFMM=   60 NAOKFM=F Big=F
 Nuclear repulsion after empirical dispersion term =     1664.3181990524 Hartrees.
 Initial guess from the checkpoint file:  "checkpoint.chk"
 B after Tr=     0.000000    0.000000    0.000000
         Rot=    1.000000    0.000000    0.000000    0.000000 Ang=   0.00 deg.
 Initial guess <Sx>= 0.0000 <Sy>= 0.0000 <Sz>= 2.5000 <S**2>= 8.7617 S= 2.5020
 SCF Done:  E(UM06L) =  -3034.20433233     A.U. after   18 cycles
            NFock= 18  Conv=0.38D-08     -V/T= 2.0021
 <Sx>= 0.0000 <Sy>= 0.0000 <Sz>= 2.5000 <S**2>= 8.7619 S= 2.5020
 <L.S>= 0.000000000000E+00
 Annihilation of the first spin contaminant:
 S**2 before annihilation     8.7619,   after     8.7500
 1\1\GINC-HOLY7C06104\SP\UM06L\Jul-CC-pVDZ\C8H16Cl3Fe1O1(6)\EKWAN\11-Fe
 b-2020\0\\#t pop=none jul-cc-pvdz guess=read um06l empiricaldispersion
 =gd3\\theory_abbreviation m06l_d3\\0,6\O,0,-0.440628,-0.150201,-0.5051
 96\C,0,-1.476241,-1.173896,-0.325626\C,0,-2.744291,-0.121045,-0.247813
 \C,0,-1.88121,1.142051,-0.265794\C,0,-1.807754,1.938281,-1.520972\Fe,0
 ,1.373602,0.03077,0.0324\Cl,0,1.887183,1.980983,-0.8596\C,0,-1.54665,1
 .843641,1.003997\Cl,0,2.383071,-1.744073,-0.758482\Cl,0,1.404841,0.135
 77,2.23644\H,0,-3.294483,-0.185093,-1.191425\H,0,-2.41536,2.464308,1.2
 71889\H,0,-1.351311,1.158095,1.828495\H,0,-0.686293,2.503922,0.872277\
 H,0,-2.638448,2.661256,-1.502119\H,0,-0.869142,2.495694,-1.576216\H,0,
 -1.919741,1.310347,-2.406485\C,0,-3.714199,-0.274426,0.916756\H,0,-4.4
 77573,0.511778,0.897468\H,0,-4.231831,-1.235794,0.841943\H,0,-3.214985
 ,-0.238933,1.887876\C,0,-1.23655,-1.973911,0.941078\H,0,-2.054399,-2.6
 82526,1.107947\H,0,-0.308534,-2.546409,0.836866\H,0,-1.134282,-1.33417
 8,1.81975\C,0,-1.513285,-2.048506,-1.564656\H,0,-0.562307,-2.581804,-1
 .665475\H,0,-2.322484,-2.784232,-1.493724\H,0,-1.662978,-1.443549,-2.4
 63813\\Version=ES64L-G16RevA.03\HF=-3034.2043323\S2=8.761883\S2-1=0.\S
 2A=8.750045\RMSD=3.816e-09\PG=C01 [X(C8H16Cl3Fe1O1)]\\@


 ROSE IS A RED
 TY COBB IS BLUE
 'CAUSE PETE JUST HIT
 NO. 4592.
 Job cpu time:       0 days  1 hours 24 minutes 13.4 seconds.
 Elapsed time:       0 days  0 hours 21 minutes 27.7 seconds.
 File lengths (MBytes):  RWF=    174 Int=      0 D2E=      0 Chk=     13 Scr=      1
 Normal termination of Gaussian 16 at Tue Feb 11 23:05:15 2020.
 Initial command:
 /n/sw/g16_nehalem/g16/l1.exe "/scratch/Gau-377031.inp" -scrdir="/scratch/"
 Entering Link 1 = /n/sw/g16_nehalem/g16/l1.exe PID=    433036.
  
 Copyright (c) 1988,1990,1992,1993,1995,1998,2003,2009,2016,
            Gaussian, Inc.  All Rights Reserved.
  
 This is part of the Gaussian(R) 16 program.  It is based on
 the Gaussian(R) 09 system (copyright 2009, Gaussian, Inc.),
 the Gaussian(R) 03 system (copyright 2003, Gaussian, Inc.),
 the Gaussian(R) 98 system (copyright 1998, Gaussian, Inc.),
 the Gaussian(R) 94 system (copyright 1995, Gaussian, Inc.),
 the Gaussian 92(TM) system (copyright 1992, Gaussian, Inc.),
 the Gaussian 90(TM) system (copyright 1990, Gaussian, Inc.),
 the Gaussian 88(TM) system (copyright 1988, Gaussian, Inc.),
 the Gaussian 86(TM) system (copyright 1986, Carnegie Mellon
 University), and the Gaussian 82(TM) system (copyright 1983,
 Carnegie Mellon University). Gaussian is a federally registered
 trademark of Gaussian, Inc.
  
 This software contains proprietary and confidential information,
 including trade secrets, belonging to Gaussian, Inc.
  
 This software is provided under written license and may be
 used, copied, transmitted, or stored only in accord with that
 written license.
  
 The following legend is applicable only to US Government
 contracts under FAR:
  
                    RESTRICTED RIGHTS LEGEND
  
 Use, reproduction and disclosure by the US Government is
 subject to restrictions as set forth in subparagraphs (a)
 and (c) of the Commercial Computer Software - Restricted
 Rights clause in FAR 52.227-19.
  
 Gaussian, Inc.
 340 Quinnipiac St., Bldg. 40, Wallingford CT 06492
  
  
 ---------------------------------------------------------------
 Warning -- This program may not be used in any manner that
 competes with the business of Gaussian, Inc. or will provide
 assistance to any competitor of Gaussian, Inc.  The licensee
 of this program is prohibited from giving any competitor of
 Gaussian, Inc. access to this program.  By using this program,
 the user acknowledges that Gaussian, Inc. is engaged in the
 business of creating and licensing software in the field of
 computational chemistry and represents and warrants to the
 licensee that it is not a competitor of Gaussian, Inc. and that
 it will not use this program in any manner prohibited above.
 ---------------------------------------------------------------
  

 Cite this work as:
 Gaussian 16, Revision A.03,
 M. J. Frisch, G. W. Trucks, H. B. Schlegel, G. E. Scuseria, 
 M. A. Robb, J. R. Cheeseman, G. Scalmani, V. Barone, 
 G. A. Petersson, H. Nakatsuji, X. Li, M. Caricato, A. V. Marenich, 
 J. Bloino, B. G. Janesko, R. Gomperts, B. Mennucci, H. P. Hratchian, 
 J. V. Ortiz, A. F. Izmaylov, J. L. Sonnenberg, D. Williams-Young, 
 F. Ding, F. Lipparini, F. Egidi, J. Goings, B. Peng, A. Petrone, 
 T. Henderson, D. Ranasinghe, V. G. Zakrzewski, J. Gao, N. Rega, 
 G. Zheng, W. Liang, M. Hada, M. Ehara, K. Toyota, R. Fukuda, 
 J. Hasegawa, M. Ishida, T. Nakajima, Y. Honda, O. Kitao, H. Nakai, 
 T. Vreven, K. Throssell, J. A. Montgomery, Jr., J. E. Peralta, 
 F. Ogliaro, M. J. Bearpark, J. J. Heyd, E. N. Brothers, K. N. Kudin, 
 V. N. Staroverov, T. A. Keith, R. Kobayashi, J. Normand, 
 K. Raghavachari, A. P. Rendell, J. C. Burant, S. S. Iyengar, 
 J. Tomasi, M. Cossi, J. M. Millam, M. Klene, C. Adamo, R. Cammi, 
 J. W. Ochterski, R. L. Martin, K. Morokuma, O. Farkas, 
 J. B. Foresman, and D. J. Fox, Gaussian, Inc., Wallingford CT, 2016.
 
 ******************************************
 Gaussian 16:  ES64L-G16RevA.03 25-Dec-2016
                11-Feb-2020 
 ******************************************
 %chk=checkpoint.chk
 %mem=3GB
 %nprocshared=4
 Will use up to    4 processors via shared memory.
 -------------------------------------------------------------------
 #t pop=none jul-cc-pvdz guess=read ub97d3 empiricaldispersion=gd3bj
 -------------------------------------------------------------------
 ------------------------------
 theory_abbreviation b97d3_d3bj
 ------------------------------
 Symbolic Z-matrix:
 Charge =  0 Multiplicity = 6
 O                    -0.44063  -0.1502   -0.5052 
 C                    -1.47624  -1.1739   -0.32563 
 C                    -2.74429  -0.12105  -0.24781 
 C                    -1.88121   1.14205  -0.26579 
 C                    -1.80775   1.93828  -1.52097 
 Fe                    1.3736    0.03077   0.0324 
 Cl                    1.88718   1.98098  -0.8596 
 C                    -1.54665   1.84364   1.004 
 Cl                    2.38307  -1.74407  -0.75848 
 Cl                    1.40484   0.13577   2.23644 
 H                    -3.29448  -0.18509  -1.19143 
 H                    -2.41536   2.46431   1.27189 
 H                    -1.35131   1.1581    1.8285 
 H                    -0.68629   2.50392   0.87228 
 H                    -2.63845   2.66126  -1.50212 
 H                    -0.86914   2.49569  -1.57622 
 H                    -1.91974   1.31035  -2.40648 
 C                    -3.7142   -0.27443   0.91676 
 H                    -4.47757   0.51178   0.89747 
 H                    -4.23183  -1.23579   0.84194 
 H                    -3.21498  -0.23893   1.88788 
 C                    -1.23655  -1.97391   0.94108 
 H                    -2.0544   -2.68253   1.10795 
 H                    -0.30853  -2.54641   0.83687 
 H                    -1.13428  -1.33418   1.81975 
 C                    -1.51329  -2.04851  -1.56466 
 H                    -0.56231  -2.5818   -1.66548 
 H                    -2.32248  -2.78423  -1.49372 
 H                    -1.66298  -1.44355  -2.46381 
 
                    Distance matrix (angstroms):
                    1          2          3          4          5
     1  O    0.000000
     2  C    1.467205   0.000000
     3  C    2.318180   1.650000   0.000000
     4  C    1.950001   2.351848   1.529916   0.000000
     5  C    2.694920   3.350283   2.595931   1.488237   0.000000
     6  Fe   1.900839   3.114644   4.130207   3.452197   4.021516
     7  Cl   3.175886   4.642307   5.122827   3.906046   3.753904
     8  C    2.734292   3.298240   2.619420   1.488801   2.540197
     9  Cl   3.252362   3.925144   5.402300   5.172673   5.630643
    10  Cl   3.317243   4.071860   4.842805   4.251107   5.261935
    11  H    2.935407   2.243511   1.094174   2.148359   2.612983
    12  H    3.727366   4.082956   3.016909   2.097176   2.906194
    13  H    2.826145   3.177110   2.808496   2.160346   3.469288
    14  H    3.000359   3.947827   3.518581   2.139562   2.702825
    15  H    3.705207   4.176512   3.053798   2.099974   1.101409
    16  H    2.886428   3.924084   3.482551   2.138653   1.093048
    17  H    2.817069   3.270800   2.718204   2.147642   1.091318
    18  C    3.571225   2.713119   1.523308   2.600900   3.804356
    19  H    4.324651   3.653142   2.171727   2.914022   3.874493
    20  H    4.167315   2.993380   2.154764   3.522307   4.640503
    21  H    3.664932   2.965970   2.190118   2.885198   4.282617
    22  C    2.459902   1.517239   2.668306   3.403138   4.657597
    23  H    3.408688   2.159945   2.979131   4.067499   5.322021
    24  H    2.749617   2.144462   3.604418   4.158594   5.283891
    25  H    2.699691   2.178363   2.887670   3.322515   4.724720
    26  C    2.424172   1.517073   2.639045   3.464400   3.997886
    27  H    2.696988   2.147714   3.581362   4.191146   4.690756
    28  H    3.384773   2.161889   2.970317   4.137419   4.750560
    29  H    2.646331   2.163198   2.798019   3.400623   3.513785
                    6          7          8          9         10
     6  Fe   0.000000
     7  Cl   2.205167   0.000000
     8  C    3.571887   3.909356   0.000000
     9  Cl   2.189655   3.759278   5.605420   0.000000
    10  Cl   2.206761   3.636334   3.625884   3.668828   0.000000
    11  H    4.830669   5.625980   3.462739   5.903599   5.825535
    12  H    4.670618   4.825839   1.100750   6.697598   4.576722
    13  H    3.452821   4.288455   1.089921   5.390792   2.967818
    14  H    3.326416   3.145734   1.092490   5.488700   3.441210
    15  H    5.036939   4.621357   2.853267   6.721278   6.058307
    16  H    3.700459   2.894096   2.746214   5.405664   5.027582
    17  H    4.293202   4.163565   3.472029   5.528073   5.830028
    18  C    5.173099   6.294266   3.031846   6.491763   5.302301
    19  H    5.934304   6.764316   3.221105   7.409418   6.044586
    20  H    5.803484   7.119356   4.088934   6.824708   5.966396
    21  H    4.956880   6.205543   2.810996   6.372353   4.648085
    22  C    3.414284   5.351760   3.830643   4.005370   3.620174
    23  H    4.502218   6.415265   4.555744   4.904630   4.602459
    24  H    3.180974   5.310033   4.564362   3.230111   3.476859
    25  H    3.368558   5.224793   3.306665   4.380304   2.963364
    26  C    3.899756   5.319499   4.663464   3.990512   5.266389
    27  H    3.668251   5.241036   5.261138   3.193694   5.145855
    28  H    4.890229   6.389889   5.315801   4.874911   6.027727
    29  H    4.198275   5.186961   4.779629   4.401020   5.830792
                   11         12         13         14         15
    11  H    0.000000
    12  H    3.722915   0.000000
    13  H    3.834056   1.774318   0.000000
    14  H    4.276953   1.775086   1.779846   0.000000
    15  H    2.937450   2.789924   3.874171   3.077892   0.000000
    16  H    3.635514   3.240907   3.689677   2.455325   1.778579
    17  H    2.366987   3.886862   4.275669   3.700851   1.777462
    18  C    2.151411   3.051846   2.909746   4.109673   3.953027
    19  H    2.499761   2.864487   3.325365   4.282882   3.709536
    20  H    2.473293   4.144294   3.873162   5.153371   4.818765
    21  H    3.080798   2.885542   2.329913   3.866391   4.498395
    22  C    3.461579   4.604000   3.257321   4.512040   5.423956
    23  H    3.614152   5.162080   3.970377   5.369031   5.975748
    24  H    4.313429   5.453003   3.974174   5.064563   6.165965
    25  H    3.879954   4.045962   2.501720   3.978619   5.409327
    26  C    2.604664   5.406035   4.671402   5.229451   4.842702
    27  H    3.665206   6.125778   5.178532   5.685083   5.641518
    28  H    2.791360   5.933331   5.246166   6.019938   5.454653
    29  H    2.421671   5.458287   5.028876   5.259842   4.327334
                   16         17         18         19         20
    16  H    0.000000
    17  H    1.788338   0.000000
    18  C    4.688584   4.095792   0.000000
    19  H    4.803729   4.253977   1.096006   0.000000
    20  H    5.574870   4.730843   1.094426   1.765639   0.000000
    21  H    4.998109   4.745468   1.092496   1.771610   1.766829
    22  C    5.142871   4.739122   3.004594   4.084701   3.086479
    23  H    5.951767   5.320940   2.930944   4.014929   2.627737
    24  H    5.617833   5.290546   4.094734   5.170790   4.136423
    25  H    5.125505   5.046932   2.931628   3.928836   3.249707
    26  C    4.589641   3.486513   3.761487   4.626458   3.720580
    27  H    5.087544   4.188145   4.682556   5.609655   4.643737
    28  H    5.476918   4.214370   3.747854   4.607156   3.390960
    29  H    4.115293   2.766434   4.123421   4.800360   4.191681
                   21         22         23         24         25
    21  H    0.000000
    22  C    2.796566   0.000000
    23  H    2.815386   1.094923   0.000000
    24  H    3.857010   1.095367   1.772021   0.000000
    25  H    2.352345   1.091687   1.780820   1.765623   0.000000
    26  C    4.253271   2.522072   2.799570   2.732515   3.479671
    27  H    5.015182   2.760119   3.150929   2.515425   3.745733
    28  H    4.325543   2.786419   2.617423   3.089370   3.807045
    29  H    4.774623   3.472234   3.800756   3.734341   4.317452
                   26         27         28         29
    26  C    0.000000
    27  H    1.094957   0.000000
    28  H    1.095959   1.780084   0.000000
    29  H    1.094013   1.773258   1.781418   0.000000
 Framework group  C1[X(C8H16Cl3FeO)]
 Deg. of freedom    81
                         Standard orientation:                         
 ---------------------------------------------------------------------
 Center     Atomic      Atomic             Coordinates (Angstroms)
 Number     Number       Type             X           Y           Z
 ---------------------------------------------------------------------
      1          8           0       -0.440628   -0.150201   -0.505196
      2          6           0       -1.476241   -1.173896   -0.325626
      3          6           0       -2.744291   -0.121045   -0.247813
      4          6           0       -1.881210    1.142051   -0.265794
      5          6           0       -1.807754    1.938281   -1.520972
      6         26           0        1.373602    0.030770    0.032400
      7         17           0        1.887183    1.980983   -0.859600
      8          6           0       -1.546650    1.843641    1.003997
      9         17           0        2.383071   -1.744073   -0.758482
     10         17           0        1.404841    0.135770    2.236440
     11          1           0       -3.294483   -0.185093   -1.191425
     12          1           0       -2.415360    2.464308    1.271889
     13          1           0       -1.351311    1.158095    1.828495
     14          1           0       -0.686293    2.503922    0.872277
     15          1           0       -2.638448    2.661256   -1.502119
     16          1           0       -0.869142    2.495694   -1.576216
     17          1           0       -1.919741    1.310347   -2.406485
     18          6           0       -3.714199   -0.274426    0.916756
     19          1           0       -4.477573    0.511778    0.897468
     20          1           0       -4.231831   -1.235794    0.841943
     21          1           0       -3.214985   -0.238933    1.887876
     22          6           0       -1.236550   -1.973911    0.941078
     23          1           0       -2.054399   -2.682526    1.107947
     24          1           0       -0.308534   -2.546409    0.836866
     25          1           0       -1.134282   -1.334178    1.819750
     26          6           0       -1.513285   -2.048506   -1.564656
     27          1           0       -0.562307   -2.581804   -1.665475
     28          1           0       -2.322484   -2.784232   -1.493724
     29          1           0       -1.662978   -1.443549   -2.463813
 ---------------------------------------------------------------------
 Rotational constants (GHZ):           0.5735876           0.3653977           0.3260822
   427 basis functions,  1056 primitive gaussians,   461 cartesian basis functions
    77 alpha electrons       72 beta electrons
       nuclear repulsion energy      1664.3206075929 Hartrees.
 NAtoms=   29 NActive=   29 NUniq=   29 SFac= 1.00D+00 NAtFMM=   60 NAOKFM=F Big=F
 Nuclear repulsion after empirical dispersion term =     1664.2202245256 Hartrees.
 Initial guess from the checkpoint file:  "checkpoint.chk"
 B after Tr=     0.000000    0.000000    0.000000
         Rot=    1.000000    0.000000    0.000000    0.000000 Ang=   0.00 deg.
 Initial guess <Sx>= 0.0000 <Sy>= 0.0000 <Sz>= 2.5000 <S**2>= 8.7619 S= 2.5020
 SCF Done:  E(UB97D3) =  -3034.62632614     A.U. after   15 cycles
            NFock= 15  Conv=0.61D-08     -V/T= 2.0020
 <Sx>= 0.0000 <Sy>= 0.0000 <Sz>= 2.5000 <S**2>= 8.7601 S= 2.5017
 <L.S>= 0.000000000000E+00
 Annihilation of the first spin contaminant:
 S**2 before annihilation     8.7601,   after     8.7500
 1\1\GINC-HOLY7C06104\SP\UB97D3\Jul-CC-pVDZ\C8H16Cl3Fe1O1(6)\EKWAN\11-F
 eb-2020\0\\#t pop=none jul-cc-pvdz guess=read ub97d3 empiricaldispersi
 on=gd3bj\\theory_abbreviation b97d3_d3bj\\0,6\O,0,-0.440628,-0.150201,
 -0.505196\C,0,-1.476241,-1.173896,-0.325626\C,0,-2.744291,-0.121045,-0
 .247813\C,0,-1.88121,1.142051,-0.265794\C,0,-1.807754,1.938281,-1.5209
 72\Fe,0,1.373602,0.03077,0.0324\Cl,0,1.887183,1.980983,-0.8596\C,0,-1.
 54665,1.843641,1.003997\Cl,0,2.383071,-1.744073,-0.758482\Cl,0,1.40484
 1,0.13577,2.23644\H,0,-3.294483,-0.185093,-1.191425\H,0,-2.41536,2.464
 308,1.271889\H,0,-1.351311,1.158095,1.828495\H,0,-0.686293,2.503922,0.
 872277\H,0,-2.638448,2.661256,-1.502119\H,0,-0.869142,2.495694,-1.5762
 16\H,0,-1.919741,1.310347,-2.406485\C,0,-3.714199,-0.274426,0.916756\H
 ,0,-4.477573,0.511778,0.897468\H,0,-4.231831,-1.235794,0.841943\H,0,-3
 .214985,-0.238933,1.887876\C,0,-1.23655,-1.973911,0.941078\H,0,-2.0543
 99,-2.682526,1.107947\H,0,-0.308534,-2.546409,0.836866\H,0,-1.134282,-
 1.334178,1.81975\C,0,-1.513285,-2.048506,-1.564656\H,0,-0.562307,-2.58
 1804,-1.665475\H,0,-2.322484,-2.784232,-1.493724\H,0,-1.662978,-1.4435
 49,-2.463813\\Version=ES64L-G16RevA.03\HF=-3034.6263261\S2=8.760053\S2
 -1=0.\S2A=8.750032\RMSD=6.080e-09\PG=C01 [X(C8H16Cl3Fe1O1)]\\@


 K N O W I N G  IS A BARRIER WHICH PREVENTS LEARNING

                     -- TEACHING OF THE BENE GESSERIT
 Job cpu time:       0 days  0 hours 48 minutes 35.4 seconds.
 Elapsed time:       0 days  0 hours 12 minutes 11.1 seconds.
 File lengths (MBytes):  RWF=    174 Int=      0 D2E=      0 Chk=     13 Scr=      1
 Normal termination of Gaussian 16 at Tue Feb 11 23:17:27 2020.
