 Entering Gaussian System, Link 0=g16
 Input=simple-grid-200-285-b3lyp_d3bj-631gd-gas-singlepoint-DFT-juldz2-gas.gjf
 Output=simple-grid-200-285-b3lyp_d3bj-631gd-gas-singlepoint-DFT-juldz2-gas.out
 Initial command:
 /n/sw/g16_nehalem/g16/l1.exe "/scratch/Gau-98680.inp" -scrdir="/scratch/"
 Entering Link 1 = /n/sw/g16_nehalem/g16/l1.exe PID=     98691.
  
 Copyright (c) 1988,1990,1992,1993,1995,1998,2003,2009,2016,
            Gaussian, Inc.  All Rights Reserved.
  
 This is part of the Gaussian(R) 16 program.  It is based on
 the Gaussian(R) 09 system (copyright 2009, Gaussian, Inc.),
 the Gaussian(R) 03 system (copyright 2003, Gaussian, Inc.),
 the Gaussian(R) 98 system (copyright 1998, Gaussian, Inc.),
 the Gaussian(R) 94 system (copyright 1995, Gaussian, Inc.),
 the Gaussian 92(TM) system (copyright 1992, Gaussian, Inc.),
 the Gaussian 90(TM) system (copyright 1990, Gaussian, Inc.),
 the Gaussian 88(TM) system (copyright 1988, Gaussian, Inc.),
 the Gaussian 86(TM) system (copyright 1986, Carnegie Mellon
 University), and the Gaussian 82(TM) system (copyright 1983,
 Carnegie Mellon University). Gaussian is a federally registered
 trademark of Gaussian, Inc.
  
 This software contains proprietary and confidential information,
 including trade secrets, belonging to Gaussian, Inc.
  
 This software is provided under written license and may be
 used, copied, transmitted, or stored only in accord with that
 written license.
  
 The following legend is applicable only to US Government
 contracts under FAR:
  
                    RESTRICTED RIGHTS LEGEND
  
 Use, reproduction and disclosure by the US Government is
 subject to restrictions as set forth in subparagraphs (a)
 and (c) of the Commercial Computer Software - Restricted
 Rights clause in FAR 52.227-19.
  
 Gaussian, Inc.
 340 Quinnipiac St., Bldg. 40, Wallingford CT 06492
  
  
 ---------------------------------------------------------------
 Warning -- This program may not be used in any manner that
 competes with the business of Gaussian, Inc. or will provide
 assistance to any competitor of Gaussian, Inc.  The licensee
 of this program is prohibited from giving any competitor of
 Gaussian, Inc. access to this program.  By using this program,
 the user acknowledges that Gaussian, Inc. is engaged in the
 business of creating and licensing software in the field of
 computational chemistry and represents and warrants to the
 licensee that it is not a competitor of Gaussian, Inc. and that
 it will not use this program in any manner prohibited above.
 ---------------------------------------------------------------
  

 Cite this work as:
 Gaussian 16, Revision A.03,
 M. J. Frisch, G. W. Trucks, H. B. Schlegel, G. E. Scuseria, 
 M. A. Robb, J. R. Cheeseman, G. Scalmani, V. Barone, 
 G. A. Petersson, H. Nakatsuji, X. Li, M. Caricato, A. V. Marenich, 
 J. Bloino, B. G. Janesko, R. Gomperts, B. Mennucci, H. P. Hratchian, 
 J. V. Ortiz, A. F. Izmaylov, J. L. Sonnenberg, D. Williams-Young, 
 F. Ding, F. Lipparini, F. Egidi, J. Goings, B. Peng, A. Petrone, 
 T. Henderson, D. Ranasinghe, V. G. Zakrzewski, J. Gao, N. Rega, 
 G. Zheng, W. Liang, M. Hada, M. Ehara, K. Toyota, R. Fukuda, 
 J. Hasegawa, M. Ishida, T. Nakajima, Y. Honda, O. Kitao, H. Nakai, 
 T. Vreven, K. Throssell, J. A. Montgomery, Jr., J. E. Peralta, 
 F. Ogliaro, M. J. Bearpark, J. J. Heyd, E. N. Brothers, K. N. Kudin, 
 V. N. Staroverov, T. A. Keith, R. Kobayashi, J. Normand, 
 K. Raghavachari, A. P. Rendell, J. C. Burant, S. S. Iyengar, 
 J. Tomasi, M. Cossi, J. M. Millam, M. Klene, C. Adamo, R. Cammi, 
 J. W. Ochterski, R. L. Martin, K. Morokuma, O. Farkas, 
 J. B. Foresman, and D. J. Fox, Gaussian, Inc., Wallingford CT, 2016.
 
 ******************************************
 Gaussian 16:  ES64L-G16RevA.03 25-Dec-2016
                11-Feb-2020 
 ******************************************
 %chk=checkpoint.chk
 %mem=3GB
 %nprocshared=4
 Will use up to    4 processors via shared memory.
 --------------------------------
 #t pop=none jul-cc-pvdz upbe1pbe
 --------------------------------
 ------------------------
 theory_abbreviation pbe0
 ------------------------
 Symbolic Z-matrix:
 Charge =  0 Multiplicity = 6
 O                    -0.31669  -0.15823  -0.46363 
 C                    -1.17427  -1.11351  -0.25422 
 C                    -2.6378   -0.29062   0.83248 
 C                    -3.0063    0.69735  -0.06805 
 C                    -4.08021   0.48108  -1.08172 
 Fe                    1.51864   0.17563  -0.093 
 Cl                    1.83916   2.15008  -0.99107 
 C                    -2.2731    1.98307  -0.11731 
 Cl                    2.54426  -1.51605  -1.04975 
 Cl                    1.79608   0.18897   2.09556 
 H                    -3.30011  -1.15546   0.86709 
 H                    -2.73551   2.71133  -0.78671 
 H                    -2.12749   2.42326   0.8738 
 H                    -1.25908   1.74788  -0.49362 
 H                    -4.90693   1.16919  -0.85328 
 H                    -3.73665   0.74499  -2.08971 
 H                    -4.47305  -0.53735  -1.08106 
 C                    -1.97165   0.08342   2.14546 
 H                    -2.58227   0.82244   2.67679 
 H                    -1.87177  -0.78716   2.79535 
 H                    -0.97647   0.5098    2.00035 
 C                    -0.75249  -2.20135   0.72542 
 H                    -1.58035  -2.85693   1.00558 
 H                     0.00066  -2.79824   0.19463 
 H                    -0.27436  -1.7904    1.61368 
 C                    -1.8247   -1.654    -1.51612 
 H                    -1.07567  -2.29177  -2.00078 
 H                    -2.70853  -2.26254  -1.30779 
 H                    -2.0719   -0.85329  -2.21354 
 
                    Distance matrix (angstroms):
                    1          2          3          4          5
     1  O    0.000000
     2  C    1.300713   0.000000
     3  C    2.661761   2.000001   0.000000
     4  C    2.850003   2.582677   1.386656   0.000000
     5  C    3.867152   3.416428   2.517981   1.492513   0.000000
     6  Fe   1.901912   2.989928   4.283680   4.554988   5.693683
     7  Cl   3.202218   4.502750   5.415302   5.142069   6.150830
     8  C    2.921073   3.288617   2.490933   1.480906   2.540021
     9  Cl   3.220589   3.823914   5.647846   6.055701   6.919037
    10  Cl   3.336733   4.005113   4.635159   5.291743   6.686651
    11  H    3.415568   2.403813   1.089872   2.096120   2.661707
    12  H    3.766892   4.165387   3.412183   2.155441   2.620933
    13  H    3.425174   3.832730   2.761744   2.153637   3.377760
    14  H    2.126566   2.872647   2.795511   2.082671   3.147929
    15  H    4.794184   4.416148   3.181473   2.109886   1.099612
    16  H    3.893087   3.659082   3.289250   2.150073   1.097146
    17  H    4.219041   3.449287   2.662825   2.168415   1.091569
    18  C    3.099132   2.797665   1.519067   2.519326   3.875414
    19  H    3.994595   3.784339   2.154870   2.780213   4.060392
    20  H    3.665347   3.145303   2.164770   3.419061   4.638679
    21  H    2.636807   2.785206   2.182801   2.904078   4.374155
    22  C    2.403760   1.523474   2.686401   3.756553   4.640570
    23  H    3.322406   2.188951   2.781030   3.977298   4.663521
    24  H    2.739278   2.102433   3.695471   4.618435   5.388551
    25  H    2.642147   2.181067   2.906106   4.059626   5.187414
    26  C    2.370481   1.519073   2.834762   3.003656   3.136015
    27  H    2.736951   2.109144   3.804239   4.049398   4.190537
    28  H    3.295697   2.187285   2.911049   3.222814   3.075714
    29  H    2.574123   2.170809   3.148826   2.807266   2.663617
                    6          7          8          9         10
     6  Fe   0.000000
     7  Cl   2.192650   0.000000
     8  C    4.200565   4.207378   0.000000
     9  Cl   2.197506   3.733780   6.026623   0.000000
    10  Cl   2.206116   3.657202   4.967282   3.655107   0.000000
    11  H    5.090581   6.386824   3.445894   6.161246   5.411828
    12  H    5.000879   4.613494   1.091914   6.768737   5.933390
    13  H    4.390992   4.391659   1.094201   6.406510   4.677520
    14  H    3.216861   3.163587   1.106871   5.042605   4.297449
    15  H    6.546233   6.818418   2.853261   7.922704   7.388295
    16  H    5.650588   5.854138   2.750486   6.756004   6.959658
    17  H    6.114327   6.861077   3.481536   7.085295   7.065443
    18  C    4.147452   5.350812   2.969791   5.758565   3.769546
    19  H    4.990749   5.896172   3.041323   6.755507   4.461961
    20  H    4.556803   6.060971   4.039657   5.900627   3.859494
    21  H    3.274042   4.423444   2.887260   5.079630   2.792675
    22  C    3.387903   5.347702   4.531202   3.806492   3.753147
    23  H    4.472930   6.383562   5.016611   4.799453   4.676096
    24  H    3.351260   5.410349   5.303604   3.108438   3.969953
    25  H    3.161154   5.174850   4.607638   3.887638   2.904623
    26  C    4.068268   5.307601   3.922503   4.395944   5.436071
    27  H    4.056872   5.407944   4.822402   3.822317   5.584003
    28  H    5.028856   6.344526   4.430800   5.311837   6.155014
    29  H    4.295047   5.080465   3.532651   4.806515   5.883538
                   11         12         13         14         15
    11  H    0.000000
    12  H    4.243339   0.000000
    13  H    3.765945   1.791638   0.000000
    14  H    3.800892   1.787171   1.755022   0.000000
    15  H    3.308405   2.664152   3.504397   3.710940   0.000000
    16  H    3.541889   2.562537   3.766749   3.113147   1.754495
    17  H    2.356503   3.695894   4.253037   3.987106   1.775502
    18  C    2.221230   4.010858   2.667627   3.200455   4.334418
    19  H    2.775326   3.948063   2.453609   3.557914   4.240955
    20  H    2.427760   5.081006   3.750267   4.197516   5.133422
    21  H    3.075180   3.963414   2.501056   2.798675   4.901689
    22  C    2.757596   5.509382   4.826967   4.164025   5.577829
    23  H    2.423169   5.962568   5.310095   4.853362   5.543565
    24  H    3.747803   6.229366   5.679292   4.767375   6.397111
    25  H    3.180521   5.664331   4.662229   4.234358   6.025423
    26  C    2.846941   4.518601   4.735765   3.596983   4.232008
    27  H    3.803159   5.409257   5.621482   4.315555   5.289000
    28  H    2.511107   5.001160   5.201307   4.341343   4.100762
    29  H    3.330181   3.896508   4.502287   3.222571   3.738731
                   16         17         18         19         20
    16  H    0.000000
    17  H    1.789996   0.000000
    18  C    4.635684   4.129494   0.000000
    19  H    4.904911   4.421029   1.096048   0.000000
    20  H    5.448774   4.674997   1.090983   1.763425   0.000000
    21  H    4.939894   4.776787   1.092363   1.770288   1.765135
    22  C    5.050852   4.458117   2.953477   4.037232   2.745426
    23  H    5.215776   4.254668   3.177749   4.163479   2.751759
    24  H    5.633843   5.172335   3.999966   5.093329   3.783417
    25  H    5.668400   5.143996   2.583558   3.644662   2.225884
    26  C    3.120856   2.906879   4.055537   4.928204   4.398005
    27  H    4.038644   3.932691   4.861648   5.817890   5.089260
    28  H    3.273174   2.478143   4.239267   5.040821   4.439895
    29  H    2.311111   2.673548   4.459638   5.194606   5.013331
                   21         22         23         24         25
    21  H    0.000000
    22  C    3.004321   0.000000
    23  H    3.562180   1.092538   0.000000
    24  H    3.893400   1.097841   1.777833   0.000000
    25  H    2.435852   1.089263   1.792454   1.762130   0.000000
    26  C    4.215106   2.544351   2.804589   2.750976   3.495397
    27  H    4.885460   2.746779   3.100375   2.496962   3.736016
    28  H    4.650771   2.822015   2.641545   3.143872   3.831848
    29  H    4.562337   3.492220   3.823474   3.725267   4.330930
                   26         27         28         29
    26  C    0.000000
    27  H    1.096671   0.000000
    28  H    1.093102   1.774070   0.000000
    29  H    1.090250   1.762658   1.792110   0.000000
 Framework group  C1[X(C8H16Cl3FeO)]
 Deg. of freedom    81
                         Standard orientation:                         
 ---------------------------------------------------------------------
 Center     Atomic      Atomic             Coordinates (Angstroms)
 Number     Number       Type             X           Y           Z
 ---------------------------------------------------------------------
      1          8           0       -0.316688   -0.158234   -0.463625
      2          6           0       -1.174269   -1.113514   -0.254221
      3          6           0       -2.637800   -0.290615    0.832479
      4          6           0       -3.006300    0.697349   -0.068048
      5          6           0       -4.080210    0.481078   -1.081724
      6         26           0        1.518643    0.175633   -0.092999
      7         17           0        1.839158    2.150083   -0.991070
      8          6           0       -2.273102    1.983069   -0.117312
      9         17           0        2.544255   -1.516047   -1.049749
     10         17           0        1.796084    0.188966    2.095561
     11          1           0       -3.300115   -1.155463    0.867089
     12          1           0       -2.735507    2.711331   -0.786709
     13          1           0       -2.127490    2.423258    0.873802
     14          1           0       -1.259077    1.747884   -0.493616
     15          1           0       -4.906929    1.169189   -0.853284
     16          1           0       -3.736650    0.744993   -2.089714
     17          1           0       -4.473051   -0.537351   -1.081055
     18          6           0       -1.971654    0.083420    2.145457
     19          1           0       -2.582269    0.822443    2.676790
     20          1           0       -1.871772   -0.787155    2.795354
     21          1           0       -0.976466    0.509802    2.000350
     22          6           0       -0.752490   -2.201347    0.725419
     23          1           0       -1.580354   -2.856930    1.005582
     24          1           0        0.000657   -2.798242    0.194626
     25          1           0       -0.274363   -1.790396    1.613680
     26          6           0       -1.824702   -1.654004   -1.516120
     27          1           0       -1.075675   -2.291773   -2.000782
     28          1           0       -2.708533   -2.262536   -1.307785
     29          1           0       -2.071904   -0.853294   -2.213544
 ---------------------------------------------------------------------
 Rotational constants (GHZ):           0.5980641           0.3083625           0.2948453
   427 basis functions,  1056 primitive gaussians,   461 cartesian basis functions
    77 alpha electrons       72 beta electrons
       nuclear repulsion energy      1626.8030061897 Hartrees.
 NAtoms=   29 NActive=   29 NUniq=   29 SFac= 1.00D+00 NAtFMM=   60 NAOKFM=F Big=F
 ExpMin= 1.40D-02 ExpMax= 4.32D+06 ExpMxC= 4.91D+03 IAcc=3 IRadAn=         5 AccDes= 0.00D+00
 Harris functional with IExCor= 1009 and IRadAn=       5 diagonalized for initial guess.
 HarFok:  IExCor= 1009 AccDes= 0.00D+00 IRadAn=         5 IDoV= 1 UseB2=F ITyADJ=14
 ICtDFT=  3500011 ScaDFX=  1.000000  1.000000  1.000000  1.000000
 FoFCou: FMM=F IPFlag=           0 FMFlag=      100000 FMFlg1=           0
         NFxFlg=           0 DoJE=T BraDBF=F KetDBF=T FulRan=T
         wScrn=  0.000000 ICntrl=       500 IOpCl=  0 I1Cent=   200000004 NGrid=           0
         NMat0=    1 NMatS0=      1 NMatT0=    0 NMatD0=    1 NMtDS0=    0 NMtDT0=    0
 Petite list used in FoFCou.
 Initial guess <Sx>= 0.0000 <Sy>= 0.0000 <Sz>= 2.5000 <S**2>= 8.7500 S= 2.5000
 EnCoef did   100 forward-backward iterations
 Restarting incremental Fock formation.
 SCF Done:  E(UPBE1PBE) =  -3033.11627488     A.U. after   21 cycles
            NFock= 21  Conv=0.65D-08     -V/T= 2.0021
 <Sx>= 0.0000 <Sy>= 0.0000 <Sz>= 2.5000 <S**2>= 8.7628 S= 2.5021
 <L.S>= 0.000000000000E+00
 Annihilation of the first spin contaminant:
 S**2 before annihilation     8.7628,   after     8.7501
 1\1\GINC-HOLY7C08607\SP\UPBE1PBE\Jul-CC-pVDZ\C8H16Cl3Fe1O1(6)\EKWAN\11
 -Feb-2020\0\\#t pop=none jul-cc-pvdz upbe1pbe\\theory_abbreviation pbe
 0\\0,6\O,0,-0.316688,-0.158234,-0.463625\C,0,-1.174269,-1.113514,-0.25
 4221\C,0,-2.6378,-0.290615,0.832479\C,0,-3.0063,0.697349,-0.068048\C,0
 ,-4.08021,0.481078,-1.081724\Fe,0,1.518643,0.175633,-0.092999\Cl,0,1.8
 39158,2.150083,-0.99107\C,0,-2.273102,1.983069,-0.117312\Cl,0,2.544255
 ,-1.516047,-1.049749\Cl,0,1.796084,0.188966,2.095561\H,0,-3.300115,-1.
 155463,0.867089\H,0,-2.735507,2.711331,-0.786709\H,0,-2.12749,2.423258
 ,0.873802\H,0,-1.259077,1.747884,-0.493616\H,0,-4.906929,1.169189,-0.8
 53284\H,0,-3.73665,0.744993,-2.089714\H,0,-4.473051,-0.537351,-1.08105
 5\C,0,-1.971654,0.08342,2.145457\H,0,-2.582269,0.822443,2.67679\H,0,-1
 .871772,-0.787155,2.795354\H,0,-0.976466,0.509802,2.00035\C,0,-0.75249
 ,-2.201347,0.725419\H,0,-1.580354,-2.85693,1.005582\H,0,0.000657,-2.79
 8242,0.194626\H,0,-0.274363,-1.790396,1.61368\C,0,-1.824702,-1.654004,
 -1.51612\H,0,-1.075675,-2.291773,-2.000782\H,0,-2.708533,-2.262536,-1.
 307785\H,0,-2.071904,-0.853294,-2.213544\\Version=ES64L-G16RevA.03\HF=
 -3033.1162749\S2=8.762795\S2-1=0.\S2A=8.750051\RMSD=6.473e-09\PG=C01 [
 X(C8H16Cl3Fe1O1)]\\@


 A BIRD IN THE HAND IS SAFER THAN ONE OVERHEAD.

                       -- NEWTON'S SEVENTH LAW
 Job cpu time:       0 days  1 hours 30 minutes 14.2 seconds.
 Elapsed time:       0 days  0 hours 22 minutes 38.0 seconds.
 File lengths (MBytes):  RWF=    173 Int=      0 D2E=      0 Chk=     13 Scr=      1
 Normal termination of Gaussian 16 at Tue Feb 11 13:58:58 2020.
 Initial command:
 /n/sw/g16_nehalem/g16/l1.exe "/scratch/Gau-98680.inp" -scrdir="/scratch/"
 Entering Link 1 = /n/sw/g16_nehalem/g16/l1.exe PID=    100677.
  
 Copyright (c) 1988,1990,1992,1993,1995,1998,2003,2009,2016,
            Gaussian, Inc.  All Rights Reserved.
  
 This is part of the Gaussian(R) 16 program.  It is based on
 the Gaussian(R) 09 system (copyright 2009, Gaussian, Inc.),
 the Gaussian(R) 03 system (copyright 2003, Gaussian, Inc.),
 the Gaussian(R) 98 system (copyright 1998, Gaussian, Inc.),
 the Gaussian(R) 94 system (copyright 1995, Gaussian, Inc.),
 the Gaussian 92(TM) system (copyright 1992, Gaussian, Inc.),
 the Gaussian 90(TM) system (copyright 1990, Gaussian, Inc.),
 the Gaussian 88(TM) system (copyright 1988, Gaussian, Inc.),
 the Gaussian 86(TM) system (copyright 1986, Carnegie Mellon
 University), and the Gaussian 82(TM) system (copyright 1983,
 Carnegie Mellon University). Gaussian is a federally registered
 trademark of Gaussian, Inc.
  
 This software contains proprietary and confidential information,
 including trade secrets, belonging to Gaussian, Inc.
  
 This software is provided under written license and may be
 used, copied, transmitted, or stored only in accord with that
 written license.
  
 The following legend is applicable only to US Government
 contracts under FAR:
  
                    RESTRICTED RIGHTS LEGEND
  
 Use, reproduction and disclosure by the US Government is
 subject to restrictions as set forth in subparagraphs (a)
 and (c) of the Commercial Computer Software - Restricted
 Rights clause in FAR 52.227-19.
  
 Gaussian, Inc.
 340 Quinnipiac St., Bldg. 40, Wallingford CT 06492
  
  
 ---------------------------------------------------------------
 Warning -- This program may not be used in any manner that
 competes with the business of Gaussian, Inc. or will provide
 assistance to any competitor of Gaussian, Inc.  The licensee
 of this program is prohibited from giving any competitor of
 Gaussian, Inc. access to this program.  By using this program,
 the user acknowledges that Gaussian, Inc. is engaged in the
 business of creating and licensing software in the field of
 computational chemistry and represents and warrants to the
 licensee that it is not a competitor of Gaussian, Inc. and that
 it will not use this program in any manner prohibited above.
 ---------------------------------------------------------------
  

 Cite this work as:
 Gaussian 16, Revision A.03,
 M. J. Frisch, G. W. Trucks, H. B. Schlegel, G. E. Scuseria, 
 M. A. Robb, J. R. Cheeseman, G. Scalmani, V. Barone, 
 G. A. Petersson, H. Nakatsuji, X. Li, M. Caricato, A. V. Marenich, 
 J. Bloino, B. G. Janesko, R. Gomperts, B. Mennucci, H. P. Hratchian, 
 J. V. Ortiz, A. F. Izmaylov, J. L. Sonnenberg, D. Williams-Young, 
 F. Ding, F. Lipparini, F. Egidi, J. Goings, B. Peng, A. Petrone, 
 T. Henderson, D. Ranasinghe, V. G. Zakrzewski, J. Gao, N. Rega, 
 G. Zheng, W. Liang, M. Hada, M. Ehara, K. Toyota, R. Fukuda, 
 J. Hasegawa, M. Ishida, T. Nakajima, Y. Honda, O. Kitao, H. Nakai, 
 T. Vreven, K. Throssell, J. A. Montgomery, Jr., J. E. Peralta, 
 F. Ogliaro, M. J. Bearpark, J. J. Heyd, E. N. Brothers, K. N. Kudin, 
 V. N. Staroverov, T. A. Keith, R. Kobayashi, J. Normand, 
 K. Raghavachari, A. P. Rendell, J. C. Burant, S. S. Iyengar, 
 J. Tomasi, M. Cossi, J. M. Millam, M. Klene, C. Adamo, R. Cammi, 
 J. W. Ochterski, R. L. Martin, K. Morokuma, O. Farkas, 
 J. B. Foresman, and D. J. Fox, Gaussian, Inc., Wallingford CT, 2016.
 
 ******************************************
 Gaussian 16:  ES64L-G16RevA.03 25-Dec-2016
                11-Feb-2020 
 ******************************************
 %chk=checkpoint.chk
 %mem=3GB
 %nprocshared=4
 Will use up to    4 processors via shared memory.
 ---------------------------------------------------------------------
 #t pop=none jul-cc-pvdz guess=read upbe1pbe empiricaldispersion=gd3bj
 ---------------------------------------------------------------------
 -----------------------------
 theory_abbreviation pbe0_d3bj
 -----------------------------
 Symbolic Z-matrix:
 Charge =  0 Multiplicity = 6
 O                    -0.31669  -0.15823  -0.46363 
 C                    -1.17427  -1.11351  -0.25422 
 C                    -2.6378   -0.29062   0.83248 
 C                    -3.0063    0.69735  -0.06805 
 C                    -4.08021   0.48108  -1.08172 
 Fe                    1.51864   0.17563  -0.093 
 Cl                    1.83916   2.15008  -0.99107 
 C                    -2.2731    1.98307  -0.11731 
 Cl                    2.54426  -1.51605  -1.04975 
 Cl                    1.79608   0.18897   2.09556 
 H                    -3.30011  -1.15546   0.86709 
 H                    -2.73551   2.71133  -0.78671 
 H                    -2.12749   2.42326   0.8738 
 H                    -1.25908   1.74788  -0.49362 
 H                    -4.90693   1.16919  -0.85328 
 H                    -3.73665   0.74499  -2.08971 
 H                    -4.47305  -0.53735  -1.08106 
 C                    -1.97165   0.08342   2.14546 
 H                    -2.58227   0.82244   2.67679 
 H                    -1.87177  -0.78716   2.79535 
 H                    -0.97647   0.5098    2.00035 
 C                    -0.75249  -2.20135   0.72542 
 H                    -1.58035  -2.85693   1.00558 
 H                     0.00066  -2.79824   0.19463 
 H                    -0.27436  -1.7904    1.61368 
 C                    -1.8247   -1.654    -1.51612 
 H                    -1.07567  -2.29177  -2.00078 
 H                    -2.70853  -2.26254  -1.30779 
 H                    -2.0719   -0.85329  -2.21354 
 
                    Distance matrix (angstroms):
                    1          2          3          4          5
     1  O    0.000000
     2  C    1.300713   0.000000
     3  C    2.661761   2.000001   0.000000
     4  C    2.850003   2.582677   1.386656   0.000000
     5  C    3.867152   3.416428   2.517981   1.492513   0.000000
     6  Fe   1.901912   2.989928   4.283680   4.554988   5.693683
     7  Cl   3.202218   4.502750   5.415302   5.142069   6.150830
     8  C    2.921073   3.288617   2.490933   1.480906   2.540021
     9  Cl   3.220589   3.823914   5.647846   6.055701   6.919037
    10  Cl   3.336733   4.005113   4.635159   5.291743   6.686651
    11  H    3.415568   2.403813   1.089872   2.096120   2.661707
    12  H    3.766892   4.165387   3.412183   2.155441   2.620933
    13  H    3.425174   3.832730   2.761744   2.153637   3.377760
    14  H    2.126566   2.872647   2.795511   2.082671   3.147929
    15  H    4.794184   4.416148   3.181473   2.109886   1.099612
    16  H    3.893087   3.659082   3.289250   2.150073   1.097146
    17  H    4.219041   3.449287   2.662825   2.168415   1.091569
    18  C    3.099132   2.797665   1.519067   2.519326   3.875414
    19  H    3.994595   3.784339   2.154870   2.780213   4.060392
    20  H    3.665347   3.145303   2.164770   3.419061   4.638679
    21  H    2.636807   2.785206   2.182801   2.904078   4.374155
    22  C    2.403760   1.523474   2.686401   3.756553   4.640570
    23  H    3.322406   2.188951   2.781030   3.977298   4.663521
    24  H    2.739278   2.102433   3.695471   4.618435   5.388551
    25  H    2.642147   2.181067   2.906106   4.059626   5.187414
    26  C    2.370481   1.519073   2.834762   3.003656   3.136015
    27  H    2.736951   2.109144   3.804239   4.049398   4.190537
    28  H    3.295697   2.187285   2.911049   3.222814   3.075714
    29  H    2.574123   2.170809   3.148826   2.807266   2.663617
                    6          7          8          9         10
     6  Fe   0.000000
     7  Cl   2.192650   0.000000
     8  C    4.200565   4.207378   0.000000
     9  Cl   2.197506   3.733780   6.026623   0.000000
    10  Cl   2.206116   3.657202   4.967282   3.655107   0.000000
    11  H    5.090581   6.386824   3.445894   6.161246   5.411828
    12  H    5.000879   4.613494   1.091914   6.768737   5.933390
    13  H    4.390992   4.391659   1.094201   6.406510   4.677520
    14  H    3.216861   3.163587   1.106871   5.042605   4.297449
    15  H    6.546233   6.818418   2.853261   7.922704   7.388295
    16  H    5.650588   5.854138   2.750486   6.756004   6.959658
    17  H    6.114327   6.861077   3.481536   7.085295   7.065443
    18  C    4.147452   5.350812   2.969791   5.758565   3.769546
    19  H    4.990749   5.896172   3.041323   6.755507   4.461961
    20  H    4.556803   6.060971   4.039657   5.900627   3.859494
    21  H    3.274042   4.423444   2.887260   5.079630   2.792675
    22  C    3.387903   5.347702   4.531202   3.806492   3.753147
    23  H    4.472930   6.383562   5.016611   4.799453   4.676096
    24  H    3.351260   5.410349   5.303604   3.108438   3.969953
    25  H    3.161154   5.174850   4.607638   3.887638   2.904623
    26  C    4.068268   5.307601   3.922503   4.395944   5.436071
    27  H    4.056872   5.407944   4.822402   3.822317   5.584003
    28  H    5.028856   6.344526   4.430800   5.311837   6.155014
    29  H    4.295047   5.080465   3.532651   4.806515   5.883538
                   11         12         13         14         15
    11  H    0.000000
    12  H    4.243339   0.000000
    13  H    3.765945   1.791638   0.000000
    14  H    3.800892   1.787171   1.755022   0.000000
    15  H    3.308405   2.664152   3.504397   3.710940   0.000000
    16  H    3.541889   2.562537   3.766749   3.113147   1.754495
    17  H    2.356503   3.695894   4.253037   3.987106   1.775502
    18  C    2.221230   4.010858   2.667627   3.200455   4.334418
    19  H    2.775326   3.948063   2.453609   3.557914   4.240955
    20  H    2.427760   5.081006   3.750267   4.197516   5.133422
    21  H    3.075180   3.963414   2.501056   2.798675   4.901689
    22  C    2.757596   5.509382   4.826967   4.164025   5.577829
    23  H    2.423169   5.962568   5.310095   4.853362   5.543565
    24  H    3.747803   6.229366   5.679292   4.767375   6.397111
    25  H    3.180521   5.664331   4.662229   4.234358   6.025423
    26  C    2.846941   4.518601   4.735765   3.596983   4.232008
    27  H    3.803159   5.409257   5.621482   4.315555   5.289000
    28  H    2.511107   5.001160   5.201307   4.341343   4.100762
    29  H    3.330181   3.896508   4.502287   3.222571   3.738731
                   16         17         18         19         20
    16  H    0.000000
    17  H    1.789996   0.000000
    18  C    4.635684   4.129494   0.000000
    19  H    4.904911   4.421029   1.096048   0.000000
    20  H    5.448774   4.674997   1.090983   1.763425   0.000000
    21  H    4.939894   4.776787   1.092363   1.770288   1.765135
    22  C    5.050852   4.458117   2.953477   4.037232   2.745426
    23  H    5.215776   4.254668   3.177749   4.163479   2.751759
    24  H    5.633843   5.172335   3.999966   5.093329   3.783417
    25  H    5.668400   5.143996   2.583558   3.644662   2.225884
    26  C    3.120856   2.906879   4.055537   4.928204   4.398005
    27  H    4.038644   3.932691   4.861648   5.817890   5.089260
    28  H    3.273174   2.478143   4.239267   5.040821   4.439895
    29  H    2.311111   2.673548   4.459638   5.194606   5.013331
                   21         22         23         24         25
    21  H    0.000000
    22  C    3.004321   0.000000
    23  H    3.562180   1.092538   0.000000
    24  H    3.893400   1.097841   1.777833   0.000000
    25  H    2.435852   1.089263   1.792454   1.762130   0.000000
    26  C    4.215106   2.544351   2.804589   2.750976   3.495397
    27  H    4.885460   2.746779   3.100375   2.496962   3.736016
    28  H    4.650771   2.822015   2.641545   3.143872   3.831848
    29  H    4.562337   3.492220   3.823474   3.725267   4.330930
                   26         27         28         29
    26  C    0.000000
    27  H    1.096671   0.000000
    28  H    1.093102   1.774070   0.000000
    29  H    1.090250   1.762658   1.792110   0.000000
 Framework group  C1[X(C8H16Cl3FeO)]
 Deg. of freedom    81
                         Standard orientation:                         
 ---------------------------------------------------------------------
 Center     Atomic      Atomic             Coordinates (Angstroms)
 Number     Number       Type             X           Y           Z
 ---------------------------------------------------------------------
      1          8           0       -0.316688   -0.158234   -0.463625
      2          6           0       -1.174269   -1.113514   -0.254221
      3          6           0       -2.637800   -0.290615    0.832479
      4          6           0       -3.006300    0.697349   -0.068048
      5          6           0       -4.080210    0.481078   -1.081724
      6         26           0        1.518643    0.175633   -0.092999
      7         17           0        1.839158    2.150083   -0.991070
      8          6           0       -2.273102    1.983069   -0.117312
      9         17           0        2.544255   -1.516047   -1.049749
     10         17           0        1.796084    0.188966    2.095561
     11          1           0       -3.300115   -1.155463    0.867089
     12          1           0       -2.735507    2.711331   -0.786709
     13          1           0       -2.127490    2.423258    0.873802
     14          1           0       -1.259077    1.747884   -0.493616
     15          1           0       -4.906929    1.169189   -0.853284
     16          1           0       -3.736650    0.744993   -2.089714
     17          1           0       -4.473051   -0.537351   -1.081055
     18          6           0       -1.971654    0.083420    2.145457
     19          1           0       -2.582269    0.822443    2.676790
     20          1           0       -1.871772   -0.787155    2.795354
     21          1           0       -0.976466    0.509802    2.000350
     22          6           0       -0.752490   -2.201347    0.725419
     23          1           0       -1.580354   -2.856930    1.005582
     24          1           0        0.000657   -2.798242    0.194626
     25          1           0       -0.274363   -1.790396    1.613680
     26          6           0       -1.824702   -1.654004   -1.516120
     27          1           0       -1.075675   -2.291773   -2.000782
     28          1           0       -2.708533   -2.262536   -1.307785
     29          1           0       -2.071904   -0.853294   -2.213544
 ---------------------------------------------------------------------
 Rotational constants (GHZ):           0.5980641           0.3083625           0.2948453
   427 basis functions,  1056 primitive gaussians,   461 cartesian basis functions
    77 alpha electrons       72 beta electrons
       nuclear repulsion energy      1626.8030061897 Hartrees.
 NAtoms=   29 NActive=   29 NUniq=   29 SFac= 1.00D+00 NAtFMM=   60 NAOKFM=F Big=F
 Nuclear repulsion after empirical dispersion term =     1626.7669400267 Hartrees.
 Initial guess from the checkpoint file:  "checkpoint.chk"
 B after Tr=     0.000000    0.000000    0.000000
         Rot=    1.000000    0.000000    0.000000    0.000000 Ang=   0.00 deg.
 Initial guess <Sx>= 0.0000 <Sy>= 0.0000 <Sz>= 2.5000 <S**2>= 8.7628 S= 2.5021
 SCF Done:  E(UPBE1PBE) =  -3033.15234105     A.U. after    1 cycles
            NFock=  1  Conv=0.30D-08     -V/T= 2.0021
 <Sx>= 0.0000 <Sy>= 0.0000 <Sz>= 2.5000 <S**2>= 8.7628 S= 2.5021
 <L.S>= 0.000000000000E+00
 Annihilation of the first spin contaminant:
 S**2 before annihilation     8.7628,   after     8.7501
 1\1\GINC-HOLY7C08607\SP\UPBE1PBE\Jul-CC-pVDZ\C8H16Cl3Fe1O1(6)\EKWAN\11
 -Feb-2020\0\\#t pop=none jul-cc-pvdz guess=read upbe1pbe empiricaldisp
 ersion=gd3bj\\theory_abbreviation pbe0_d3bj\\0,6\O,0,-0.316688,-0.1582
 34,-0.463625\C,0,-1.174269,-1.113514,-0.254221\C,0,-2.6378,-0.290615,0
 .832479\C,0,-3.0063,0.697349,-0.068048\C,0,-4.08021,0.481078,-1.081724
 \Fe,0,1.518643,0.175633,-0.092999\Cl,0,1.839158,2.150083,-0.99107\C,0,
 -2.273102,1.983069,-0.117312\Cl,0,2.544255,-1.516047,-1.049749\Cl,0,1.
 796084,0.188966,2.095561\H,0,-3.300115,-1.155463,0.867089\H,0,-2.73550
 7,2.711331,-0.786709\H,0,-2.12749,2.423258,0.873802\H,0,-1.259077,1.74
 7884,-0.493616\H,0,-4.906929,1.169189,-0.853284\H,0,-3.73665,0.744993,
 -2.089714\H,0,-4.473051,-0.537351,-1.081055\C,0,-1.971654,0.08342,2.14
 5457\H,0,-2.582269,0.822443,2.67679\H,0,-1.871772,-0.787155,2.795354\H
 ,0,-0.976466,0.509802,2.00035\C,0,-0.75249,-2.201347,0.725419\H,0,-1.5
 80354,-2.85693,1.005582\H,0,0.000657,-2.798242,0.194626\H,0,-0.274363,
 -1.790396,1.61368\C,0,-1.824702,-1.654004,-1.51612\H,0,-1.075675,-2.29
 1773,-2.000782\H,0,-2.708533,-2.262536,-1.307785\H,0,-2.071904,-0.8532
 94,-2.213544\\Version=ES64L-G16RevA.03\HF=-3033.152341\S2=8.762795\S2-
 1=0.\S2A=8.750051\RMSD=3.028e-09\PG=C01 [X(C8H16Cl3Fe1O1)]\\@


 THERE IS SOMETHING FASCINATING ABOUT SCIENCE.
 ONE GETS SUCH WHOLESALE CONJECTURE OUT OF SUCH TRIFLING INVESTMENTS.

                                                       -- MARK TWAIN
 Job cpu time:       0 days  0 hours  4 minutes 38.1 seconds.
 Elapsed time:       0 days  0 hours  1 minutes 10.4 seconds.
 File lengths (MBytes):  RWF=    170 Int=      0 D2E=      0 Chk=     13 Scr=      1
 Normal termination of Gaussian 16 at Tue Feb 11 14:00:09 2020.
 Initial command:
 /n/sw/g16_nehalem/g16/l1.exe "/scratch/Gau-98680.inp" -scrdir="/scratch/"
 Entering Link 1 = /n/sw/g16_nehalem/g16/l1.exe PID=    101362.
  
 Copyright (c) 1988,1990,1992,1993,1995,1998,2003,2009,2016,
            Gaussian, Inc.  All Rights Reserved.
  
 This is part of the Gaussian(R) 16 program.  It is based on
 the Gaussian(R) 09 system (copyright 2009, Gaussian, Inc.),
 the Gaussian(R) 03 system (copyright 2003, Gaussian, Inc.),
 the Gaussian(R) 98 system (copyright 1998, Gaussian, Inc.),
 the Gaussian(R) 94 system (copyright 1995, Gaussian, Inc.),
 the Gaussian 92(TM) system (copyright 1992, Gaussian, Inc.),
 the Gaussian 90(TM) system (copyright 1990, Gaussian, Inc.),
 the Gaussian 88(TM) system (copyright 1988, Gaussian, Inc.),
 the Gaussian 86(TM) system (copyright 1986, Carnegie Mellon
 University), and the Gaussian 82(TM) system (copyright 1983,
 Carnegie Mellon University). Gaussian is a federally registered
 trademark of Gaussian, Inc.
  
 This software contains proprietary and confidential information,
 including trade secrets, belonging to Gaussian, Inc.
  
 This software is provided under written license and may be
 used, copied, transmitted, or stored only in accord with that
 written license.
  
 The following legend is applicable only to US Government
 contracts under FAR:
  
                    RESTRICTED RIGHTS LEGEND
  
 Use, reproduction and disclosure by the US Government is
 subject to restrictions as set forth in subparagraphs (a)
 and (c) of the Commercial Computer Software - Restricted
 Rights clause in FAR 52.227-19.
  
 Gaussian, Inc.
 340 Quinnipiac St., Bldg. 40, Wallingford CT 06492
  
  
 ---------------------------------------------------------------
 Warning -- This program may not be used in any manner that
 competes with the business of Gaussian, Inc. or will provide
 assistance to any competitor of Gaussian, Inc.  The licensee
 of this program is prohibited from giving any competitor of
 Gaussian, Inc. access to this program.  By using this program,
 the user acknowledges that Gaussian, Inc. is engaged in the
 business of creating and licensing software in the field of
 computational chemistry and represents and warrants to the
 licensee that it is not a competitor of Gaussian, Inc. and that
 it will not use this program in any manner prohibited above.
 ---------------------------------------------------------------
  

 Cite this work as:
 Gaussian 16, Revision A.03,
 M. J. Frisch, G. W. Trucks, H. B. Schlegel, G. E. Scuseria, 
 M. A. Robb, J. R. Cheeseman, G. Scalmani, V. Barone, 
 G. A. Petersson, H. Nakatsuji, X. Li, M. Caricato, A. V. Marenich, 
 J. Bloino, B. G. Janesko, R. Gomperts, B. Mennucci, H. P. Hratchian, 
 J. V. Ortiz, A. F. Izmaylov, J. L. Sonnenberg, D. Williams-Young, 
 F. Ding, F. Lipparini, F. Egidi, J. Goings, B. Peng, A. Petrone, 
 T. Henderson, D. Ranasinghe, V. G. Zakrzewski, J. Gao, N. Rega, 
 G. Zheng, W. Liang, M. Hada, M. Ehara, K. Toyota, R. Fukuda, 
 J. Hasegawa, M. Ishida, T. Nakajima, Y. Honda, O. Kitao, H. Nakai, 
 T. Vreven, K. Throssell, J. A. Montgomery, Jr., J. E. Peralta, 
 F. Ogliaro, M. J. Bearpark, J. J. Heyd, E. N. Brothers, K. N. Kudin, 
 V. N. Staroverov, T. A. Keith, R. Kobayashi, J. Normand, 
 K. Raghavachari, A. P. Rendell, J. C. Burant, S. S. Iyengar, 
 J. Tomasi, M. Cossi, J. M. Millam, M. Klene, C. Adamo, R. Cammi, 
 J. W. Ochterski, R. L. Martin, K. Morokuma, O. Farkas, 
 J. B. Foresman, and D. J. Fox, Gaussian, Inc., Wallingford CT, 2016.
 
 ******************************************
 Gaussian 16:  ES64L-G16RevA.03 25-Dec-2016
                11-Feb-2020 
 ******************************************
 %chk=checkpoint.chk
 %mem=3GB
 %nprocshared=4
 Will use up to    4 processors via shared memory.
 -----------------------------------------
 #t pop=none jul-cc-pvdz guess=read ub3lyp
 -----------------------------------------
 -------------------------
 theory_abbreviation b3lyp
 -------------------------
 Symbolic Z-matrix:
 Charge =  0 Multiplicity = 6
 O                    -0.31669  -0.15823  -0.46363 
 C                    -1.17427  -1.11351  -0.25422 
 C                    -2.6378   -0.29062   0.83248 
 C                    -3.0063    0.69735  -0.06805 
 C                    -4.08021   0.48108  -1.08172 
 Fe                    1.51864   0.17563  -0.093 
 Cl                    1.83916   2.15008  -0.99107 
 C                    -2.2731    1.98307  -0.11731 
 Cl                    2.54426  -1.51605  -1.04975 
 Cl                    1.79608   0.18897   2.09556 
 H                    -3.30011  -1.15546   0.86709 
 H                    -2.73551   2.71133  -0.78671 
 H                    -2.12749   2.42326   0.8738 
 H                    -1.25908   1.74788  -0.49362 
 H                    -4.90693   1.16919  -0.85328 
 H                    -3.73665   0.74499  -2.08971 
 H                    -4.47305  -0.53735  -1.08106 
 C                    -1.97165   0.08342   2.14546 
 H                    -2.58227   0.82244   2.67679 
 H                    -1.87177  -0.78716   2.79535 
 H                    -0.97647   0.5098    2.00035 
 C                    -0.75249  -2.20135   0.72542 
 H                    -1.58035  -2.85693   1.00558 
 H                     0.00066  -2.79824   0.19463 
 H                    -0.27436  -1.7904    1.61368 
 C                    -1.8247   -1.654    -1.51612 
 H                    -1.07567  -2.29177  -2.00078 
 H                    -2.70853  -2.26254  -1.30779 
 H                    -2.0719   -0.85329  -2.21354 
 
                    Distance matrix (angstroms):
                    1          2          3          4          5
     1  O    0.000000
     2  C    1.300713   0.000000
     3  C    2.661761   2.000001   0.000000
     4  C    2.850003   2.582677   1.386656   0.000000
     5  C    3.867152   3.416428   2.517981   1.492513   0.000000
     6  Fe   1.901912   2.989928   4.283680   4.554988   5.693683
     7  Cl   3.202218   4.502750   5.415302   5.142069   6.150830
     8  C    2.921073   3.288617   2.490933   1.480906   2.540021
     9  Cl   3.220589   3.823914   5.647846   6.055701   6.919037
    10  Cl   3.336733   4.005113   4.635159   5.291743   6.686651
    11  H    3.415568   2.403813   1.089872   2.096120   2.661707
    12  H    3.766892   4.165387   3.412183   2.155441   2.620933
    13  H    3.425174   3.832730   2.761744   2.153637   3.377760
    14  H    2.126566   2.872647   2.795511   2.082671   3.147929
    15  H    4.794184   4.416148   3.181473   2.109886   1.099612
    16  H    3.893087   3.659082   3.289250   2.150073   1.097146
    17  H    4.219041   3.449287   2.662825   2.168415   1.091569
    18  C    3.099132   2.797665   1.519067   2.519326   3.875414
    19  H    3.994595   3.784339   2.154870   2.780213   4.060392
    20  H    3.665347   3.145303   2.164770   3.419061   4.638679
    21  H    2.636807   2.785206   2.182801   2.904078   4.374155
    22  C    2.403760   1.523474   2.686401   3.756553   4.640570
    23  H    3.322406   2.188951   2.781030   3.977298   4.663521
    24  H    2.739278   2.102433   3.695471   4.618435   5.388551
    25  H    2.642147   2.181067   2.906106   4.059626   5.187414
    26  C    2.370481   1.519073   2.834762   3.003656   3.136015
    27  H    2.736951   2.109144   3.804239   4.049398   4.190537
    28  H    3.295697   2.187285   2.911049   3.222814   3.075714
    29  H    2.574123   2.170809   3.148826   2.807266   2.663617
                    6          7          8          9         10
     6  Fe   0.000000
     7  Cl   2.192650   0.000000
     8  C    4.200565   4.207378   0.000000
     9  Cl   2.197506   3.733780   6.026623   0.000000
    10  Cl   2.206116   3.657202   4.967282   3.655107   0.000000
    11  H    5.090581   6.386824   3.445894   6.161246   5.411828
    12  H    5.000879   4.613494   1.091914   6.768737   5.933390
    13  H    4.390992   4.391659   1.094201   6.406510   4.677520
    14  H    3.216861   3.163587   1.106871   5.042605   4.297449
    15  H    6.546233   6.818418   2.853261   7.922704   7.388295
    16  H    5.650588   5.854138   2.750486   6.756004   6.959658
    17  H    6.114327   6.861077   3.481536   7.085295   7.065443
    18  C    4.147452   5.350812   2.969791   5.758565   3.769546
    19  H    4.990749   5.896172   3.041323   6.755507   4.461961
    20  H    4.556803   6.060971   4.039657   5.900627   3.859494
    21  H    3.274042   4.423444   2.887260   5.079630   2.792675
    22  C    3.387903   5.347702   4.531202   3.806492   3.753147
    23  H    4.472930   6.383562   5.016611   4.799453   4.676096
    24  H    3.351260   5.410349   5.303604   3.108438   3.969953
    25  H    3.161154   5.174850   4.607638   3.887638   2.904623
    26  C    4.068268   5.307601   3.922503   4.395944   5.436071
    27  H    4.056872   5.407944   4.822402   3.822317   5.584003
    28  H    5.028856   6.344526   4.430800   5.311837   6.155014
    29  H    4.295047   5.080465   3.532651   4.806515   5.883538
                   11         12         13         14         15
    11  H    0.000000
    12  H    4.243339   0.000000
    13  H    3.765945   1.791638   0.000000
    14  H    3.800892   1.787171   1.755022   0.000000
    15  H    3.308405   2.664152   3.504397   3.710940   0.000000
    16  H    3.541889   2.562537   3.766749   3.113147   1.754495
    17  H    2.356503   3.695894   4.253037   3.987106   1.775502
    18  C    2.221230   4.010858   2.667627   3.200455   4.334418
    19  H    2.775326   3.948063   2.453609   3.557914   4.240955
    20  H    2.427760   5.081006   3.750267   4.197516   5.133422
    21  H    3.075180   3.963414   2.501056   2.798675   4.901689
    22  C    2.757596   5.509382   4.826967   4.164025   5.577829
    23  H    2.423169   5.962568   5.310095   4.853362   5.543565
    24  H    3.747803   6.229366   5.679292   4.767375   6.397111
    25  H    3.180521   5.664331   4.662229   4.234358   6.025423
    26  C    2.846941   4.518601   4.735765   3.596983   4.232008
    27  H    3.803159   5.409257   5.621482   4.315555   5.289000
    28  H    2.511107   5.001160   5.201307   4.341343   4.100762
    29  H    3.330181   3.896508   4.502287   3.222571   3.738731
                   16         17         18         19         20
    16  H    0.000000
    17  H    1.789996   0.000000
    18  C    4.635684   4.129494   0.000000
    19  H    4.904911   4.421029   1.096048   0.000000
    20  H    5.448774   4.674997   1.090983   1.763425   0.000000
    21  H    4.939894   4.776787   1.092363   1.770288   1.765135
    22  C    5.050852   4.458117   2.953477   4.037232   2.745426
    23  H    5.215776   4.254668   3.177749   4.163479   2.751759
    24  H    5.633843   5.172335   3.999966   5.093329   3.783417
    25  H    5.668400   5.143996   2.583558   3.644662   2.225884
    26  C    3.120856   2.906879   4.055537   4.928204   4.398005
    27  H    4.038644   3.932691   4.861648   5.817890   5.089260
    28  H    3.273174   2.478143   4.239267   5.040821   4.439895
    29  H    2.311111   2.673548   4.459638   5.194606   5.013331
                   21         22         23         24         25
    21  H    0.000000
    22  C    3.004321   0.000000
    23  H    3.562180   1.092538   0.000000
    24  H    3.893400   1.097841   1.777833   0.000000
    25  H    2.435852   1.089263   1.792454   1.762130   0.000000
    26  C    4.215106   2.544351   2.804589   2.750976   3.495397
    27  H    4.885460   2.746779   3.100375   2.496962   3.736016
    28  H    4.650771   2.822015   2.641545   3.143872   3.831848
    29  H    4.562337   3.492220   3.823474   3.725267   4.330930
                   26         27         28         29
    26  C    0.000000
    27  H    1.096671   0.000000
    28  H    1.093102   1.774070   0.000000
    29  H    1.090250   1.762658   1.792110   0.000000
 Framework group  C1[X(C8H16Cl3FeO)]
 Deg. of freedom    81
                         Standard orientation:                         
 ---------------------------------------------------------------------
 Center     Atomic      Atomic             Coordinates (Angstroms)
 Number     Number       Type             X           Y           Z
 ---------------------------------------------------------------------
      1          8           0       -0.316688   -0.158234   -0.463625
      2          6           0       -1.174269   -1.113514   -0.254221
      3          6           0       -2.637800   -0.290615    0.832479
      4          6           0       -3.006300    0.697349   -0.068048
      5          6           0       -4.080210    0.481078   -1.081724
      6         26           0        1.518643    0.175633   -0.092999
      7         17           0        1.839158    2.150083   -0.991070
      8          6           0       -2.273102    1.983069   -0.117312
      9         17           0        2.544255   -1.516047   -1.049749
     10         17           0        1.796084    0.188966    2.095561
     11          1           0       -3.300115   -1.155463    0.867089
     12          1           0       -2.735507    2.711331   -0.786709
     13          1           0       -2.127490    2.423258    0.873802
     14          1           0       -1.259077    1.747884   -0.493616
     15          1           0       -4.906929    1.169189   -0.853284
     16          1           0       -3.736650    0.744993   -2.089714
     17          1           0       -4.473051   -0.537351   -1.081055
     18          6           0       -1.971654    0.083420    2.145457
     19          1           0       -2.582269    0.822443    2.676790
     20          1           0       -1.871772   -0.787155    2.795354
     21          1           0       -0.976466    0.509802    2.000350
     22          6           0       -0.752490   -2.201347    0.725419
     23          1           0       -1.580354   -2.856930    1.005582
     24          1           0        0.000657   -2.798242    0.194626
     25          1           0       -0.274363   -1.790396    1.613680
     26          6           0       -1.824702   -1.654004   -1.516120
     27          1           0       -1.075675   -2.291773   -2.000782
     28          1           0       -2.708533   -2.262536   -1.307785
     29          1           0       -2.071904   -0.853294   -2.213544
 ---------------------------------------------------------------------
 Rotational constants (GHZ):           0.5980641           0.3083625           0.2948453
   427 basis functions,  1056 primitive gaussians,   461 cartesian basis functions
    77 alpha electrons       72 beta electrons
       nuclear repulsion energy      1626.8030061897 Hartrees.
 NAtoms=   29 NActive=   29 NUniq=   29 SFac= 1.00D+00 NAtFMM=   60 NAOKFM=F Big=F
 Initial guess from the checkpoint file:  "checkpoint.chk"
 B after Tr=     0.000000    0.000000    0.000000
         Rot=    1.000000    0.000000    0.000000    0.000000 Ang=   0.00 deg.
 Initial guess <Sx>= 0.0000 <Sy>= 0.0000 <Sz>= 2.5000 <S**2>= 8.7628 S= 2.5021
 SCF Done:  E(UB3LYP) =  -3034.33091564     A.U. after   15 cycles
            NFock= 15  Conv=0.75D-08     -V/T= 2.0024
 <Sx>= 0.0000 <Sy>= 0.0000 <Sz>= 2.5000 <S**2>= 8.7621 S= 2.5020
 <L.S>= 0.000000000000E+00
 Annihilation of the first spin contaminant:
 S**2 before annihilation     8.7621,   after     8.7500
 1\1\GINC-HOLY7C08607\SP\UB3LYP\Jul-CC-pVDZ\C8H16Cl3Fe1O1(6)\EKWAN\11-F
 eb-2020\0\\#t pop=none jul-cc-pvdz guess=read ub3lyp\\theory_abbreviat
 ion b3lyp\\0,6\O,0,-0.316688,-0.158234,-0.463625\C,0,-1.174269,-1.1135
 14,-0.254221\C,0,-2.6378,-0.290615,0.832479\C,0,-3.0063,0.697349,-0.06
 8048\C,0,-4.08021,0.481078,-1.081724\Fe,0,1.518643,0.175633,-0.092999\
 Cl,0,1.839158,2.150083,-0.99107\C,0,-2.273102,1.983069,-0.117312\Cl,0,
 2.544255,-1.516047,-1.049749\Cl,0,1.796084,0.188966,2.095561\H,0,-3.30
 0115,-1.155463,0.867089\H,0,-2.735507,2.711331,-0.786709\H,0,-2.12749,
 2.423258,0.873802\H,0,-1.259077,1.747884,-0.493616\H,0,-4.906929,1.169
 189,-0.853284\H,0,-3.73665,0.744993,-2.089714\H,0,-4.473051,-0.537351,
 -1.081055\C,0,-1.971654,0.08342,2.145457\H,0,-2.582269,0.822443,2.6767
 9\H,0,-1.871772,-0.787155,2.795354\H,0,-0.976466,0.509802,2.00035\C,0,
 -0.75249,-2.201347,0.725419\H,0,-1.580354,-2.85693,1.005582\H,0,0.0006
 57,-2.798242,0.194626\H,0,-0.274363,-1.790396,1.61368\C,0,-1.824702,-1
 .654004,-1.51612\H,0,-1.075675,-2.291773,-2.000782\H,0,-2.708533,-2.26
 2536,-1.307785\H,0,-2.071904,-0.853294,-2.213544\\Version=ES64L-G16Rev
 A.03\HF=-3034.3309156\S2=8.762073\S2-1=0.\S2A=8.750045\RMSD=7.527e-09\
 PG=C01 [X(C8H16Cl3Fe1O1)]\\@


 WOE UNTO THEM THAT CALL EVIL GOOD, AND GOOD EVIL      
 Job cpu time:       0 days  1 hours  2 minutes 17.1 seconds.
 Elapsed time:       0 days  0 hours 15 minutes 37.0 seconds.
 File lengths (MBytes):  RWF=    174 Int=      0 D2E=      0 Chk=     13 Scr=      1
 Normal termination of Gaussian 16 at Tue Feb 11 14:15:47 2020.
 Initial command:
 /n/sw/g16_nehalem/g16/l1.exe "/scratch/Gau-98680.inp" -scrdir="/scratch/"
 Entering Link 1 = /n/sw/g16_nehalem/g16/l1.exe PID=    102791.
  
 Copyright (c) 1988,1990,1992,1993,1995,1998,2003,2009,2016,
            Gaussian, Inc.  All Rights Reserved.
  
 This is part of the Gaussian(R) 16 program.  It is based on
 the Gaussian(R) 09 system (copyright 2009, Gaussian, Inc.),
 the Gaussian(R) 03 system (copyright 2003, Gaussian, Inc.),
 the Gaussian(R) 98 system (copyright 1998, Gaussian, Inc.),
 the Gaussian(R) 94 system (copyright 1995, Gaussian, Inc.),
 the Gaussian 92(TM) system (copyright 1992, Gaussian, Inc.),
 the Gaussian 90(TM) system (copyright 1990, Gaussian, Inc.),
 the Gaussian 88(TM) system (copyright 1988, Gaussian, Inc.),
 the Gaussian 86(TM) system (copyright 1986, Carnegie Mellon
 University), and the Gaussian 82(TM) system (copyright 1983,
 Carnegie Mellon University). Gaussian is a federally registered
 trademark of Gaussian, Inc.
  
 This software contains proprietary and confidential information,
 including trade secrets, belonging to Gaussian, Inc.
  
 This software is provided under written license and may be
 used, copied, transmitted, or stored only in accord with that
 written license.
  
 The following legend is applicable only to US Government
 contracts under FAR:
  
                    RESTRICTED RIGHTS LEGEND
  
 Use, reproduction and disclosure by the US Government is
 subject to restrictions as set forth in subparagraphs (a)
 and (c) of the Commercial Computer Software - Restricted
 Rights clause in FAR 52.227-19.
  
 Gaussian, Inc.
 340 Quinnipiac St., Bldg. 40, Wallingford CT 06492
  
  
 ---------------------------------------------------------------
 Warning -- This program may not be used in any manner that
 competes with the business of Gaussian, Inc. or will provide
 assistance to any competitor of Gaussian, Inc.  The licensee
 of this program is prohibited from giving any competitor of
 Gaussian, Inc. access to this program.  By using this program,
 the user acknowledges that Gaussian, Inc. is engaged in the
 business of creating and licensing software in the field of
 computational chemistry and represents and warrants to the
 licensee that it is not a competitor of Gaussian, Inc. and that
 it will not use this program in any manner prohibited above.
 ---------------------------------------------------------------
  

 Cite this work as:
 Gaussian 16, Revision A.03,
 M. J. Frisch, G. W. Trucks, H. B. Schlegel, G. E. Scuseria, 
 M. A. Robb, J. R. Cheeseman, G. Scalmani, V. Barone, 
 G. A. Petersson, H. Nakatsuji, X. Li, M. Caricato, A. V. Marenich, 
 J. Bloino, B. G. Janesko, R. Gomperts, B. Mennucci, H. P. Hratchian, 
 J. V. Ortiz, A. F. Izmaylov, J. L. Sonnenberg, D. Williams-Young, 
 F. Ding, F. Lipparini, F. Egidi, J. Goings, B. Peng, A. Petrone, 
 T. Henderson, D. Ranasinghe, V. G. Zakrzewski, J. Gao, N. Rega, 
 G. Zheng, W. Liang, M. Hada, M. Ehara, K. Toyota, R. Fukuda, 
 J. Hasegawa, M. Ishida, T. Nakajima, Y. Honda, O. Kitao, H. Nakai, 
 T. Vreven, K. Throssell, J. A. Montgomery, Jr., J. E. Peralta, 
 F. Ogliaro, M. J. Bearpark, J. J. Heyd, E. N. Brothers, K. N. Kudin, 
 V. N. Staroverov, T. A. Keith, R. Kobayashi, J. Normand, 
 K. Raghavachari, A. P. Rendell, J. C. Burant, S. S. Iyengar, 
 J. Tomasi, M. Cossi, J. M. Millam, M. Klene, C. Adamo, R. Cammi, 
 J. W. Ochterski, R. L. Martin, K. Morokuma, O. Farkas, 
 J. B. Foresman, and D. J. Fox, Gaussian, Inc., Wallingford CT, 2016.
 
 ******************************************
 Gaussian 16:  ES64L-G16RevA.03 25-Dec-2016
                11-Feb-2020 
 ******************************************
 %chk=checkpoint.chk
 %mem=3GB
 %nprocshared=4
 Will use up to    4 processors via shared memory.
 -------------------------------------------------------------------
 #t pop=none jul-cc-pvdz guess=read ub3lyp empiricaldispersion=gd3bj
 -------------------------------------------------------------------
 ------------------------------
 theory_abbreviation b3lyp_d3bj
 ------------------------------
 Symbolic Z-matrix:
 Charge =  0 Multiplicity = 6
 O                    -0.31669  -0.15823  -0.46363 
 C                    -1.17427  -1.11351  -0.25422 
 C                    -2.6378   -0.29062   0.83248 
 C                    -3.0063    0.69735  -0.06805 
 C                    -4.08021   0.48108  -1.08172 
 Fe                    1.51864   0.17563  -0.093 
 Cl                    1.83916   2.15008  -0.99107 
 C                    -2.2731    1.98307  -0.11731 
 Cl                    2.54426  -1.51605  -1.04975 
 Cl                    1.79608   0.18897   2.09556 
 H                    -3.30011  -1.15546   0.86709 
 H                    -2.73551   2.71133  -0.78671 
 H                    -2.12749   2.42326   0.8738 
 H                    -1.25908   1.74788  -0.49362 
 H                    -4.90693   1.16919  -0.85328 
 H                    -3.73665   0.74499  -2.08971 
 H                    -4.47305  -0.53735  -1.08106 
 C                    -1.97165   0.08342   2.14546 
 H                    -2.58227   0.82244   2.67679 
 H                    -1.87177  -0.78716   2.79535 
 H                    -0.97647   0.5098    2.00035 
 C                    -0.75249  -2.20135   0.72542 
 H                    -1.58035  -2.85693   1.00558 
 H                     0.00066  -2.79824   0.19463 
 H                    -0.27436  -1.7904    1.61368 
 C                    -1.8247   -1.654    -1.51612 
 H                    -1.07567  -2.29177  -2.00078 
 H                    -2.70853  -2.26254  -1.30779 
 H                    -2.0719   -0.85329  -2.21354 
 
                    Distance matrix (angstroms):
                    1          2          3          4          5
     1  O    0.000000
     2  C    1.300713   0.000000
     3  C    2.661761   2.000001   0.000000
     4  C    2.850003   2.582677   1.386656   0.000000
     5  C    3.867152   3.416428   2.517981   1.492513   0.000000
     6  Fe   1.901912   2.989928   4.283680   4.554988   5.693683
     7  Cl   3.202218   4.502750   5.415302   5.142069   6.150830
     8  C    2.921073   3.288617   2.490933   1.480906   2.540021
     9  Cl   3.220589   3.823914   5.647846   6.055701   6.919037
    10  Cl   3.336733   4.005113   4.635159   5.291743   6.686651
    11  H    3.415568   2.403813   1.089872   2.096120   2.661707
    12  H    3.766892   4.165387   3.412183   2.155441   2.620933
    13  H    3.425174   3.832730   2.761744   2.153637   3.377760
    14  H    2.126566   2.872647   2.795511   2.082671   3.147929
    15  H    4.794184   4.416148   3.181473   2.109886   1.099612
    16  H    3.893087   3.659082   3.289250   2.150073   1.097146
    17  H    4.219041   3.449287   2.662825   2.168415   1.091569
    18  C    3.099132   2.797665   1.519067   2.519326   3.875414
    19  H    3.994595   3.784339   2.154870   2.780213   4.060392
    20  H    3.665347   3.145303   2.164770   3.419061   4.638679
    21  H    2.636807   2.785206   2.182801   2.904078   4.374155
    22  C    2.403760   1.523474   2.686401   3.756553   4.640570
    23  H    3.322406   2.188951   2.781030   3.977298   4.663521
    24  H    2.739278   2.102433   3.695471   4.618435   5.388551
    25  H    2.642147   2.181067   2.906106   4.059626   5.187414
    26  C    2.370481   1.519073   2.834762   3.003656   3.136015
    27  H    2.736951   2.109144   3.804239   4.049398   4.190537
    28  H    3.295697   2.187285   2.911049   3.222814   3.075714
    29  H    2.574123   2.170809   3.148826   2.807266   2.663617
                    6          7          8          9         10
     6  Fe   0.000000
     7  Cl   2.192650   0.000000
     8  C    4.200565   4.207378   0.000000
     9  Cl   2.197506   3.733780   6.026623   0.000000
    10  Cl   2.206116   3.657202   4.967282   3.655107   0.000000
    11  H    5.090581   6.386824   3.445894   6.161246   5.411828
    12  H    5.000879   4.613494   1.091914   6.768737   5.933390
    13  H    4.390992   4.391659   1.094201   6.406510   4.677520
    14  H    3.216861   3.163587   1.106871   5.042605   4.297449
    15  H    6.546233   6.818418   2.853261   7.922704   7.388295
    16  H    5.650588   5.854138   2.750486   6.756004   6.959658
    17  H    6.114327   6.861077   3.481536   7.085295   7.065443
    18  C    4.147452   5.350812   2.969791   5.758565   3.769546
    19  H    4.990749   5.896172   3.041323   6.755507   4.461961
    20  H    4.556803   6.060971   4.039657   5.900627   3.859494
    21  H    3.274042   4.423444   2.887260   5.079630   2.792675
    22  C    3.387903   5.347702   4.531202   3.806492   3.753147
    23  H    4.472930   6.383562   5.016611   4.799453   4.676096
    24  H    3.351260   5.410349   5.303604   3.108438   3.969953
    25  H    3.161154   5.174850   4.607638   3.887638   2.904623
    26  C    4.068268   5.307601   3.922503   4.395944   5.436071
    27  H    4.056872   5.407944   4.822402   3.822317   5.584003
    28  H    5.028856   6.344526   4.430800   5.311837   6.155014
    29  H    4.295047   5.080465   3.532651   4.806515   5.883538
                   11         12         13         14         15
    11  H    0.000000
    12  H    4.243339   0.000000
    13  H    3.765945   1.791638   0.000000
    14  H    3.800892   1.787171   1.755022   0.000000
    15  H    3.308405   2.664152   3.504397   3.710940   0.000000
    16  H    3.541889   2.562537   3.766749   3.113147   1.754495
    17  H    2.356503   3.695894   4.253037   3.987106   1.775502
    18  C    2.221230   4.010858   2.667627   3.200455   4.334418
    19  H    2.775326   3.948063   2.453609   3.557914   4.240955
    20  H    2.427760   5.081006   3.750267   4.197516   5.133422
    21  H    3.075180   3.963414   2.501056   2.798675   4.901689
    22  C    2.757596   5.509382   4.826967   4.164025   5.577829
    23  H    2.423169   5.962568   5.310095   4.853362   5.543565
    24  H    3.747803   6.229366   5.679292   4.767375   6.397111
    25  H    3.180521   5.664331   4.662229   4.234358   6.025423
    26  C    2.846941   4.518601   4.735765   3.596983   4.232008
    27  H    3.803159   5.409257   5.621482   4.315555   5.289000
    28  H    2.511107   5.001160   5.201307   4.341343   4.100762
    29  H    3.330181   3.896508   4.502287   3.222571   3.738731
                   16         17         18         19         20
    16  H    0.000000
    17  H    1.789996   0.000000
    18  C    4.635684   4.129494   0.000000
    19  H    4.904911   4.421029   1.096048   0.000000
    20  H    5.448774   4.674997   1.090983   1.763425   0.000000
    21  H    4.939894   4.776787   1.092363   1.770288   1.765135
    22  C    5.050852   4.458117   2.953477   4.037232   2.745426
    23  H    5.215776   4.254668   3.177749   4.163479   2.751759
    24  H    5.633843   5.172335   3.999966   5.093329   3.783417
    25  H    5.668400   5.143996   2.583558   3.644662   2.225884
    26  C    3.120856   2.906879   4.055537   4.928204   4.398005
    27  H    4.038644   3.932691   4.861648   5.817890   5.089260
    28  H    3.273174   2.478143   4.239267   5.040821   4.439895
    29  H    2.311111   2.673548   4.459638   5.194606   5.013331
                   21         22         23         24         25
    21  H    0.000000
    22  C    3.004321   0.000000
    23  H    3.562180   1.092538   0.000000
    24  H    3.893400   1.097841   1.777833   0.000000
    25  H    2.435852   1.089263   1.792454   1.762130   0.000000
    26  C    4.215106   2.544351   2.804589   2.750976   3.495397
    27  H    4.885460   2.746779   3.100375   2.496962   3.736016
    28  H    4.650771   2.822015   2.641545   3.143872   3.831848
    29  H    4.562337   3.492220   3.823474   3.725267   4.330930
                   26         27         28         29
    26  C    0.000000
    27  H    1.096671   0.000000
    28  H    1.093102   1.774070   0.000000
    29  H    1.090250   1.762658   1.792110   0.000000
 Framework group  C1[X(C8H16Cl3FeO)]
 Deg. of freedom    81
                         Standard orientation:                         
 ---------------------------------------------------------------------
 Center     Atomic      Atomic             Coordinates (Angstroms)
 Number     Number       Type             X           Y           Z
 ---------------------------------------------------------------------
      1          8           0       -0.316688   -0.158234   -0.463625
      2          6           0       -1.174269   -1.113514   -0.254221
      3          6           0       -2.637800   -0.290615    0.832479
      4          6           0       -3.006300    0.697349   -0.068048
      5          6           0       -4.080210    0.481078   -1.081724
      6         26           0        1.518643    0.175633   -0.092999
      7         17           0        1.839158    2.150083   -0.991070
      8          6           0       -2.273102    1.983069   -0.117312
      9         17           0        2.544255   -1.516047   -1.049749
     10         17           0        1.796084    0.188966    2.095561
     11          1           0       -3.300115   -1.155463    0.867089
     12          1           0       -2.735507    2.711331   -0.786709
     13          1           0       -2.127490    2.423258    0.873802
     14          1           0       -1.259077    1.747884   -0.493616
     15          1           0       -4.906929    1.169189   -0.853284
     16          1           0       -3.736650    0.744993   -2.089714
     17          1           0       -4.473051   -0.537351   -1.081055
     18          6           0       -1.971654    0.083420    2.145457
     19          1           0       -2.582269    0.822443    2.676790
     20          1           0       -1.871772   -0.787155    2.795354
     21          1           0       -0.976466    0.509802    2.000350
     22          6           0       -0.752490   -2.201347    0.725419
     23          1           0       -1.580354   -2.856930    1.005582
     24          1           0        0.000657   -2.798242    0.194626
     25          1           0       -0.274363   -1.790396    1.613680
     26          6           0       -1.824702   -1.654004   -1.516120
     27          1           0       -1.075675   -2.291773   -2.000782
     28          1           0       -2.708533   -2.262536   -1.307785
     29          1           0       -2.071904   -0.853294   -2.213544
 ---------------------------------------------------------------------
 Rotational constants (GHZ):           0.5980641           0.3083625           0.2948453
   427 basis functions,  1056 primitive gaussians,   461 cartesian basis functions
    77 alpha electrons       72 beta electrons
       nuclear repulsion energy      1626.8030061897 Hartrees.
 NAtoms=   29 NActive=   29 NUniq=   29 SFac= 1.00D+00 NAtFMM=   60 NAOKFM=F Big=F
 Nuclear repulsion after empirical dispersion term =     1626.7357613361 Hartrees.
 Initial guess from the checkpoint file:  "checkpoint.chk"
 B after Tr=     0.000000    0.000000    0.000000
         Rot=    1.000000    0.000000    0.000000    0.000000 Ang=   0.00 deg.
 Initial guess <Sx>= 0.0000 <Sy>= 0.0000 <Sz>= 2.5000 <S**2>= 8.7621 S= 2.5020
 SCF Done:  E(UB3LYP) =  -3034.39816049     A.U. after    1 cycles
            NFock=  1  Conv=0.22D-08     -V/T= 2.0024
 <Sx>= 0.0000 <Sy>= 0.0000 <Sz>= 2.5000 <S**2>= 8.7621 S= 2.5020
 <L.S>= 0.000000000000E+00
 Annihilation of the first spin contaminant:
 S**2 before annihilation     8.7621,   after     8.7500
 1\1\GINC-HOLY7C08607\SP\UB3LYP\Jul-CC-pVDZ\C8H16Cl3Fe1O1(6)\EKWAN\11-F
 eb-2020\0\\#t pop=none jul-cc-pvdz guess=read ub3lyp empiricaldispersi
 on=gd3bj\\theory_abbreviation b3lyp_d3bj\\0,6\O,0,-0.316688,-0.158234,
 -0.463625\C,0,-1.174269,-1.113514,-0.254221\C,0,-2.6378,-0.290615,0.83
 2479\C,0,-3.0063,0.697349,-0.068048\C,0,-4.08021,0.481078,-1.081724\Fe
 ,0,1.518643,0.175633,-0.092999\Cl,0,1.839158,2.150083,-0.99107\C,0,-2.
 273102,1.983069,-0.117312\Cl,0,2.544255,-1.516047,-1.049749\Cl,0,1.796
 084,0.188966,2.095561\H,0,-3.300115,-1.155463,0.867089\H,0,-2.735507,2
 .711331,-0.786709\H,0,-2.12749,2.423258,0.873802\H,0,-1.259077,1.74788
 4,-0.493616\H,0,-4.906929,1.169189,-0.853284\H,0,-3.73665,0.744993,-2.
 089714\H,0,-4.473051,-0.537351,-1.081055\C,0,-1.971654,0.08342,2.14545
 7\H,0,-2.582269,0.822443,2.67679\H,0,-1.871772,-0.787155,2.795354\H,0,
 -0.976466,0.509802,2.00035\C,0,-0.75249,-2.201347,0.725419\H,0,-1.5803
 54,-2.85693,1.005582\H,0,0.000657,-2.798242,0.194626\H,0,-0.274363,-1.
 790396,1.61368\C,0,-1.824702,-1.654004,-1.51612\H,0,-1.075675,-2.29177
 3,-2.000782\H,0,-2.708533,-2.262536,-1.307785\H,0,-2.071904,-0.853294,
 -2.213544\\Version=ES64L-G16RevA.03\HF=-3034.3981605\S2=8.762073\S2-1=
 0.\S2A=8.750045\RMSD=2.228e-09\PG=C01 [X(C8H16Cl3Fe1O1)]\\@


 IF YOU GET CONFUSED, LOGIC OUT YOUR DILEMMA

           --  PICKER X-RAY CORP.    DIGITAL PRINTER MANUAL CA. 1964
 Job cpu time:       0 days  0 hours  4 minutes 34.6 seconds.
 Elapsed time:       0 days  0 hours  1 minutes  9.1 seconds.
 File lengths (MBytes):  RWF=    170 Int=      0 D2E=      0 Chk=     13 Scr=      1
 Normal termination of Gaussian 16 at Tue Feb 11 14:16:56 2020.
 Initial command:
 /n/sw/g16_nehalem/g16/l1.exe "/scratch/Gau-98680.inp" -scrdir="/scratch/"
 Entering Link 1 = /n/sw/g16_nehalem/g16/l1.exe PID=    103044.
  
 Copyright (c) 1988,1990,1992,1993,1995,1998,2003,2009,2016,
            Gaussian, Inc.  All Rights Reserved.
  
 This is part of the Gaussian(R) 16 program.  It is based on
 the Gaussian(R) 09 system (copyright 2009, Gaussian, Inc.),
 the Gaussian(R) 03 system (copyright 2003, Gaussian, Inc.),
 the Gaussian(R) 98 system (copyright 1998, Gaussian, Inc.),
 the Gaussian(R) 94 system (copyright 1995, Gaussian, Inc.),
 the Gaussian 92(TM) system (copyright 1992, Gaussian, Inc.),
 the Gaussian 90(TM) system (copyright 1990, Gaussian, Inc.),
 the Gaussian 88(TM) system (copyright 1988, Gaussian, Inc.),
 the Gaussian 86(TM) system (copyright 1986, Carnegie Mellon
 University), and the Gaussian 82(TM) system (copyright 1983,
 Carnegie Mellon University). Gaussian is a federally registered
 trademark of Gaussian, Inc.
  
 This software contains proprietary and confidential information,
 including trade secrets, belonging to Gaussian, Inc.
  
 This software is provided under written license and may be
 used, copied, transmitted, or stored only in accord with that
 written license.
  
 The following legend is applicable only to US Government
 contracts under FAR:
  
                    RESTRICTED RIGHTS LEGEND
  
 Use, reproduction and disclosure by the US Government is
 subject to restrictions as set forth in subparagraphs (a)
 and (c) of the Commercial Computer Software - Restricted
 Rights clause in FAR 52.227-19.
  
 Gaussian, Inc.
 340 Quinnipiac St., Bldg. 40, Wallingford CT 06492
  
  
 ---------------------------------------------------------------
 Warning -- This program may not be used in any manner that
 competes with the business of Gaussian, Inc. or will provide
 assistance to any competitor of Gaussian, Inc.  The licensee
 of this program is prohibited from giving any competitor of
 Gaussian, Inc. access to this program.  By using this program,
 the user acknowledges that Gaussian, Inc. is engaged in the
 business of creating and licensing software in the field of
 computational chemistry and represents and warrants to the
 licensee that it is not a competitor of Gaussian, Inc. and that
 it will not use this program in any manner prohibited above.
 ---------------------------------------------------------------
  

 Cite this work as:
 Gaussian 16, Revision A.03,
 M. J. Frisch, G. W. Trucks, H. B. Schlegel, G. E. Scuseria, 
 M. A. Robb, J. R. Cheeseman, G. Scalmani, V. Barone, 
 G. A. Petersson, H. Nakatsuji, X. Li, M. Caricato, A. V. Marenich, 
 J. Bloino, B. G. Janesko, R. Gomperts, B. Mennucci, H. P. Hratchian, 
 J. V. Ortiz, A. F. Izmaylov, J. L. Sonnenberg, D. Williams-Young, 
 F. Ding, F. Lipparini, F. Egidi, J. Goings, B. Peng, A. Petrone, 
 T. Henderson, D. Ranasinghe, V. G. Zakrzewski, J. Gao, N. Rega, 
 G. Zheng, W. Liang, M. Hada, M. Ehara, K. Toyota, R. Fukuda, 
 J. Hasegawa, M. Ishida, T. Nakajima, Y. Honda, O. Kitao, H. Nakai, 
 T. Vreven, K. Throssell, J. A. Montgomery, Jr., J. E. Peralta, 
 F. Ogliaro, M. J. Bearpark, J. J. Heyd, E. N. Brothers, K. N. Kudin, 
 V. N. Staroverov, T. A. Keith, R. Kobayashi, J. Normand, 
 K. Raghavachari, A. P. Rendell, J. C. Burant, S. S. Iyengar, 
 J. Tomasi, M. Cossi, J. M. Millam, M. Klene, C. Adamo, R. Cammi, 
 J. W. Ochterski, R. L. Martin, K. Morokuma, O. Farkas, 
 J. B. Foresman, and D. J. Fox, Gaussian, Inc., Wallingford CT, 2016.
 
 ******************************************
 Gaussian 16:  ES64L-G16RevA.03 25-Dec-2016
                11-Feb-2020 
 ******************************************
 %chk=checkpoint.chk
 %mem=3GB
 %nprocshared=4
 Will use up to    4 processors via shared memory.
 ----------------------------------------
 #t pop=none jul-cc-pvdz guess=read ub97d
 ----------------------------------------
 ------------------------
 theory_abbreviation b97d
 ------------------------
 Symbolic Z-matrix:
 Charge =  0 Multiplicity = 6
 O                    -0.31669  -0.15823  -0.46363 
 C                    -1.17427  -1.11351  -0.25422 
 C                    -2.6378   -0.29062   0.83248 
 C                    -3.0063    0.69735  -0.06805 
 C                    -4.08021   0.48108  -1.08172 
 Fe                    1.51864   0.17563  -0.093 
 Cl                    1.83916   2.15008  -0.99107 
 C                    -2.2731    1.98307  -0.11731 
 Cl                    2.54426  -1.51605  -1.04975 
 Cl                    1.79608   0.18897   2.09556 
 H                    -3.30011  -1.15546   0.86709 
 H                    -2.73551   2.71133  -0.78671 
 H                    -2.12749   2.42326   0.8738 
 H                    -1.25908   1.74788  -0.49362 
 H                    -4.90693   1.16919  -0.85328 
 H                    -3.73665   0.74499  -2.08971 
 H                    -4.47305  -0.53735  -1.08106 
 C                    -1.97165   0.08342   2.14546 
 H                    -2.58227   0.82244   2.67679 
 H                    -1.87177  -0.78716   2.79535 
 H                    -0.97647   0.5098    2.00035 
 C                    -0.75249  -2.20135   0.72542 
 H                    -1.58035  -2.85693   1.00558 
 H                     0.00066  -2.79824   0.19463 
 H                    -0.27436  -1.7904    1.61368 
 C                    -1.8247   -1.654    -1.51612 
 H                    -1.07567  -2.29177  -2.00078 
 H                    -2.70853  -2.26254  -1.30779 
 H                    -2.0719   -0.85329  -2.21354 
 
                    Distance matrix (angstroms):
                    1          2          3          4          5
     1  O    0.000000
     2  C    1.300713   0.000000
     3  C    2.661761   2.000001   0.000000
     4  C    2.850003   2.582677   1.386656   0.000000
     5  C    3.867152   3.416428   2.517981   1.492513   0.000000
     6  Fe   1.901912   2.989928   4.283680   4.554988   5.693683
     7  Cl   3.202218   4.502750   5.415302   5.142069   6.150830
     8  C    2.921073   3.288617   2.490933   1.480906   2.540021
     9  Cl   3.220589   3.823914   5.647846   6.055701   6.919037
    10  Cl   3.336733   4.005113   4.635159   5.291743   6.686651
    11  H    3.415568   2.403813   1.089872   2.096120   2.661707
    12  H    3.766892   4.165387   3.412183   2.155441   2.620933
    13  H    3.425174   3.832730   2.761744   2.153637   3.377760
    14  H    2.126566   2.872647   2.795511   2.082671   3.147929
    15  H    4.794184   4.416148   3.181473   2.109886   1.099612
    16  H    3.893087   3.659082   3.289250   2.150073   1.097146
    17  H    4.219041   3.449287   2.662825   2.168415   1.091569
    18  C    3.099132   2.797665   1.519067   2.519326   3.875414
    19  H    3.994595   3.784339   2.154870   2.780213   4.060392
    20  H    3.665347   3.145303   2.164770   3.419061   4.638679
    21  H    2.636807   2.785206   2.182801   2.904078   4.374155
    22  C    2.403760   1.523474   2.686401   3.756553   4.640570
    23  H    3.322406   2.188951   2.781030   3.977298   4.663521
    24  H    2.739278   2.102433   3.695471   4.618435   5.388551
    25  H    2.642147   2.181067   2.906106   4.059626   5.187414
    26  C    2.370481   1.519073   2.834762   3.003656   3.136015
    27  H    2.736951   2.109144   3.804239   4.049398   4.190537
    28  H    3.295697   2.187285   2.911049   3.222814   3.075714
    29  H    2.574123   2.170809   3.148826   2.807266   2.663617
                    6          7          8          9         10
     6  Fe   0.000000
     7  Cl   2.192650   0.000000
     8  C    4.200565   4.207378   0.000000
     9  Cl   2.197506   3.733780   6.026623   0.000000
    10  Cl   2.206116   3.657202   4.967282   3.655107   0.000000
    11  H    5.090581   6.386824   3.445894   6.161246   5.411828
    12  H    5.000879   4.613494   1.091914   6.768737   5.933390
    13  H    4.390992   4.391659   1.094201   6.406510   4.677520
    14  H    3.216861   3.163587   1.106871   5.042605   4.297449
    15  H    6.546233   6.818418   2.853261   7.922704   7.388295
    16  H    5.650588   5.854138   2.750486   6.756004   6.959658
    17  H    6.114327   6.861077   3.481536   7.085295   7.065443
    18  C    4.147452   5.350812   2.969791   5.758565   3.769546
    19  H    4.990749   5.896172   3.041323   6.755507   4.461961
    20  H    4.556803   6.060971   4.039657   5.900627   3.859494
    21  H    3.274042   4.423444   2.887260   5.079630   2.792675
    22  C    3.387903   5.347702   4.531202   3.806492   3.753147
    23  H    4.472930   6.383562   5.016611   4.799453   4.676096
    24  H    3.351260   5.410349   5.303604   3.108438   3.969953
    25  H    3.161154   5.174850   4.607638   3.887638   2.904623
    26  C    4.068268   5.307601   3.922503   4.395944   5.436071
    27  H    4.056872   5.407944   4.822402   3.822317   5.584003
    28  H    5.028856   6.344526   4.430800   5.311837   6.155014
    29  H    4.295047   5.080465   3.532651   4.806515   5.883538
                   11         12         13         14         15
    11  H    0.000000
    12  H    4.243339   0.000000
    13  H    3.765945   1.791638   0.000000
    14  H    3.800892   1.787171   1.755022   0.000000
    15  H    3.308405   2.664152   3.504397   3.710940   0.000000
    16  H    3.541889   2.562537   3.766749   3.113147   1.754495
    17  H    2.356503   3.695894   4.253037   3.987106   1.775502
    18  C    2.221230   4.010858   2.667627   3.200455   4.334418
    19  H    2.775326   3.948063   2.453609   3.557914   4.240955
    20  H    2.427760   5.081006   3.750267   4.197516   5.133422
    21  H    3.075180   3.963414   2.501056   2.798675   4.901689
    22  C    2.757596   5.509382   4.826967   4.164025   5.577829
    23  H    2.423169   5.962568   5.310095   4.853362   5.543565
    24  H    3.747803   6.229366   5.679292   4.767375   6.397111
    25  H    3.180521   5.664331   4.662229   4.234358   6.025423
    26  C    2.846941   4.518601   4.735765   3.596983   4.232008
    27  H    3.803159   5.409257   5.621482   4.315555   5.289000
    28  H    2.511107   5.001160   5.201307   4.341343   4.100762
    29  H    3.330181   3.896508   4.502287   3.222571   3.738731
                   16         17         18         19         20
    16  H    0.000000
    17  H    1.789996   0.000000
    18  C    4.635684   4.129494   0.000000
    19  H    4.904911   4.421029   1.096048   0.000000
    20  H    5.448774   4.674997   1.090983   1.763425   0.000000
    21  H    4.939894   4.776787   1.092363   1.770288   1.765135
    22  C    5.050852   4.458117   2.953477   4.037232   2.745426
    23  H    5.215776   4.254668   3.177749   4.163479   2.751759
    24  H    5.633843   5.172335   3.999966   5.093329   3.783417
    25  H    5.668400   5.143996   2.583558   3.644662   2.225884
    26  C    3.120856   2.906879   4.055537   4.928204   4.398005
[...]
 ---------------------------------------------------------------------
 Rotational constants (GHZ):           0.5980641           0.3083625           0.2948453
   427 basis functions,  1056 primitive gaussians,   461 cartesian basis functions
    77 alpha electrons       72 beta electrons
       nuclear repulsion energy      1626.8030061897 Hartrees.
 NAtoms=   29 NActive=   29 NUniq=   29 SFac= 1.00D+00 NAtFMM=   60 NAOKFM=F Big=F
 Nuclear repulsion after empirical dispersion term =     1626.8005600219 Hartrees.
 Initial guess from the checkpoint file:  "checkpoint.chk"
 B after Tr=     0.000000    0.000000    0.000000
         Rot=    1.000000    0.000000    0.000000    0.000000 Ang=   0.00 deg.
 Initial guess <Sx>= 0.0000 <Sy>= 0.0000 <Sz>= 2.5000 <S**2>= 8.7618 S= 2.5020
 SCF Done:  E(UM06L) =  -3034.19593447     A.U. after   16 cycles
            NFock= 16  Conv=0.92D-08     -V/T= 2.0020
 <Sx>= 0.0000 <Sy>= 0.0000 <Sz>= 2.5000 <S**2>= 8.7619 S= 2.5020
 <L.S>= 0.000000000000E+00
 Annihilation of the first spin contaminant:
 S**2 before annihilation     8.7619,   after     8.7500
 1\1\GINC-HOLY7C08607\SP\UM06L\Jul-CC-pVDZ\C8H16Cl3Fe1O1(6)\EKWAN\11-Fe
 b-2020\0\\#t pop=none jul-cc-pvdz guess=read um06l empiricaldispersion
 =gd3\\theory_abbreviation m06l_d3\\0,6\O,0,-0.316688,-0.158234,-0.4636
 25\C,0,-1.174269,-1.113514,-0.254221\C,0,-2.6378,-0.290615,0.832479\C,
 0,-3.0063,0.697349,-0.068048\C,0,-4.08021,0.481078,-1.081724\Fe,0,1.51
 8643,0.175633,-0.092999\Cl,0,1.839158,2.150083,-0.99107\C,0,-2.273102,
 1.983069,-0.117312\Cl,0,2.544255,-1.516047,-1.049749\Cl,0,1.796084,0.1
 88966,2.095561\H,0,-3.300115,-1.155463,0.867089\H,0,-2.735507,2.711331
 ,-0.786709\H,0,-2.12749,2.423258,0.873802\H,0,-1.259077,1.747884,-0.49
 3616\H,0,-4.906929,1.169189,-0.853284\H,0,-3.73665,0.744993,-2.089714\
 H,0,-4.473051,-0.537351,-1.081055\C,0,-1.971654,0.08342,2.145457\H,0,-
 2.582269,0.822443,2.67679\H,0,-1.871772,-0.787155,2.795354\H,0,-0.9764
 66,0.509802,2.00035\C,0,-0.75249,-2.201347,0.725419\H,0,-1.580354,-2.8
 5693,1.005582\H,0,0.000657,-2.798242,0.194626\H,0,-0.274363,-1.790396,
 1.61368\C,0,-1.824702,-1.654004,-1.51612\H,0,-1.075675,-2.291773,-2.00
 0782\H,0,-2.708533,-2.262536,-1.307785\H,0,-2.071904,-0.853294,-2.2135
 44\\Version=ES64L-G16RevA.03\HF=-3034.1959345\S2=8.761884\S2-1=0.\S2A=
 8.750045\RMSD=9.230e-09\PG=C01 [X(C8H16Cl3Fe1O1)]\\@


 Sometimes the fool who rushes in gets the job done.
                                    -- Al Bernstein
 Job cpu time:       0 days  1 hours  9 minutes 21.8 seconds.
 Elapsed time:       0 days  0 hours 17 minutes 23.4 seconds.
 File lengths (MBytes):  RWF=    174 Int=      0 D2E=      0 Chk=     13 Scr=      1
 Normal termination of Gaussian 16 at Tue Feb 11 23:39:47 2020.
 Initial command:
 /n/sw/g16_nehalem/g16/l1.exe "/scratch/Gau-98680.inp" -scrdir="/scratch/"
 Entering Link 1 = /n/sw/g16_nehalem/g16/l1.exe PID=    153250.
  
 Copyright (c) 1988,1990,1992,1993,1995,1998,2003,2009,2016,
            Gaussian, Inc.  All Rights Reserved.
  
 This is part of the Gaussian(R) 16 program.  It is based on
 the Gaussian(R) 09 system (copyright 2009, Gaussian, Inc.),
 the Gaussian(R) 03 system (copyright 2003, Gaussian, Inc.),
 the Gaussian(R) 98 system (copyright 1998, Gaussian, Inc.),
 the Gaussian(R) 94 system (copyright 1995, Gaussian, Inc.),
 the Gaussian 92(TM) system (copyright 1992, Gaussian, Inc.),
 the Gaussian 90(TM) system (copyright 1990, Gaussian, Inc.),
 the Gaussian 88(TM) system (copyright 1988, Gaussian, Inc.),
 the Gaussian 86(TM) system (copyright 1986, Carnegie Mellon
 University), and the Gaussian 82(TM) system (copyright 1983,
 Carnegie Mellon University). Gaussian is a federally registered
 trademark of Gaussian, Inc.
  
 This software contains proprietary and confidential information,
 including trade secrets, belonging to Gaussian, Inc.
  
 This software is provided under written license and may be
 used, copied, transmitted, or stored only in accord with that
 written license.
  
 The following legend is applicable only to US Government
 contracts under FAR:
  
                    RESTRICTED RIGHTS LEGEND
  
 Use, reproduction and disclosure by the US Government is
 subject to restrictions as set forth in subparagraphs (a)
 and (c) of the Commercial Computer Software - Restricted
 Rights clause in FAR 52.227-19.
  
 Gaussian, Inc.
 340 Quinnipiac St., Bldg. 40, Wallingford CT 06492
  
  
 ---------------------------------------------------------------
 Warning -- This program may not be used in any manner that
 competes with the business of Gaussian, Inc. or will provide
 assistance to any competitor of Gaussian, Inc.  The licensee
 of this program is prohibited from giving any competitor of
 Gaussian, Inc. access to this program.  By using this program,
 the user acknowledges that Gaussian, Inc. is engaged in the
 business of creating and licensing software in the field of
 computational chemistry and represents and warrants to the
 licensee that it is not a competitor of Gaussian, Inc. and that
 it will not use this program in any manner prohibited above.
 ---------------------------------------------------------------
  

 Cite this work as:
 Gaussian 16, Revision A.03,
 M. J. Frisch, G. W. Trucks, H. B. Schlegel, G. E. Scuseria, 
 M. A. Robb, J. R. Cheeseman, G. Scalmani, V. Barone, 
 G. A. Petersson, H. Nakatsuji, X. Li, M. Caricato, A. V. Marenich, 
 J. Bloino, B. G. Janesko, R. Gomperts, B. Mennucci, H. P. Hratchian, 
 J. V. Ortiz, A. F. Izmaylov, J. L. Sonnenberg, D. Williams-Young, 
 F. Ding, F. Lipparini, F. Egidi, J. Goings, B. Peng, A. Petrone, 
 T. Henderson, D. Ranasinghe, V. G. Zakrzewski, J. Gao, N. Rega, 
 G. Zheng, W. Liang, M. Hada, M. Ehara, K. Toyota, R. Fukuda, 
 J. Hasegawa, M. Ishida, T. Nakajima, Y. Honda, O. Kitao, H. Nakai, 
 T. Vreven, K. Throssell, J. A. Montgomery, Jr., J. E. Peralta, 
 F. Ogliaro, M. J. Bearpark, J. J. Heyd, E. N. Brothers, K. N. Kudin, 
 V. N. Staroverov, T. A. Keith, R. Kobayashi, J. Normand, 
 K. Raghavachari, A. P. Rendell, J. C. Burant, S. S. Iyengar, 
 J. Tomasi, M. Cossi, J. M. Millam, M. Klene, C. Adamo, R. Cammi, 
 J. W. Ochterski, R. L. Martin, K. Morokuma, O. Farkas, 
 J. B. Foresman, and D. J. Fox, Gaussian, Inc., Wallingford CT, 2016.
 
 ******************************************
 Gaussian 16:  ES64L-G16RevA.03 25-Dec-2016
                11-Feb-2020 
 ******************************************
 %chk=checkpoint.chk
 %mem=3GB
 %nprocshared=4
 Will use up to    4 processors via shared memory.
 -------------------------------------------------------------------
 #t pop=none jul-cc-pvdz guess=read ub97d3 empiricaldispersion=gd3bj
 -------------------------------------------------------------------
 ------------------------------
 theory_abbreviation b97d3_d3bj
 ------------------------------
 Symbolic Z-matrix:
 Charge =  0 Multiplicity = 6
 O                    -0.31669  -0.15823  -0.46363 
 C                    -1.17427  -1.11351  -0.25422 
 C                    -2.6378   -0.29062   0.83248 
 C                    -3.0063    0.69735  -0.06805 
 C                    -4.08021   0.48108  -1.08172 
 Fe                    1.51864   0.17563  -0.093 
 Cl                    1.83916   2.15008  -0.99107 
 C                    -2.2731    1.98307  -0.11731 
 Cl                    2.54426  -1.51605  -1.04975 
 Cl                    1.79608   0.18897   2.09556 
 H                    -3.30011  -1.15546   0.86709 
 H                    -2.73551   2.71133  -0.78671 
 H                    -2.12749   2.42326   0.8738 
 H                    -1.25908   1.74788  -0.49362 
 H                    -4.90693   1.16919  -0.85328 
 H                    -3.73665   0.74499  -2.08971 
 H                    -4.47305  -0.53735  -1.08106 
 C                    -1.97165   0.08342   2.14546 
 H                    -2.58227   0.82244   2.67679 
 H                    -1.87177  -0.78716   2.79535 
 H                    -0.97647   0.5098    2.00035 
 C                    -0.75249  -2.20135   0.72542 
 H                    -1.58035  -2.85693   1.00558 
 H                     0.00066  -2.79824   0.19463 
 H                    -0.27436  -1.7904    1.61368 
 C                    -1.8247   -1.654    -1.51612 
 H                    -1.07567  -2.29177  -2.00078 
 H                    -2.70853  -2.26254  -1.30779 
 H                    -2.0719   -0.85329  -2.21354 
 
                    Distance matrix (angstroms):
                    1          2          3          4          5
     1  O    0.000000
     2  C    1.300713   0.000000
     3  C    2.661761   2.000001   0.000000
     4  C    2.850003   2.582677   1.386656   0.000000
     5  C    3.867152   3.416428   2.517981   1.492513   0.000000
     6  Fe   1.901912   2.989928   4.283680   4.554988   5.693683
     7  Cl   3.202218   4.502750   5.415302   5.142069   6.150830
     8  C    2.921073   3.288617   2.490933   1.480906   2.540021
     9  Cl   3.220589   3.823914   5.647846   6.055701   6.919037
    10  Cl   3.336733   4.005113   4.635159   5.291743   6.686651
    11  H    3.415568   2.403813   1.089872   2.096120   2.661707
    12  H    3.766892   4.165387   3.412183   2.155441   2.620933
    13  H    3.425174   3.832730   2.761744   2.153637   3.377760
    14  H    2.126566   2.872647   2.795511   2.082671   3.147929
    15  H    4.794184   4.416148   3.181473   2.109886   1.099612
    16  H    3.893087   3.659082   3.289250   2.150073   1.097146
    17  H    4.219041   3.449287   2.662825   2.168415   1.091569
    18  C    3.099132   2.797665   1.519067   2.519326   3.875414
    19  H    3.994595   3.784339   2.154870   2.780213   4.060392
    20  H    3.665347   3.145303   2.164770   3.419061   4.638679
    21  H    2.636807   2.785206   2.182801   2.904078   4.374155
    22  C    2.403760   1.523474   2.686401   3.756553   4.640570
    23  H    3.322406   2.188951   2.781030   3.977298   4.663521
    24  H    2.739278   2.102433   3.695471   4.618435   5.388551
    25  H    2.642147   2.181067   2.906106   4.059626   5.187414
    26  C    2.370481   1.519073   2.834762   3.003656   3.136015
    27  H    2.736951   2.109144   3.804239   4.049398   4.190537
    28  H    3.295697   2.187285   2.911049   3.222814   3.075714
    29  H    2.574123   2.170809   3.148826   2.807266   2.663617
                    6          7          8          9         10
     6  Fe   0.000000
     7  Cl   2.192650   0.000000
     8  C    4.200565   4.207378   0.000000
     9  Cl   2.197506   3.733780   6.026623   0.000000
    10  Cl   2.206116   3.657202   4.967282   3.655107   0.000000
    11  H    5.090581   6.386824   3.445894   6.161246   5.411828
    12  H    5.000879   4.613494   1.091914   6.768737   5.933390
    13  H    4.390992   4.391659   1.094201   6.406510   4.677520
    14  H    3.216861   3.163587   1.106871   5.042605   4.297449
    15  H    6.546233   6.818418   2.853261   7.922704   7.388295
    16  H    5.650588   5.854138   2.750486   6.756004   6.959658
    17  H    6.114327   6.861077   3.481536   7.085295   7.065443
    18  C    4.147452   5.350812   2.969791   5.758565   3.769546
    19  H    4.990749   5.896172   3.041323   6.755507   4.461961
    20  H    4.556803   6.060971   4.039657   5.900627   3.859494
    21  H    3.274042   4.423444   2.887260   5.079630   2.792675
    22  C    3.387903   5.347702   4.531202   3.806492   3.753147
    23  H    4.472930   6.383562   5.016611   4.799453   4.676096
    24  H    3.351260   5.410349   5.303604   3.108438   3.969953
    25  H    3.161154   5.174850   4.607638   3.887638   2.904623
    26  C    4.068268   5.307601   3.922503   4.395944   5.436071
    27  H    4.056872   5.407944   4.822402   3.822317   5.584003
    28  H    5.028856   6.344526   4.430800   5.311837   6.155014
    29  H    4.295047   5.080465   3.532651   4.806515   5.883538
                   11         12         13         14         15
    11  H    0.000000
    12  H    4.243339   0.000000
    13  H    3.765945   1.791638   0.000000
    14  H    3.800892   1.787171   1.755022   0.000000
    15  H    3.308405   2.664152   3.504397   3.710940   0.000000
    16  H    3.541889   2.562537   3.766749   3.113147   1.754495
    17  H    2.356503   3.695894   4.253037   3.987106   1.775502
    18  C    2.221230   4.010858   2.667627   3.200455   4.334418
    19  H    2.775326   3.948063   2.453609   3.557914   4.240955
    20  H    2.427760   5.081006   3.750267   4.197516   5.133422
    21  H    3.075180   3.963414   2.501056   2.798675   4.901689
    22  C    2.757596   5.509382   4.826967   4.164025   5.577829
    23  H    2.423169   5.962568   5.310095   4.853362   5.543565
    24  H    3.747803   6.229366   5.679292   4.767375   6.397111
    25  H    3.180521   5.664331   4.662229   4.234358   6.025423
    26  C    2.846941   4.518601   4.735765   3.596983   4.232008
    27  H    3.803159   5.409257   5.621482   4.315555   5.289000
    28  H    2.511107   5.001160   5.201307   4.341343   4.100762
    29  H    3.330181   3.896508   4.502287   3.222571   3.738731
                   16         17         18         19         20
    16  H    0.000000
    17  H    1.789996   0.000000
    18  C    4.635684   4.129494   0.000000
    19  H    4.904911   4.421029   1.096048   0.000000
    20  H    5.448774   4.674997   1.090983   1.763425   0.000000
    21  H    4.939894   4.776787   1.092363   1.770288   1.765135
    22  C    5.050852   4.458117   2.953477   4.037232   2.745426
    23  H    5.215776   4.254668   3.177749   4.163479   2.751759
    24  H    5.633843   5.172335   3.999966   5.093329   3.783417
    25  H    5.668400   5.143996   2.583558   3.644662   2.225884
    26  C    3.120856   2.906879   4.055537   4.928204   4.398005
    27  H    4.038644   3.932691   4.861648   5.817890   5.089260
    28  H    3.273174   2.478143   4.239267   5.040821   4.439895
    29  H    2.311111   2.673548   4.459638   5.194606   5.013331
                   21         22         23         24         25
    21  H    0.000000
    22  C    3.004321   0.000000
    23  H    3.562180   1.092538   0.000000
    24  H    3.893400   1.097841   1.777833   0.000000
    25  H    2.435852   1.089263   1.792454   1.762130   0.000000
    26  C    4.215106   2.544351   2.804589   2.750976   3.495397
    27  H    4.885460   2.746779   3.100375   2.496962   3.736016
    28  H    4.650771   2.822015   2.641545   3.143872   3.831848
    29  H    4.562337   3.492220   3.823474   3.725267   4.330930
                   26         27         28         29
    26  C    0.000000
    27  H    1.096671   0.000000
    28  H    1.093102   1.774070   0.000000
    29  H    1.090250   1.762658   1.792110   0.000000
 Framework group  C1[X(C8H16Cl3FeO)]
 Deg. of freedom    81
                         Standard orientation:                         
 ---------------------------------------------------------------------
 Center     Atomic      Atomic             Coordinates (Angstroms)
 Number     Number       Type             X           Y           Z
 ---------------------------------------------------------------------
      1          8           0       -0.316688   -0.158234   -0.463625
      2          6           0       -1.174269   -1.113514   -0.254221
      3          6           0       -2.637800   -0.290615    0.832479
      4          6           0       -3.006300    0.697349   -0.068048
      5          6           0       -4.080210    0.481078   -1.081724
      6         26           0        1.518643    0.175633   -0.092999
      7         17           0        1.839158    2.150083   -0.991070
      8          6           0       -2.273102    1.983069   -0.117312
      9         17           0        2.544255   -1.516047   -1.049749
     10         17           0        1.796084    0.188966    2.095561
     11          1           0       -3.300115   -1.155463    0.867089
     12          1           0       -2.735507    2.711331   -0.786709
     13          1           0       -2.127490    2.423258    0.873802
     14          1           0       -1.259077    1.747884   -0.493616
     15          1           0       -4.906929    1.169189   -0.853284
     16          1           0       -3.736650    0.744993   -2.089714
     17          1           0       -4.473051   -0.537351   -1.081055
     18          6           0       -1.971654    0.083420    2.145457
     19          1           0       -2.582269    0.822443    2.676790
     20          1           0       -1.871772   -0.787155    2.795354
     21          1           0       -0.976466    0.509802    2.000350
     22          6           0       -0.752490   -2.201347    0.725419
     23          1           0       -1.580354   -2.856930    1.005582
     24          1           0        0.000657   -2.798242    0.194626
     25          1           0       -0.274363   -1.790396    1.613680
     26          6           0       -1.824702   -1.654004   -1.516120
     27          1           0       -1.075675   -2.291773   -2.000782
     28          1           0       -2.708533   -2.262536   -1.307785
     29          1           0       -2.071904   -0.853294   -2.213544
 ---------------------------------------------------------------------
 Rotational constants (GHZ):           0.5980641           0.3083625           0.2948453
   427 basis functions,  1056 primitive gaussians,   461 cartesian basis functions
    77 alpha electrons       72 beta electrons
       nuclear repulsion energy      1626.8030061897 Hartrees.
 NAtoms=   29 NActive=   29 NUniq=   29 SFac= 1.00D+00 NAtFMM=   60 NAOKFM=F Big=F
 Nuclear repulsion after empirical dispersion term =     1626.7035933801 Hartrees.
 Initial guess from the checkpoint file:  "checkpoint.chk"
 B after Tr=     0.000000    0.000000    0.000000
         Rot=    1.000000    0.000000    0.000000    0.000000 Ang=   0.00 deg.
 Initial guess <Sx>= 0.0000 <Sy>= 0.0000 <Sz>= 2.5000 <S**2>= 8.7619 S= 2.5020
 EnCoef did     3 forward-backward iterations
 SCF Done:  E(UB97D3) =  -3034.61851779     A.U. after   17 cycles
            NFock= 17  Conv=0.39D-08     -V/T= 2.0019
 <Sx>= 0.0000 <Sy>= 0.0000 <Sz>= 2.5000 <S**2>= 8.7601 S= 2.5017
 <L.S>= 0.000000000000E+00
 Annihilation of the first spin contaminant:
 S**2 before annihilation     8.7601,   after     8.7500
 1\1\GINC-HOLY7C08607\SP\UB97D3\Jul-CC-pVDZ\C8H16Cl3Fe1O1(6)\EKWAN\11-F
 eb-2020\0\\#t pop=none jul-cc-pvdz guess=read ub97d3 empiricaldispersi
 on=gd3bj\\theory_abbreviation b97d3_d3bj\\0,6\O,0,-0.316688,-0.158234,
 -0.463625\C,0,-1.174269,-1.113514,-0.254221\C,0,-2.6378,-0.290615,0.83
 2479\C,0,-3.0063,0.697349,-0.068048\C,0,-4.08021,0.481078,-1.081724\Fe
 ,0,1.518643,0.175633,-0.092999\Cl,0,1.839158,2.150083,-0.99107\C,0,-2.
 273102,1.983069,-0.117312\Cl,0,2.544255,-1.516047,-1.049749\Cl,0,1.796
 084,0.188966,2.095561\H,0,-3.300115,-1.155463,0.867089\H,0,-2.735507,2
 .711331,-0.786709\H,0,-2.12749,2.423258,0.873802\H,0,-1.259077,1.74788
 4,-0.493616\H,0,-4.906929,1.169189,-0.853284\H,0,-3.73665,0.744993,-2.
 089714\H,0,-4.473051,-0.537351,-1.081055\C,0,-1.971654,0.08342,2.14545
 7\H,0,-2.582269,0.822443,2.67679\H,0,-1.871772,-0.787155,2.795354\H,0,
 -0.976466,0.509802,2.00035\C,0,-0.75249,-2.201347,0.725419\H,0,-1.5803
 54,-2.85693,1.005582\H,0,0.000657,-2.798242,0.194626\H,0,-0.274363,-1.
 790396,1.61368\C,0,-1.824702,-1.654004,-1.51612\H,0,-1.075675,-2.29177
 3,-2.000782\H,0,-2.708533,-2.262536,-1.307785\H,0,-2.071904,-0.853294,
 -2.213544\\Version=ES64L-G16RevA.03\HF=-3034.6185178\S2=8.760093\S2-1=
 0.\S2A=8.750032\RMSD=3.911e-09\PG=C01 [X(C8H16Cl3Fe1O1)]\\@


 HO!  SUCH BUGS AND GOBLINS IN MY LIFE!

                            -- HAMLET, ACT 5, SCENE 2
 Job cpu time:       0 days  0 hours 52 minutes 41.5 seconds.
 Elapsed time:       0 days  0 hours 13 minutes 12.6 seconds.
 File lengths (MBytes):  RWF=    174 Int=      0 D2E=      0 Chk=     13 Scr=      1
 Normal termination of Gaussian 16 at Tue Feb 11 23:53:01 2020.
