 Entering Gaussian System, Link 0=g16
 Input=simple-grid-165-240-b3lyp_d3bj-631gd-gas-singlepoint-DFT-juldz2-gas.gjf
 Output=simple-grid-165-240-b3lyp_d3bj-631gd-gas-singlepoint-DFT-juldz2-gas.out
 Initial command:
 /n/sw/g16_nehalem/g16/l1.exe "/scratch/Gau-359382.inp" -scrdir="/scratch/"
 Entering Link 1 = /n/sw/g16_nehalem/g16/l1.exe PID=    359404.
  
 Copyright (c) 1988,1990,1992,1993,1995,1998,2003,2009,2016,
            Gaussian, Inc.  All Rights Reserved.
  
 This is part of the Gaussian(R) 16 program.  It is based on
 the Gaussian(R) 09 system (copyright 2009, Gaussian, Inc.),
 the Gaussian(R) 03 system (copyright 2003, Gaussian, Inc.),
 the Gaussian(R) 98 system (copyright 1998, Gaussian, Inc.),
 the Gaussian(R) 94 system (copyright 1995, Gaussian, Inc.),
 the Gaussian 92(TM) system (copyright 1992, Gaussian, Inc.),
 the Gaussian 90(TM) system (copyright 1990, Gaussian, Inc.),
 the Gaussian 88(TM) system (copyright 1988, Gaussian, Inc.),
 the Gaussian 86(TM) system (copyright 1986, Carnegie Mellon
 University), and the Gaussian 82(TM) system (copyright 1983,
 Carnegie Mellon University). Gaussian is a federally registered
 trademark of Gaussian, Inc.
  
 This software contains proprietary and confidential information,
 including trade secrets, belonging to Gaussian, Inc.
  
 This software is provided under written license and may be
 used, copied, transmitted, or stored only in accord with that
 written license.
  
 The following legend is applicable only to US Government
 contracts under FAR:
  
                    RESTRICTED RIGHTS LEGEND
  
 Use, reproduction and disclosure by the US Government is
 subject to restrictions as set forth in subparagraphs (a)
 and (c) of the Commercial Computer Software - Restricted
 Rights clause in FAR 52.227-19.
  
 Gaussian, Inc.
 340 Quinnipiac St., Bldg. 40, Wallingford CT 06492
  
  
 ---------------------------------------------------------------
 Warning -- This program may not be used in any manner that
 competes with the business of Gaussian, Inc. or will provide
 assistance to any competitor of Gaussian, Inc.  The licensee
 of this program is prohibited from giving any competitor of
 Gaussian, Inc. access to this program.  By using this program,
 the user acknowledges that Gaussian, Inc. is engaged in the
 business of creating and licensing software in the field of
 computational chemistry and represents and warrants to the
 licensee that it is not a competitor of Gaussian, Inc. and that
 it will not use this program in any manner prohibited above.
 ---------------------------------------------------------------
  

 Cite this work as:
 Gaussian 16, Revision A.03,
 M. J. Frisch, G. W. Trucks, H. B. Schlegel, G. E. Scuseria, 
 M. A. Robb, J. R. Cheeseman, G. Scalmani, V. Barone, 
 G. A. Petersson, H. Nakatsuji, X. Li, M. Caricato, A. V. Marenich, 
 J. Bloino, B. G. Janesko, R. Gomperts, B. Mennucci, H. P. Hratchian, 
 J. V. Ortiz, A. F. Izmaylov, J. L. Sonnenberg, D. Williams-Young, 
 F. Ding, F. Lipparini, F. Egidi, J. Goings, B. Peng, A. Petrone, 
 T. Henderson, D. Ranasinghe, V. G. Zakrzewski, J. Gao, N. Rega, 
 G. Zheng, W. Liang, M. Hada, M. Ehara, K. Toyota, R. Fukuda, 
 J. Hasegawa, M. Ishida, T. Nakajima, Y. Honda, O. Kitao, H. Nakai, 
 T. Vreven, K. Throssell, J. A. Montgomery, Jr., J. E. Peralta, 
 F. Ogliaro, M. J. Bearpark, J. J. Heyd, E. N. Brothers, K. N. Kudin, 
 V. N. Staroverov, T. A. Keith, R. Kobayashi, J. Normand, 
 K. Raghavachari, A. P. Rendell, J. C. Burant, S. S. Iyengar, 
 J. Tomasi, M. Cossi, J. M. Millam, M. Klene, C. Adamo, R. Cammi, 
 J. W. Ochterski, R. L. Martin, K. Morokuma, O. Farkas, 
 J. B. Foresman, and D. J. Fox, Gaussian, Inc., Wallingford CT, 2016.
 
 ******************************************
 Gaussian 16:  ES64L-G16RevA.03 25-Dec-2016
                11-Feb-2020 
 ******************************************
 %chk=checkpoint.chk
 %mem=3GB
 %nprocshared=4
 Will use up to    4 processors via shared memory.
 --------------------------------
 #t pop=none jul-cc-pvdz upbe1pbe
 --------------------------------
 ------------------------
 theory_abbreviation pbe0
 ------------------------
 Symbolic Z-matrix:
 Charge =  0 Multiplicity = 6
 O                    -0.27992  -0.38661  -0.7036 
 C                    -1.41127  -1.20584  -0.48913 
 C                    -2.64737  -0.20059  -0.06011 
 C                    -2.06013   1.15492  -0.24035 
 C                    -1.92733   1.74818  -1.57838 
 Fe                    1.35668   0.02149   0.0038 
 Cl                    1.66988   2.07612  -0.81481 
 C                    -1.63283   1.95109   0.90812 
 Cl                    2.84816  -1.50041  -0.50714 
 Cl                    1.03239   0.1847    2.23146 
 H                    -3.41708  -0.32603  -0.83069 
 H                    -2.45166   2.03761   1.63421 
 H                    -0.84673   1.38561   1.45047 
 H                    -1.23666   2.92869   0.63456 
 H                    -2.53673   2.66613  -1.60037 
 H                    -0.883     2.0762   -1.70238 
 H                    -2.22186   1.08428  -2.38938 
 C                    -3.25921  -0.46195   1.3171 
 H                    -4.07178   0.24396   1.52343 
 H                    -3.68572  -1.46711   1.3479 
 H                    -2.52323  -0.38597   2.12073 
 C                    -1.11955  -2.24887   0.58654 
 H                    -1.96237  -2.92862   0.74397 
 H                    -0.26424  -2.839     0.23925 
 H                    -0.838    -1.78909   1.5352 
 C                    -1.76506  -1.88695  -1.8117 
 H                    -0.92265  -2.51456  -2.11783 
 H                    -2.65742  -2.51514  -1.71175 
 H                    -1.93613  -1.1497   -2.60163 
 
                    Distance matrix (angstroms):
                    1          2          3          4          5
     1  O    0.000000
     2  C    1.413186   0.000000
     3  C    2.460383   1.650001   0.000000
     4  C    2.400009   2.460906   1.488197   0.000000
     5  C    2.834877   3.190453   2.573186   1.469669   0.000000
     6  Fe   1.829054   3.067720   4.010710   3.608162   4.033547
     7  Cl   3.143107   4.513404   4.938782   3.884786   3.691955
     8  C    3.145287   3.459416   2.568358   1.461317   2.512088
     9  Cl   3.326269   4.269650   5.664823   5.586883   5.874204
    10  Cl   3.265449   3.912380   4.352051   4.076126   5.071420
    11  H    3.140313   2.216745   1.096348   2.093567   2.660964
    12  H    4.007328   4.013841   2.813993   2.108655   3.267943
    13  H    2.846413   3.285783   2.835521   2.093899   3.236214
    14  H    3.700981   4.288065   3.502150   2.142392   2.601489
    15  H    3.900847   4.182540   3.256182   2.088201   1.102037
    16  H    2.725196   3.538759   3.315690   2.090916   1.101638
    17  H    2.962514   3.084257   2.693962   2.156263   1.088675
    18  C    3.600708   2.688999   1.529502   2.545134   3.878451
    19  H    4.442468   3.637392   2.175820   2.826219   4.059874
    20  H    4.120147   2.935309   2.159801   3.469884   4.689680
    21  H    3.606843   2.952967   2.192223   2.857181   4.311972
    22  C    2.416082   1.526462   2.635874   3.626869   4.616902
    23  H    3.374602   2.189118   2.925395   4.201634   5.221783
    24  H    2.627435   2.124484   3.567927   4.405288   5.206903
    25  H    2.700118   2.183287   2.888280   3.648745   4.836663
    26  C    2.384226   1.529138   2.586565   3.436441   3.646217
    27  H    2.634640   2.145737   3.544480   4.275965   4.412637
    28  H    3.346563   2.182187   2.843437   3.998882   4.327430
    29  H    2.632082   2.177451   2.804636   3.301859   3.073239
                    6          7          8          9         10
     6  Fe   0.000000
     7  Cl   2.233765   0.000000
     8  C    3.671278   3.727194   0.000000
     9  Cl   2.191296   3.778174   5.830531   0.000000
    10  Cl   2.257046   3.641920   3.460451   3.692775   0.000000
    11  H    4.858592   5.625630   3.375242   6.382561   5.425435
    12  H    4.607215   4.794401   1.097811   6.722434   3.991060
    13  H    2.967941   3.455657   1.109889   5.080708   2.362882
    14  H    3.946527   3.357902   1.089724   6.132392   3.902326
    15  H    4.972538   4.319813   2.760587   6.895819   5.794740
    16  H    3.485550   2.702774   2.718934   5.304936   4.766716
    17  H    4.434275   4.313775   3.460026   5.994048   5.722894
    18  C    4.823375   5.939930   2.938560   6.458042   4.435320
    19  H    5.641540   6.464583   3.039964   7.419684   5.153385
    20  H    5.426633   6.776002   4.011463   6.792196   5.076391
    21  H    4.438597   5.679915   2.779401   6.082730   3.602830
    22  C    3.409669   5.333873   4.243406   4.183188   3.641274
    23  H    4.501903   6.377340   4.893577   5.171682   4.568807
    24  H    3.296245   5.386114   5.026463   3.469288   3.846160
    25  H    3.231099   5.172216   3.874777   4.224011   2.806954
    26  C    4.084541   5.338400   4.705888   4.809693   5.335224
    27  H    4.016002   5.430788   5.440842   4.223963   5.479468
    28  H    5.048824   6.372571   5.278317   5.726448   6.037611
    29  H    4.359199   5.157710   4.693101   5.234444   5.826795
                   11         12         13         14         15
    11  H    0.000000
    12  H    3.548880   0.000000
    13  H    3.839283   1.742031   0.000000
    14  H    4.182630   1.808196   1.788532   0.000000
    15  H    3.212548   3.296181   3.715298   2.598850   0.000000
    16  H    3.598904   3.687147   3.227797   2.512589   1.758763
    17  H    2.418066   4.141365   4.089766   3.676498   1.795526
    18  C    2.157867   2.645842   3.041605   4.006624   4.338030
    19  H    2.509066   2.419550   3.421939   4.004472   4.240452
    20  H    2.473955   3.726649   4.025970   5.082305   5.205394
    21  H    3.084383   2.472960   2.529511   3.853693   4.812699
    22  C    3.314283   4.609340   3.745699   5.179108   5.563111
    23  H    3.371825   5.069059   4.511808   5.903114   6.093201
    24  H    4.171346   5.523768   4.433248   5.862433   6.233365
    25  H    3.793364   4.154193   3.175846   4.819497   5.706705
    26  C    2.475476   5.267622   4.711126   5.427131   4.622839
    27  H    3.559294   6.094094   5.286767   6.107642   5.450929
    28  H    2.479015   5.653783   5.337983   6.095816   5.183868
    29  H    2.451093   5.326073   4.902459   5.253137   3.990461
                   16         17         18         19         20
    16  H    0.000000
    17  H    1.802333   0.000000
    18  C    4.604981   4.147880   0.000000
    19  H    4.891962   4.408902   1.095971   0.000000
    20  H    5.451098   4.756017   1.092338   1.762843   0.000000
    21  H    4.834130   4.753265   1.092364   1.775268   1.765649
    22  C    4.899115   4.602290   2.881833   3.975883   2.788558
    23  H    5.674321   5.097904   2.845127   3.888761   2.338950
    24  H    5.320897   5.112150   3.972655   5.064696   3.849379
    25  H    5.042263   5.057040   2.769684   3.819790   2.871983
    26  C    4.061589   3.061140   3.748664   4.580918   3.721322
    27  H    4.609694   3.835804   4.633736   5.548450   4.554449
    28  H    4.922297   3.688456   3.708322   4.481008   3.393700
    29  H    3.510576   2.262158   4.192851   4.849683   4.331349
                   21         22         23         24         25
    21  H    0.000000
    22  C    2.791858   0.000000
    23  H    2.945356   1.094165   0.000000
    24  H    3.828889   1.095635   1.773816   0.000000
    25  H    2.269718   1.091157   1.785717   1.763803   0.000000
    26  C    4.276887   2.509826   2.766854   2.713899   3.474300
    27  H    5.005817   2.724517   3.072847   2.468720   3.725335
    28  H    4.386259   2.778145   2.585468   3.104608   3.792114
    29  H    4.819614   3.469789   3.789240   3.703993   4.327599
                   26         27         28         29
    26  C    0.000000
    27  H    1.094204   0.000000
    28  H    1.095862   1.781667   0.000000
    29  H    1.093982   1.767506   1.782293   0.000000
 Framework group  C1[X(C8H16Cl3FeO)]
 Deg. of freedom    81
                         Standard orientation:                         
 ---------------------------------------------------------------------
 Center     Atomic      Atomic             Coordinates (Angstroms)
 Number     Number       Type             X           Y           Z
 ---------------------------------------------------------------------
      1          8           0       -0.279920   -0.386611   -0.703604
      2          6           0       -1.411274   -1.205838   -0.489131
      3          6           0       -2.647365   -0.200590   -0.060111
      4          6           0       -2.060126    1.154915   -0.240348
      5          6           0       -1.927333    1.748178   -1.578381
      6         26           0        1.356682    0.021492    0.003803
      7         17           0        1.669880    2.076119   -0.814805
      8          6           0       -1.632827    1.951085    0.908119
      9         17           0        2.848164   -1.500414   -0.507141
     10         17           0        1.032390    0.184703    2.231460
     11          1           0       -3.417076   -0.326033   -0.830688
     12          1           0       -2.451661    2.037605    1.634214
     13          1           0       -0.846727    1.385612    1.450467
     14          1           0       -1.236659    2.928691    0.634559
     15          1           0       -2.536729    2.666131   -1.600369
     16          1           0       -0.883000    2.076199   -1.702381
     17          1           0       -2.221860    1.084284   -2.389376
     18          6           0       -3.259212   -0.461951    1.317100
     19          1           0       -4.071781    0.243960    1.523432
     20          1           0       -3.685721   -1.467110    1.347896
     21          1           0       -2.523233   -0.385969    2.120730
     22          6           0       -1.119548   -2.248870    0.586539
     23          1           0       -1.962369   -2.928623    0.743972
     24          1           0       -0.264240   -2.838999    0.239245
     25          1           0       -0.837997   -1.789091    1.535199
     26          6           0       -1.765063   -1.886946   -1.811700
     27          1           0       -0.922649   -2.514564   -2.117833
     28          1           0       -2.657421   -2.515135   -1.711751
     29          1           0       -1.936134   -1.149696   -2.601633
 ---------------------------------------------------------------------
 Rotational constants (GHZ):           0.5714863           0.3655802           0.3289041
   427 basis functions,  1056 primitive gaussians,   461 cartesian basis functions
    77 alpha electrons       72 beta electrons
       nuclear repulsion energy      1662.5577042550 Hartrees.
 NAtoms=   29 NActive=   29 NUniq=   29 SFac= 1.00D+00 NAtFMM=   60 NAOKFM=F Big=F
 ExpMin= 1.40D-02 ExpMax= 4.32D+06 ExpMxC= 4.91D+03 IAcc=3 IRadAn=         5 AccDes= 0.00D+00
 Harris functional with IExCor= 1009 and IRadAn=       5 diagonalized for initial guess.
 HarFok:  IExCor= 1009 AccDes= 0.00D+00 IRadAn=         5 IDoV= 1 UseB2=F ITyADJ=14
 ICtDFT=  3500011 ScaDFX=  1.000000  1.000000  1.000000  1.000000
 FoFCou: FMM=F IPFlag=           0 FMFlag=      100000 FMFlg1=           0
         NFxFlg=           0 DoJE=T BraDBF=F KetDBF=T FulRan=T
         wScrn=  0.000000 ICntrl=       500 IOpCl=  0 I1Cent=   200000004 NGrid=           0
         NMat0=    1 NMatS0=      1 NMatT0=    0 NMatD0=    1 NMtDS0=    0 NMtDT0=    0
 Petite list used in FoFCou.
 Initial guess <Sx>= 0.0000 <Sy>= 0.0000 <Sz>= 2.5000 <S**2>= 8.7500 S= 2.5000
 EnCoef did   100 forward-backward iterations
 SCF Done:  E(UPBE1PBE) =  -3033.10711006     A.U. after   20 cycles
            NFock= 20  Conv=0.57D-08     -V/T= 2.0021
 <Sx>= 0.0000 <Sy>= 0.0000 <Sz>= 2.5000 <S**2>= 8.7630 S= 2.5022
 <L.S>= 0.000000000000E+00
 Annihilation of the first spin contaminant:
 S**2 before annihilation     8.7630,   after     8.7501
 1\1\GINC-HOLY7C06101\SP\UPBE1PBE\Jul-CC-pVDZ\C8H16Cl3Fe1O1(6)\EKWAN\11
 -Feb-2020\0\\#t pop=none jul-cc-pvdz upbe1pbe\\theory_abbreviation pbe
 0\\0,6\O,0,-0.27992,-0.386611,-0.703604\C,0,-1.411274,-1.205838,-0.489
 131\C,0,-2.647365,-0.20059,-0.060111\C,0,-2.060126,1.154915,-0.240348\
 C,0,-1.927333,1.748178,-1.578381\Fe,0,1.356682,0.021492,0.003803\Cl,0,
 1.66988,2.076119,-0.814805\C,0,-1.632827,1.951085,0.908119\Cl,0,2.8481
 64,-1.500414,-0.507141\Cl,0,1.03239,0.184703,2.23146\H,0,-3.417076,-0.
 326033,-0.830688\H,0,-2.451661,2.037605,1.634214\H,0,-0.846727,1.38561
 2,1.450467\H,0,-1.236659,2.928691,0.634559\H,0,-2.536729,2.666131,-1.6
 00369\H,0,-0.883,2.076199,-1.702381\H,0,-2.22186,1.084284,-2.389376\C,
 0,-3.259212,-0.461951,1.3171\H,0,-4.071781,0.24396,1.523432\H,0,-3.685
 721,-1.46711,1.347896\H,0,-2.523233,-0.385969,2.12073\C,0,-1.119548,-2
 .24887,0.586539\H,0,-1.962369,-2.928623,0.743972\H,0,-0.26424,-2.83899
 9,0.239245\H,0,-0.837997,-1.789091,1.535199\C,0,-1.765063,-1.886946,-1
 .8117\H,0,-0.922649,-2.514564,-2.117833\H,0,-2.657421,-2.515135,-1.711
 751\H,0,-1.936134,-1.149696,-2.601633\\Version=ES64L-G16RevA.03\HF=-30
 33.1071101\S2=8.76297\S2-1=0.\S2A=8.750053\RMSD=5.714e-09\PG=C01 [X(C8
 H16Cl3Fe1O1)]\\@


 EVERY WORD THAT YOU WRITE IS A BLOW THAT SMITES THE DEVIL.
     -- ST. BERNARD OF CLAIRVAUX
 Job cpu time:       0 days  1 hours 27 minutes 21.0 seconds.
 Elapsed time:       0 days  0 hours 21 minutes 55.2 seconds.
 File lengths (MBytes):  RWF=    173 Int=      0 D2E=      0 Chk=     13 Scr=      1
 Normal termination of Gaussian 16 at Tue Feb 11 13:56:14 2020.
 Initial command:
 /n/sw/g16_nehalem/g16/l1.exe "/scratch/Gau-359382.inp" -scrdir="/scratch/"
 Entering Link 1 = /n/sw/g16_nehalem/g16/l1.exe PID=    361190.
  
 Copyright (c) 1988,1990,1992,1993,1995,1998,2003,2009,2016,
            Gaussian, Inc.  All Rights Reserved.
  
 This is part of the Gaussian(R) 16 program.  It is based on
 the Gaussian(R) 09 system (copyright 2009, Gaussian, Inc.),
 the Gaussian(R) 03 system (copyright 2003, Gaussian, Inc.),
 the Gaussian(R) 98 system (copyright 1998, Gaussian, Inc.),
 the Gaussian(R) 94 system (copyright 1995, Gaussian, Inc.),
 the Gaussian 92(TM) system (copyright 1992, Gaussian, Inc.),
 the Gaussian 90(TM) system (copyright 1990, Gaussian, Inc.),
 the Gaussian 88(TM) system (copyright 1988, Gaussian, Inc.),
 the Gaussian 86(TM) system (copyright 1986, Carnegie Mellon
 University), and the Gaussian 82(TM) system (copyright 1983,
 Carnegie Mellon University). Gaussian is a federally registered
 trademark of Gaussian, Inc.
  
 This software contains proprietary and confidential information,
 including trade secrets, belonging to Gaussian, Inc.
  
 This software is provided under written license and may be
 used, copied, transmitted, or stored only in accord with that
 written license.
  
 The following legend is applicable only to US Government
 contracts under FAR:
  
                    RESTRICTED RIGHTS LEGEND
  
 Use, reproduction and disclosure by the US Government is
 subject to restrictions as set forth in subparagraphs (a)
 and (c) of the Commercial Computer Software - Restricted
 Rights clause in FAR 52.227-19.
  
 Gaussian, Inc.
 340 Quinnipiac St., Bldg. 40, Wallingford CT 06492
  
  
 ---------------------------------------------------------------
 Warning -- This program may not be used in any manner that
 competes with the business of Gaussian, Inc. or will provide
 assistance to any competitor of Gaussian, Inc.  The licensee
 of this program is prohibited from giving any competitor of
 Gaussian, Inc. access to this program.  By using this program,
 the user acknowledges that Gaussian, Inc. is engaged in the
 business of creating and licensing software in the field of
 computational chemistry and represents and warrants to the
 licensee that it is not a competitor of Gaussian, Inc. and that
 it will not use this program in any manner prohibited above.
 ---------------------------------------------------------------
  

 Cite this work as:
 Gaussian 16, Revision A.03,
 M. J. Frisch, G. W. Trucks, H. B. Schlegel, G. E. Scuseria, 
 M. A. Robb, J. R. Cheeseman, G. Scalmani, V. Barone, 
 G. A. Petersson, H. Nakatsuji, X. Li, M. Caricato, A. V. Marenich, 
 J. Bloino, B. G. Janesko, R. Gomperts, B. Mennucci, H. P. Hratchian, 
 J. V. Ortiz, A. F. Izmaylov, J. L. Sonnenberg, D. Williams-Young, 
 F. Ding, F. Lipparini, F. Egidi, J. Goings, B. Peng, A. Petrone, 
 T. Henderson, D. Ranasinghe, V. G. Zakrzewski, J. Gao, N. Rega, 
 G. Zheng, W. Liang, M. Hada, M. Ehara, K. Toyota, R. Fukuda, 
 J. Hasegawa, M. Ishida, T. Nakajima, Y. Honda, O. Kitao, H. Nakai, 
 T. Vreven, K. Throssell, J. A. Montgomery, Jr., J. E. Peralta, 
 F. Ogliaro, M. J. Bearpark, J. J. Heyd, E. N. Brothers, K. N. Kudin, 
 V. N. Staroverov, T. A. Keith, R. Kobayashi, J. Normand, 
 K. Raghavachari, A. P. Rendell, J. C. Burant, S. S. Iyengar, 
 J. Tomasi, M. Cossi, J. M. Millam, M. Klene, C. Adamo, R. Cammi, 
 J. W. Ochterski, R. L. Martin, K. Morokuma, O. Farkas, 
 J. B. Foresman, and D. J. Fox, Gaussian, Inc., Wallingford CT, 2016.
 
 ******************************************
 Gaussian 16:  ES64L-G16RevA.03 25-Dec-2016
                11-Feb-2020 
 ******************************************
 %chk=checkpoint.chk
 %mem=3GB
 %nprocshared=4
 Will use up to    4 processors via shared memory.
 ---------------------------------------------------------------------
 #t pop=none jul-cc-pvdz guess=read upbe1pbe empiricaldispersion=gd3bj
 ---------------------------------------------------------------------
 -----------------------------
 theory_abbreviation pbe0_d3bj
 -----------------------------
 Symbolic Z-matrix:
 Charge =  0 Multiplicity = 6
 O                    -0.27992  -0.38661  -0.7036 
 C                    -1.41127  -1.20584  -0.48913 
 C                    -2.64737  -0.20059  -0.06011 
 C                    -2.06013   1.15492  -0.24035 
 C                    -1.92733   1.74818  -1.57838 
 Fe                    1.35668   0.02149   0.0038 
 Cl                    1.66988   2.07612  -0.81481 
 C                    -1.63283   1.95109   0.90812 
 Cl                    2.84816  -1.50041  -0.50714 
 Cl                    1.03239   0.1847    2.23146 
 H                    -3.41708  -0.32603  -0.83069 
 H                    -2.45166   2.03761   1.63421 
 H                    -0.84673   1.38561   1.45047 
 H                    -1.23666   2.92869   0.63456 
 H                    -2.53673   2.66613  -1.60037 
 H                    -0.883     2.0762   -1.70238 
 H                    -2.22186   1.08428  -2.38938 
 C                    -3.25921  -0.46195   1.3171 
 H                    -4.07178   0.24396   1.52343 
 H                    -3.68572  -1.46711   1.3479 
 H                    -2.52323  -0.38597   2.12073 
 C                    -1.11955  -2.24887   0.58654 
 H                    -1.96237  -2.92862   0.74397 
 H                    -0.26424  -2.839     0.23925 
 H                    -0.838    -1.78909   1.5352 
 C                    -1.76506  -1.88695  -1.8117 
 H                    -0.92265  -2.51456  -2.11783 
 H                    -2.65742  -2.51514  -1.71175 
 H                    -1.93613  -1.1497   -2.60163 
 
                    Distance matrix (angstroms):
                    1          2          3          4          5
     1  O    0.000000
     2  C    1.413186   0.000000
     3  C    2.460383   1.650001   0.000000
     4  C    2.400009   2.460906   1.488197   0.000000
     5  C    2.834877   3.190453   2.573186   1.469669   0.000000
     6  Fe   1.829054   3.067720   4.010710   3.608162   4.033547
     7  Cl   3.143107   4.513404   4.938782   3.884786   3.691955
     8  C    3.145287   3.459416   2.568358   1.461317   2.512088
     9  Cl   3.326269   4.269650   5.664823   5.586883   5.874204
    10  Cl   3.265449   3.912380   4.352051   4.076126   5.071420
    11  H    3.140313   2.216745   1.096348   2.093567   2.660964
    12  H    4.007328   4.013841   2.813993   2.108655   3.267943
    13  H    2.846413   3.285783   2.835521   2.093899   3.236214
    14  H    3.700981   4.288065   3.502150   2.142392   2.601489
    15  H    3.900847   4.182540   3.256182   2.088201   1.102037
    16  H    2.725196   3.538759   3.315690   2.090916   1.101638
    17  H    2.962514   3.084257   2.693962   2.156263   1.088675
    18  C    3.600708   2.688999   1.529502   2.545134   3.878451
    19  H    4.442468   3.637392   2.175820   2.826219   4.059874
    20  H    4.120147   2.935309   2.159801   3.469884   4.689680
    21  H    3.606843   2.952967   2.192223   2.857181   4.311972
    22  C    2.416082   1.526462   2.635874   3.626869   4.616902
    23  H    3.374602   2.189118   2.925395   4.201634   5.221783
    24  H    2.627435   2.124484   3.567927   4.405288   5.206903
    25  H    2.700118   2.183287   2.888280   3.648745   4.836663
    26  C    2.384226   1.529138   2.586565   3.436441   3.646217
    27  H    2.634640   2.145737   3.544480   4.275965   4.412637
    28  H    3.346563   2.182187   2.843437   3.998882   4.327430
    29  H    2.632082   2.177451   2.804636   3.301859   3.073239
                    6          7          8          9         10
     6  Fe   0.000000
     7  Cl   2.233765   0.000000
     8  C    3.671278   3.727194   0.000000
     9  Cl   2.191296   3.778174   5.830531   0.000000
    10  Cl   2.257046   3.641920   3.460451   3.692775   0.000000
    11  H    4.858592   5.625630   3.375242   6.382561   5.425435
    12  H    4.607215   4.794401   1.097811   6.722434   3.991060
    13  H    2.967941   3.455657   1.109889   5.080708   2.362882
    14  H    3.946527   3.357902   1.089724   6.132392   3.902326
    15  H    4.972538   4.319813   2.760587   6.895819   5.794740
    16  H    3.485550   2.702774   2.718934   5.304936   4.766716
    17  H    4.434275   4.313775   3.460026   5.994048   5.722894
    18  C    4.823375   5.939930   2.938560   6.458042   4.435320
    19  H    5.641540   6.464583   3.039964   7.419684   5.153385
    20  H    5.426633   6.776002   4.011463   6.792196   5.076391
    21  H    4.438597   5.679915   2.779401   6.082730   3.602830
    22  C    3.409669   5.333873   4.243406   4.183188   3.641274
    23  H    4.501903   6.377340   4.893577   5.171682   4.568807
    24  H    3.296245   5.386114   5.026463   3.469288   3.846160
    25  H    3.231099   5.172216   3.874777   4.224011   2.806954
    26  C    4.084541   5.338400   4.705888   4.809693   5.335224
    27  H    4.016002   5.430788   5.440842   4.223963   5.479468
    28  H    5.048824   6.372571   5.278317   5.726448   6.037611
    29  H    4.359199   5.157710   4.693101   5.234444   5.826795
                   11         12         13         14         15
    11  H    0.000000
    12  H    3.548880   0.000000
    13  H    3.839283   1.742031   0.000000
    14  H    4.182630   1.808196   1.788532   0.000000
    15  H    3.212548   3.296181   3.715298   2.598850   0.000000
    16  H    3.598904   3.687147   3.227797   2.512589   1.758763
    17  H    2.418066   4.141365   4.089766   3.676498   1.795526
    18  C    2.157867   2.645842   3.041605   4.006624   4.338030
    19  H    2.509066   2.419550   3.421939   4.004472   4.240452
    20  H    2.473955   3.726649   4.025970   5.082305   5.205394
    21  H    3.084383   2.472960   2.529511   3.853693   4.812699
    22  C    3.314283   4.609340   3.745699   5.179108   5.563111
    23  H    3.371825   5.069059   4.511808   5.903114   6.093201
    24  H    4.171346   5.523768   4.433248   5.862433   6.233365
    25  H    3.793364   4.154193   3.175846   4.819497   5.706705
    26  C    2.475476   5.267622   4.711126   5.427131   4.622839
    27  H    3.559294   6.094094   5.286767   6.107642   5.450929
    28  H    2.479015   5.653783   5.337983   6.095816   5.183868
    29  H    2.451093   5.326073   4.902459   5.253137   3.990461
                   16         17         18         19         20
    16  H    0.000000
    17  H    1.802333   0.000000
    18  C    4.604981   4.147880   0.000000
    19  H    4.891962   4.408902   1.095971   0.000000
    20  H    5.451098   4.756017   1.092338   1.762843   0.000000
    21  H    4.834130   4.753265   1.092364   1.775268   1.765649
    22  C    4.899115   4.602290   2.881833   3.975883   2.788558
    23  H    5.674321   5.097904   2.845127   3.888761   2.338950
    24  H    5.320897   5.112150   3.972655   5.064696   3.849379
    25  H    5.042263   5.057040   2.769684   3.819790   2.871983
    26  C    4.061589   3.061140   3.748664   4.580918   3.721322
    27  H    4.609694   3.835804   4.633736   5.548450   4.554449
    28  H    4.922297   3.688456   3.708322   4.481008   3.393700
    29  H    3.510576   2.262158   4.192851   4.849683   4.331349
                   21         22         23         24         25
    21  H    0.000000
    22  C    2.791858   0.000000
    23  H    2.945356   1.094165   0.000000
    24  H    3.828889   1.095635   1.773816   0.000000
    25  H    2.269718   1.091157   1.785717   1.763803   0.000000
    26  C    4.276887   2.509826   2.766854   2.713899   3.474300
    27  H    5.005817   2.724517   3.072847   2.468720   3.725335
    28  H    4.386259   2.778145   2.585468   3.104608   3.792114
    29  H    4.819614   3.469789   3.789240   3.703993   4.327599
                   26         27         28         29
    26  C    0.000000
    27  H    1.094204   0.000000
    28  H    1.095862   1.781667   0.000000
    29  H    1.093982   1.767506   1.782293   0.000000
 Framework group  C1[X(C8H16Cl3FeO)]
 Deg. of freedom    81
                         Standard orientation:                         
 ---------------------------------------------------------------------
 Center     Atomic      Atomic             Coordinates (Angstroms)
 Number     Number       Type             X           Y           Z
 ---------------------------------------------------------------------
      1          8           0       -0.279920   -0.386611   -0.703604
      2          6           0       -1.411274   -1.205838   -0.489131
      3          6           0       -2.647365   -0.200590   -0.060111
      4          6           0       -2.060126    1.154915   -0.240348
      5          6           0       -1.927333    1.748178   -1.578381
      6         26           0        1.356682    0.021492    0.003803
      7         17           0        1.669880    2.076119   -0.814805
      8          6           0       -1.632827    1.951085    0.908119
      9         17           0        2.848164   -1.500414   -0.507141
     10         17           0        1.032390    0.184703    2.231460
     11          1           0       -3.417076   -0.326033   -0.830688
     12          1           0       -2.451661    2.037605    1.634214
     13          1           0       -0.846727    1.385612    1.450467
     14          1           0       -1.236659    2.928691    0.634559
     15          1           0       -2.536729    2.666131   -1.600369
     16          1           0       -0.883000    2.076199   -1.702381
     17          1           0       -2.221860    1.084284   -2.389376
     18          6           0       -3.259212   -0.461951    1.317100
     19          1           0       -4.071781    0.243960    1.523432
     20          1           0       -3.685721   -1.467110    1.347896
     21          1           0       -2.523233   -0.385969    2.120730
     22          6           0       -1.119548   -2.248870    0.586539
     23          1           0       -1.962369   -2.928623    0.743972
     24          1           0       -0.264240   -2.838999    0.239245
     25          1           0       -0.837997   -1.789091    1.535199
     26          6           0       -1.765063   -1.886946   -1.811700
     27          1           0       -0.922649   -2.514564   -2.117833
     28          1           0       -2.657421   -2.515135   -1.711751
     29          1           0       -1.936134   -1.149696   -2.601633
 ---------------------------------------------------------------------
 Rotational constants (GHZ):           0.5714863           0.3655802           0.3289041
   427 basis functions,  1056 primitive gaussians,   461 cartesian basis functions
    77 alpha electrons       72 beta electrons
       nuclear repulsion energy      1662.5577042550 Hartrees.
 NAtoms=   29 NActive=   29 NUniq=   29 SFac= 1.00D+00 NAtFMM=   60 NAOKFM=F Big=F
 Nuclear repulsion after empirical dispersion term =     1662.5204348479 Hartrees.
 Initial guess from the checkpoint file:  "checkpoint.chk"
 B after Tr=     0.000000    0.000000    0.000000
         Rot=    1.000000    0.000000    0.000000    0.000000 Ang=   0.00 deg.
 Initial guess <Sx>= 0.0000 <Sy>= 0.0000 <Sz>= 2.5000 <S**2>= 8.7630 S= 2.5022
 SCF Done:  E(UPBE1PBE) =  -3033.14437947     A.U. after    1 cycles
            NFock=  1  Conv=0.24D-08     -V/T= 2.0021
 <Sx>= 0.0000 <Sy>= 0.0000 <Sz>= 2.5000 <S**2>= 8.7630 S= 2.5022
 <L.S>= 0.000000000000E+00
 Annihilation of the first spin contaminant:
 S**2 before annihilation     8.7630,   after     8.7501
 1\1\GINC-HOLY7C06101\SP\UPBE1PBE\Jul-CC-pVDZ\C8H16Cl3Fe1O1(6)\EKWAN\11
 -Feb-2020\0\\#t pop=none jul-cc-pvdz guess=read upbe1pbe empiricaldisp
 ersion=gd3bj\\theory_abbreviation pbe0_d3bj\\0,6\O,0,-0.27992,-0.38661
 1,-0.703604\C,0,-1.411274,-1.205838,-0.489131\C,0,-2.647365,-0.20059,-
 0.060111\C,0,-2.060126,1.154915,-0.240348\C,0,-1.927333,1.748178,-1.57
 8381\Fe,0,1.356682,0.021492,0.003803\Cl,0,1.66988,2.076119,-0.814805\C
 ,0,-1.632827,1.951085,0.908119\Cl,0,2.848164,-1.500414,-0.507141\Cl,0,
 1.03239,0.184703,2.23146\H,0,-3.417076,-0.326033,-0.830688\H,0,-2.4516
 61,2.037605,1.634214\H,0,-0.846727,1.385612,1.450467\H,0,-1.236659,2.9
 28691,0.634559\H,0,-2.536729,2.666131,-1.600369\H,0,-0.883,2.076199,-1
 .702381\H,0,-2.22186,1.084284,-2.389376\C,0,-3.259212,-0.461951,1.3171
 \H,0,-4.071781,0.24396,1.523432\H,0,-3.685721,-1.46711,1.347896\H,0,-2
 .523233,-0.385969,2.12073\C,0,-1.119548,-2.24887,0.586539\H,0,-1.96236
 9,-2.928623,0.743972\H,0,-0.26424,-2.838999,0.239245\H,0,-0.837997,-1.
 789091,1.535199\C,0,-1.765063,-1.886946,-1.8117\H,0,-0.922649,-2.51456
 4,-2.117833\H,0,-2.657421,-2.515135,-1.711751\H,0,-1.936134,-1.149696,
 -2.601633\\Version=ES64L-G16RevA.03\HF=-3033.1443795\S2=8.76297\S2-1=0
 .\S2A=8.750053\RMSD=2.380e-09\PG=C01 [X(C8H16Cl3Fe1O1)]\\@


 THE ENLIGHTENED ONE, BECAUSE HE SAW MANKIND DROWNING  
 IN THE GREAT SEA OF BIRTH, DEATH, AND SORROW, LONGED TO SAVE 
 THEM, FOR THIS HE WAS MOVED TO PITY.                         
 BECAUSE HE SAW MEN OF THE WORLD STRAYING IN FALSE PATHS, AND 
 NONE TO GUIDE THEM, FOR THIS HE WAS MOVED TO PITY.           
                     ..................                       
 BECAUSE HE SAW THE MEN OF THE WORLD PLOUGHING THEIR FIELDS,  
 SOWING THE SEED, TRAFFICKING, HUCKSTERING, BUYING, SELLING,  
 AND AT THE END WINNOWING NOTHING BUT BITTERNESS,             
 FOR THIS HE WAS MOVED TO PITY......                   
                   BUDAH'S PITY - UPSAKA SILA SUTRA           
 Job cpu time:       0 days  0 hours  4 minutes 44.5 seconds.
 Elapsed time:       0 days  0 hours  1 minutes 12.6 seconds.
 File lengths (MBytes):  RWF=    170 Int=      0 D2E=      0 Chk=     13 Scr=      1
 Normal termination of Gaussian 16 at Tue Feb 11 13:57:27 2020.
 Initial command:
 /n/sw/g16_nehalem/g16/l1.exe "/scratch/Gau-359382.inp" -scrdir="/scratch/"
 Entering Link 1 = /n/sw/g16_nehalem/g16/l1.exe PID=    361471.
  
 Copyright (c) 1988,1990,1992,1993,1995,1998,2003,2009,2016,
            Gaussian, Inc.  All Rights Reserved.
  
 This is part of the Gaussian(R) 16 program.  It is based on
 the Gaussian(R) 09 system (copyright 2009, Gaussian, Inc.),
 the Gaussian(R) 03 system (copyright 2003, Gaussian, Inc.),
 the Gaussian(R) 98 system (copyright 1998, Gaussian, Inc.),
 the Gaussian(R) 94 system (copyright 1995, Gaussian, Inc.),
 the Gaussian 92(TM) system (copyright 1992, Gaussian, Inc.),
 the Gaussian 90(TM) system (copyright 1990, Gaussian, Inc.),
 the Gaussian 88(TM) system (copyright 1988, Gaussian, Inc.),
 the Gaussian 86(TM) system (copyright 1986, Carnegie Mellon
 University), and the Gaussian 82(TM) system (copyright 1983,
 Carnegie Mellon University). Gaussian is a federally registered
 trademark of Gaussian, Inc.
  
 This software contains proprietary and confidential information,
 including trade secrets, belonging to Gaussian, Inc.
  
 This software is provided under written license and may be
 used, copied, transmitted, or stored only in accord with that
 written license.
  
 The following legend is applicable only to US Government
 contracts under FAR:
  
                    RESTRICTED RIGHTS LEGEND
  
 Use, reproduction and disclosure by the US Government is
 subject to restrictions as set forth in subparagraphs (a)
 and (c) of the Commercial Computer Software - Restricted
 Rights clause in FAR 52.227-19.
  
 Gaussian, Inc.
 340 Quinnipiac St., Bldg. 40, Wallingford CT 06492
  
  
 ---------------------------------------------------------------
 Warning -- This program may not be used in any manner that
 competes with the business of Gaussian, Inc. or will provide
 assistance to any competitor of Gaussian, Inc.  The licensee
 of this program is prohibited from giving any competitor of
 Gaussian, Inc. access to this program.  By using this program,
 the user acknowledges that Gaussian, Inc. is engaged in the
 business of creating and licensing software in the field of
 computational chemistry and represents and warrants to the
 licensee that it is not a competitor of Gaussian, Inc. and that
 it will not use this program in any manner prohibited above.
 ---------------------------------------------------------------
  

 Cite this work as:
 Gaussian 16, Revision A.03,
 M. J. Frisch, G. W. Trucks, H. B. Schlegel, G. E. Scuseria, 
 M. A. Robb, J. R. Cheeseman, G. Scalmani, V. Barone, 
 G. A. Petersson, H. Nakatsuji, X. Li, M. Caricato, A. V. Marenich, 
 J. Bloino, B. G. Janesko, R. Gomperts, B. Mennucci, H. P. Hratchian, 
 J. V. Ortiz, A. F. Izmaylov, J. L. Sonnenberg, D. Williams-Young, 
 F. Ding, F. Lipparini, F. Egidi, J. Goings, B. Peng, A. Petrone, 
 T. Henderson, D. Ranasinghe, V. G. Zakrzewski, J. Gao, N. Rega, 
 G. Zheng, W. Liang, M. Hada, M. Ehara, K. Toyota, R. Fukuda, 
 J. Hasegawa, M. Ishida, T. Nakajima, Y. Honda, O. Kitao, H. Nakai, 
 T. Vreven, K. Throssell, J. A. Montgomery, Jr., J. E. Peralta, 
 F. Ogliaro, M. J. Bearpark, J. J. Heyd, E. N. Brothers, K. N. Kudin, 
 V. N. Staroverov, T. A. Keith, R. Kobayashi, J. Normand, 
 K. Raghavachari, A. P. Rendell, J. C. Burant, S. S. Iyengar, 
 J. Tomasi, M. Cossi, J. M. Millam, M. Klene, C. Adamo, R. Cammi, 
 J. W. Ochterski, R. L. Martin, K. Morokuma, O. Farkas, 
 J. B. Foresman, and D. J. Fox, Gaussian, Inc., Wallingford CT, 2016.
 
 ******************************************
 Gaussian 16:  ES64L-G16RevA.03 25-Dec-2016
                11-Feb-2020 
 ******************************************
 %chk=checkpoint.chk
 %mem=3GB
 %nprocshared=4
 Will use up to    4 processors via shared memory.
 -----------------------------------------
 #t pop=none jul-cc-pvdz guess=read ub3lyp
 -----------------------------------------
 -------------------------
 theory_abbreviation b3lyp
 -------------------------
 Symbolic Z-matrix:
 Charge =  0 Multiplicity = 6
 O                    -0.27992  -0.38661  -0.7036 
 C                    -1.41127  -1.20584  -0.48913 
 C                    -2.64737  -0.20059  -0.06011 
 C                    -2.06013   1.15492  -0.24035 
 C                    -1.92733   1.74818  -1.57838 
 Fe                    1.35668   0.02149   0.0038 
 Cl                    1.66988   2.07612  -0.81481 
 C                    -1.63283   1.95109   0.90812 
 Cl                    2.84816  -1.50041  -0.50714 
 Cl                    1.03239   0.1847    2.23146 
 H                    -3.41708  -0.32603  -0.83069 
 H                    -2.45166   2.03761   1.63421 
 H                    -0.84673   1.38561   1.45047 
 H                    -1.23666   2.92869   0.63456 
 H                    -2.53673   2.66613  -1.60037 
 H                    -0.883     2.0762   -1.70238 
 H                    -2.22186   1.08428  -2.38938 
 C                    -3.25921  -0.46195   1.3171 
 H                    -4.07178   0.24396   1.52343 
 H                    -3.68572  -1.46711   1.3479 
 H                    -2.52323  -0.38597   2.12073 
 C                    -1.11955  -2.24887   0.58654 
 H                    -1.96237  -2.92862   0.74397 
 H                    -0.26424  -2.839     0.23925 
 H                    -0.838    -1.78909   1.5352 
 C                    -1.76506  -1.88695  -1.8117 
 H                    -0.92265  -2.51456  -2.11783 
 H                    -2.65742  -2.51514  -1.71175 
 H                    -1.93613  -1.1497   -2.60163 
 
                    Distance matrix (angstroms):
                    1          2          3          4          5
     1  O    0.000000
     2  C    1.413186   0.000000
     3  C    2.460383   1.650001   0.000000
     4  C    2.400009   2.460906   1.488197   0.000000
     5  C    2.834877   3.190453   2.573186   1.469669   0.000000
     6  Fe   1.829054   3.067720   4.010710   3.608162   4.033547
     7  Cl   3.143107   4.513404   4.938782   3.884786   3.691955
     8  C    3.145287   3.459416   2.568358   1.461317   2.512088
     9  Cl   3.326269   4.269650   5.664823   5.586883   5.874204
    10  Cl   3.265449   3.912380   4.352051   4.076126   5.071420
    11  H    3.140313   2.216745   1.096348   2.093567   2.660964
    12  H    4.007328   4.013841   2.813993   2.108655   3.267943
    13  H    2.846413   3.285783   2.835521   2.093899   3.236214
    14  H    3.700981   4.288065   3.502150   2.142392   2.601489
    15  H    3.900847   4.182540   3.256182   2.088201   1.102037
    16  H    2.725196   3.538759   3.315690   2.090916   1.101638
    17  H    2.962514   3.084257   2.693962   2.156263   1.088675
    18  C    3.600708   2.688999   1.529502   2.545134   3.878451
    19  H    4.442468   3.637392   2.175820   2.826219   4.059874
    20  H    4.120147   2.935309   2.159801   3.469884   4.689680
    21  H    3.606843   2.952967   2.192223   2.857181   4.311972
    22  C    2.416082   1.526462   2.635874   3.626869   4.616902
    23  H    3.374602   2.189118   2.925395   4.201634   5.221783
    24  H    2.627435   2.124484   3.567927   4.405288   5.206903
    25  H    2.700118   2.183287   2.888280   3.648745   4.836663
    26  C    2.384226   1.529138   2.586565   3.436441   3.646217
    27  H    2.634640   2.145737   3.544480   4.275965   4.412637
    28  H    3.346563   2.182187   2.843437   3.998882   4.327430
    29  H    2.632082   2.177451   2.804636   3.301859   3.073239
                    6          7          8          9         10
     6  Fe   0.000000
     7  Cl   2.233765   0.000000
     8  C    3.671278   3.727194   0.000000
     9  Cl   2.191296   3.778174   5.830531   0.000000
    10  Cl   2.257046   3.641920   3.460451   3.692775   0.000000
    11  H    4.858592   5.625630   3.375242   6.382561   5.425435
    12  H    4.607215   4.794401   1.097811   6.722434   3.991060
    13  H    2.967941   3.455657   1.109889   5.080708   2.362882
    14  H    3.946527   3.357902   1.089724   6.132392   3.902326
    15  H    4.972538   4.319813   2.760587   6.895819   5.794740
    16  H    3.485550   2.702774   2.718934   5.304936   4.766716
    17  H    4.434275   4.313775   3.460026   5.994048   5.722894
    18  C    4.823375   5.939930   2.938560   6.458042   4.435320
    19  H    5.641540   6.464583   3.039964   7.419684   5.153385
    20  H    5.426633   6.776002   4.011463   6.792196   5.076391
    21  H    4.438597   5.679915   2.779401   6.082730   3.602830
    22  C    3.409669   5.333873   4.243406   4.183188   3.641274
    23  H    4.501903   6.377340   4.893577   5.171682   4.568807
    24  H    3.296245   5.386114   5.026463   3.469288   3.846160
    25  H    3.231099   5.172216   3.874777   4.224011   2.806954
    26  C    4.084541   5.338400   4.705888   4.809693   5.335224
    27  H    4.016002   5.430788   5.440842   4.223963   5.479468
    28  H    5.048824   6.372571   5.278317   5.726448   6.037611
    29  H    4.359199   5.157710   4.693101   5.234444   5.826795
                   11         12         13         14         15
    11  H    0.000000
    12  H    3.548880   0.000000
    13  H    3.839283   1.742031   0.000000
    14  H    4.182630   1.808196   1.788532   0.000000
    15  H    3.212548   3.296181   3.715298   2.598850   0.000000
    16  H    3.598904   3.687147   3.227797   2.512589   1.758763
    17  H    2.418066   4.141365   4.089766   3.676498   1.795526
    18  C    2.157867   2.645842   3.041605   4.006624   4.338030
    19  H    2.509066   2.419550   3.421939   4.004472   4.240452
    20  H    2.473955   3.726649   4.025970   5.082305   5.205394
    21  H    3.084383   2.472960   2.529511   3.853693   4.812699
    22  C    3.314283   4.609340   3.745699   5.179108   5.563111
    23  H    3.371825   5.069059   4.511808   5.903114   6.093201
    24  H    4.171346   5.523768   4.433248   5.862433   6.233365
    25  H    3.793364   4.154193   3.175846   4.819497   5.706705
    26  C    2.475476   5.267622   4.711126   5.427131   4.622839
    27  H    3.559294   6.094094   5.286767   6.107642   5.450929
    28  H    2.479015   5.653783   5.337983   6.095816   5.183868
    29  H    2.451093   5.326073   4.902459   5.253137   3.990461
                   16         17         18         19         20
    16  H    0.000000
    17  H    1.802333   0.000000
    18  C    4.604981   4.147880   0.000000
    19  H    4.891962   4.408902   1.095971   0.000000
    20  H    5.451098   4.756017   1.092338   1.762843   0.000000
    21  H    4.834130   4.753265   1.092364   1.775268   1.765649
    22  C    4.899115   4.602290   2.881833   3.975883   2.788558
    23  H    5.674321   5.097904   2.845127   3.888761   2.338950
    24  H    5.320897   5.112150   3.972655   5.064696   3.849379
    25  H    5.042263   5.057040   2.769684   3.819790   2.871983
    26  C    4.061589   3.061140   3.748664   4.580918   3.721322
    27  H    4.609694   3.835804   4.633736   5.548450   4.554449
    28  H    4.922297   3.688456   3.708322   4.481008   3.393700
    29  H    3.510576   2.262158   4.192851   4.849683   4.331349
                   21         22         23         24         25
    21  H    0.000000
    22  C    2.791858   0.000000
    23  H    2.945356   1.094165   0.000000
    24  H    3.828889   1.095635   1.773816   0.000000
    25  H    2.269718   1.091157   1.785717   1.763803   0.000000
    26  C    4.276887   2.509826   2.766854   2.713899   3.474300
    27  H    5.005817   2.724517   3.072847   2.468720   3.725335
    28  H    4.386259   2.778145   2.585468   3.104608   3.792114
    29  H    4.819614   3.469789   3.789240   3.703993   4.327599
                   26         27         28         29
    26  C    0.000000
    27  H    1.094204   0.000000
    28  H    1.095862   1.781667   0.000000
    29  H    1.093982   1.767506   1.782293   0.000000
 Framework group  C1[X(C8H16Cl3FeO)]
 Deg. of freedom    81
                         Standard orientation:                         
 ---------------------------------------------------------------------
 Center     Atomic      Atomic             Coordinates (Angstroms)
 Number     Number       Type             X           Y           Z
 ---------------------------------------------------------------------
      1          8           0       -0.279920   -0.386611   -0.703604
      2          6           0       -1.411274   -1.205838   -0.489131
      3          6           0       -2.647365   -0.200590   -0.060111
      4          6           0       -2.060126    1.154915   -0.240348
      5          6           0       -1.927333    1.748178   -1.578381
      6         26           0        1.356682    0.021492    0.003803
      7         17           0        1.669880    2.076119   -0.814805
      8          6           0       -1.632827    1.951085    0.908119
      9         17           0        2.848164   -1.500414   -0.507141
     10         17           0        1.032390    0.184703    2.231460
     11          1           0       -3.417076   -0.326033   -0.830688
     12          1           0       -2.451661    2.037605    1.634214
     13          1           0       -0.846727    1.385612    1.450467
     14          1           0       -1.236659    2.928691    0.634559
     15          1           0       -2.536729    2.666131   -1.600369
     16          1           0       -0.883000    2.076199   -1.702381
     17          1           0       -2.221860    1.084284   -2.389376
     18          6           0       -3.259212   -0.461951    1.317100
     19          1           0       -4.071781    0.243960    1.523432
     20          1           0       -3.685721   -1.467110    1.347896
     21          1           0       -2.523233   -0.385969    2.120730
     22          6           0       -1.119548   -2.248870    0.586539
     23          1           0       -1.962369   -2.928623    0.743972
     24          1           0       -0.264240   -2.838999    0.239245
     25          1           0       -0.837997   -1.789091    1.535199
     26          6           0       -1.765063   -1.886946   -1.811700
     27          1           0       -0.922649   -2.514564   -2.117833
     28          1           0       -2.657421   -2.515135   -1.711751
     29          1           0       -1.936134   -1.149696   -2.601633
 ---------------------------------------------------------------------
 Rotational constants (GHZ):           0.5714863           0.3655802           0.3289041
   427 basis functions,  1056 primitive gaussians,   461 cartesian basis functions
    77 alpha electrons       72 beta electrons
       nuclear repulsion energy      1662.5577042550 Hartrees.
 NAtoms=   29 NActive=   29 NUniq=   29 SFac= 1.00D+00 NAtFMM=   60 NAOKFM=F Big=F
 Initial guess from the checkpoint file:  "checkpoint.chk"
 B after Tr=     0.000000    0.000000    0.000000
         Rot=    1.000000    0.000000    0.000000    0.000000 Ang=   0.00 deg.
 Initial guess <Sx>= 0.0000 <Sy>= 0.0000 <Sz>= 2.5000 <S**2>= 8.7630 S= 2.5022
 SCF Done:  E(UB3LYP) =  -3034.31904353     A.U. after   13 cycles
            NFock= 13  Conv=0.82D-08     -V/T= 2.0024
 <Sx>= 0.0000 <Sy>= 0.0000 <Sz>= 2.5000 <S**2>= 8.7624 S= 2.5021
 <L.S>= 0.000000000000E+00
 Annihilation of the first spin contaminant:
 S**2 before annihilation     8.7624,   after     8.7500
 1\1\GINC-HOLY7C06101\SP\UB3LYP\Jul-CC-pVDZ\C8H16Cl3Fe1O1(6)\EKWAN\11-F
 eb-2020\0\\#t pop=none jul-cc-pvdz guess=read ub3lyp\\theory_abbreviat
 ion b3lyp\\0,6\O,0,-0.27992,-0.386611,-0.703604\C,0,-1.411274,-1.20583
 8,-0.489131\C,0,-2.647365,-0.20059,-0.060111\C,0,-2.060126,1.154915,-0
 .240348\C,0,-1.927333,1.748178,-1.578381\Fe,0,1.356682,0.021492,0.0038
 03\Cl,0,1.66988,2.076119,-0.814805\C,0,-1.632827,1.951085,0.908119\Cl,
 0,2.848164,-1.500414,-0.507141\Cl,0,1.03239,0.184703,2.23146\H,0,-3.41
 7076,-0.326033,-0.830688\H,0,-2.451661,2.037605,1.634214\H,0,-0.846727
 ,1.385612,1.450467\H,0,-1.236659,2.928691,0.634559\H,0,-2.536729,2.666
 131,-1.600369\H,0,-0.883,2.076199,-1.702381\H,0,-2.22186,1.084284,-2.3
 89376\C,0,-3.259212,-0.461951,1.3171\H,0,-4.071781,0.24396,1.523432\H,
 0,-3.685721,-1.46711,1.347896\H,0,-2.523233,-0.385969,2.12073\C,0,-1.1
 19548,-2.24887,0.586539\H,0,-1.962369,-2.928623,0.743972\H,0,-0.26424,
 -2.838999,0.239245\H,0,-0.837997,-1.789091,1.535199\C,0,-1.765063,-1.8
 86946,-1.8117\H,0,-0.922649,-2.514564,-2.117833\H,0,-2.657421,-2.51513
 5,-1.711751\H,0,-1.936134,-1.149696,-2.601633\\Version=ES64L-G16RevA.0
 3\HF=-3034.3190435\S2=8.762361\S2-1=0.\S2A=8.750048\RMSD=8.212e-09\PG=
 C01 [X(C8H16Cl3Fe1O1)]\\@


 QED = W**5 (WHICH WAS WHAT WE WANTED)
 Job cpu time:       0 days  0 hours 55 minutes 36.7 seconds.
 Elapsed time:       0 days  0 hours 13 minutes 57.7 seconds.
 File lengths (MBytes):  RWF=    174 Int=      0 D2E=      0 Chk=     13 Scr=      1
 Normal termination of Gaussian 16 at Tue Feb 11 14:11:25 2020.
 Initial command:
 /n/sw/g16_nehalem/g16/l1.exe "/scratch/Gau-359382.inp" -scrdir="/scratch/"
 Entering Link 1 = /n/sw/g16_nehalem/g16/l1.exe PID=    363480.
  
 Copyright (c) 1988,1990,1992,1993,1995,1998,2003,2009,2016,
            Gaussian, Inc.  All Rights Reserved.
  
 This is part of the Gaussian(R) 16 program.  It is based on
 the Gaussian(R) 09 system (copyright 2009, Gaussian, Inc.),
 the Gaussian(R) 03 system (copyright 2003, Gaussian, Inc.),
 the Gaussian(R) 98 system (copyright 1998, Gaussian, Inc.),
 the Gaussian(R) 94 system (copyright 1995, Gaussian, Inc.),
 the Gaussian 92(TM) system (copyright 1992, Gaussian, Inc.),
 the Gaussian 90(TM) system (copyright 1990, Gaussian, Inc.),
 the Gaussian 88(TM) system (copyright 1988, Gaussian, Inc.),
 the Gaussian 86(TM) system (copyright 1986, Carnegie Mellon
 University), and the Gaussian 82(TM) system (copyright 1983,
 Carnegie Mellon University). Gaussian is a federally registered
 trademark of Gaussian, Inc.
  
 This software contains proprietary and confidential information,
 including trade secrets, belonging to Gaussian, Inc.
  
 This software is provided under written license and may be
 used, copied, transmitted, or stored only in accord with that
 written license.
  
 The following legend is applicable only to US Government
 contracts under FAR:
  
                    RESTRICTED RIGHTS LEGEND
  
 Use, reproduction and disclosure by the US Government is
 subject to restrictions as set forth in subparagraphs (a)
 and (c) of the Commercial Computer Software - Restricted
 Rights clause in FAR 52.227-19.
  
 Gaussian, Inc.
 340 Quinnipiac St., Bldg. 40, Wallingford CT 06492
  
  
 ---------------------------------------------------------------
 Warning -- This program may not be used in any manner that
 competes with the business of Gaussian, Inc. or will provide
 assistance to any competitor of Gaussian, Inc.  The licensee
 of this program is prohibited from giving any competitor of
 Gaussian, Inc. access to this program.  By using this program,
 the user acknowledges that Gaussian, Inc. is engaged in the
 business of creating and licensing software in the field of
 computational chemistry and represents and warrants to the
 licensee that it is not a competitor of Gaussian, Inc. and that
 it will not use this program in any manner prohibited above.
 ---------------------------------------------------------------
  

 Cite this work as:
 Gaussian 16, Revision A.03,
 M. J. Frisch, G. W. Trucks, H. B. Schlegel, G. E. Scuseria, 
 M. A. Robb, J. R. Cheeseman, G. Scalmani, V. Barone, 
 G. A. Petersson, H. Nakatsuji, X. Li, M. Caricato, A. V. Marenich, 
 J. Bloino, B. G. Janesko, R. Gomperts, B. Mennucci, H. P. Hratchian, 
 J. V. Ortiz, A. F. Izmaylov, J. L. Sonnenberg, D. Williams-Young, 
 F. Ding, F. Lipparini, F. Egidi, J. Goings, B. Peng, A. Petrone, 
 T. Henderson, D. Ranasinghe, V. G. Zakrzewski, J. Gao, N. Rega, 
 G. Zheng, W. Liang, M. Hada, M. Ehara, K. Toyota, R. Fukuda, 
 J. Hasegawa, M. Ishida, T. Nakajima, Y. Honda, O. Kitao, H. Nakai, 
 T. Vreven, K. Throssell, J. A. Montgomery, Jr., J. E. Peralta, 
 F. Ogliaro, M. J. Bearpark, J. J. Heyd, E. N. Brothers, K. N. Kudin, 
 V. N. Staroverov, T. A. Keith, R. Kobayashi, J. Normand, 
 K. Raghavachari, A. P. Rendell, J. C. Burant, S. S. Iyengar, 
 J. Tomasi, M. Cossi, J. M. Millam, M. Klene, C. Adamo, R. Cammi, 
 J. W. Ochterski, R. L. Martin, K. Morokuma, O. Farkas, 
 J. B. Foresman, and D. J. Fox, Gaussian, Inc., Wallingford CT, 2016.
 
 ******************************************
 Gaussian 16:  ES64L-G16RevA.03 25-Dec-2016
                11-Feb-2020 
 ******************************************
 %chk=checkpoint.chk
 %mem=3GB
 %nprocshared=4
 Will use up to    4 processors via shared memory.
 -------------------------------------------------------------------
 #t pop=none jul-cc-pvdz guess=read ub3lyp empiricaldispersion=gd3bj
 -------------------------------------------------------------------
 ------------------------------
 theory_abbreviation b3lyp_d3bj
 ------------------------------
 Symbolic Z-matrix:
 Charge =  0 Multiplicity = 6
 O                    -0.27992  -0.38661  -0.7036 
 C                    -1.41127  -1.20584  -0.48913 
 C                    -2.64737  -0.20059  -0.06011 
 C                    -2.06013   1.15492  -0.24035 
 C                    -1.92733   1.74818  -1.57838 
 Fe                    1.35668   0.02149   0.0038 
 Cl                    1.66988   2.07612  -0.81481 
 C                    -1.63283   1.95109   0.90812 
 Cl                    2.84816  -1.50041  -0.50714 
 Cl                    1.03239   0.1847    2.23146 
 H                    -3.41708  -0.32603  -0.83069 
 H                    -2.45166   2.03761   1.63421 
 H                    -0.84673   1.38561   1.45047 
 H                    -1.23666   2.92869   0.63456 
 H                    -2.53673   2.66613  -1.60037 
 H                    -0.883     2.0762   -1.70238 
 H                    -2.22186   1.08428  -2.38938 
 C                    -3.25921  -0.46195   1.3171 
 H                    -4.07178   0.24396   1.52343 
 H                    -3.68572  -1.46711   1.3479 
 H                    -2.52323  -0.38597   2.12073 
 C                    -1.11955  -2.24887   0.58654 
 H                    -1.96237  -2.92862   0.74397 
 H                    -0.26424  -2.839     0.23925 
 H                    -0.838    -1.78909   1.5352 
 C                    -1.76506  -1.88695  -1.8117 
 H                    -0.92265  -2.51456  -2.11783 
 H                    -2.65742  -2.51514  -1.71175 
 H                    -1.93613  -1.1497   -2.60163 
 
                    Distance matrix (angstroms):
                    1          2          3          4          5
     1  O    0.000000
     2  C    1.413186   0.000000
     3  C    2.460383   1.650001   0.000000
     4  C    2.400009   2.460906   1.488197   0.000000
     5  C    2.834877   3.190453   2.573186   1.469669   0.000000
     6  Fe   1.829054   3.067720   4.010710   3.608162   4.033547
     7  Cl   3.143107   4.513404   4.938782   3.884786   3.691955
     8  C    3.145287   3.459416   2.568358   1.461317   2.512088
     9  Cl   3.326269   4.269650   5.664823   5.586883   5.874204
    10  Cl   3.265449   3.912380   4.352051   4.076126   5.071420
    11  H    3.140313   2.216745   1.096348   2.093567   2.660964
    12  H    4.007328   4.013841   2.813993   2.108655   3.267943
    13  H    2.846413   3.285783   2.835521   2.093899   3.236214
    14  H    3.700981   4.288065   3.502150   2.142392   2.601489
    15  H    3.900847   4.182540   3.256182   2.088201   1.102037
    16  H    2.725196   3.538759   3.315690   2.090916   1.101638
    17  H    2.962514   3.084257   2.693962   2.156263   1.088675
    18  C    3.600708   2.688999   1.529502   2.545134   3.878451
    19  H    4.442468   3.637392   2.175820   2.826219   4.059874
    20  H    4.120147   2.935309   2.159801   3.469884   4.689680
    21  H    3.606843   2.952967   2.192223   2.857181   4.311972
    22  C    2.416082   1.526462   2.635874   3.626869   4.616902
    23  H    3.374602   2.189118   2.925395   4.201634   5.221783
    24  H    2.627435   2.124484   3.567927   4.405288   5.206903
    25  H    2.700118   2.183287   2.888280   3.648745   4.836663
    26  C    2.384226   1.529138   2.586565   3.436441   3.646217
    27  H    2.634640   2.145737   3.544480   4.275965   4.412637
    28  H    3.346563   2.182187   2.843437   3.998882   4.327430
    29  H    2.632082   2.177451   2.804636   3.301859   3.073239
                    6          7          8          9         10
     6  Fe   0.000000
     7  Cl   2.233765   0.000000
     8  C    3.671278   3.727194   0.000000
     9  Cl   2.191296   3.778174   5.830531   0.000000
    10  Cl   2.257046   3.641920   3.460451   3.692775   0.000000
    11  H    4.858592   5.625630   3.375242   6.382561   5.425435
    12  H    4.607215   4.794401   1.097811   6.722434   3.991060
    13  H    2.967941   3.455657   1.109889   5.080708   2.362882
    14  H    3.946527   3.357902   1.089724   6.132392   3.902326
    15  H    4.972538   4.319813   2.760587   6.895819   5.794740
    16  H    3.485550   2.702774   2.718934   5.304936   4.766716
    17  H    4.434275   4.313775   3.460026   5.994048   5.722894
    18  C    4.823375   5.939930   2.938560   6.458042   4.435320
    19  H    5.641540   6.464583   3.039964   7.419684   5.153385
    20  H    5.426633   6.776002   4.011463   6.792196   5.076391
    21  H    4.438597   5.679915   2.779401   6.082730   3.602830
    22  C    3.409669   5.333873   4.243406   4.183188   3.641274
    23  H    4.501903   6.377340   4.893577   5.171682   4.568807
    24  H    3.296245   5.386114   5.026463   3.469288   3.846160
    25  H    3.231099   5.172216   3.874777   4.224011   2.806954
    26  C    4.084541   5.338400   4.705888   4.809693   5.335224
    27  H    4.016002   5.430788   5.440842   4.223963   5.479468
    28  H    5.048824   6.372571   5.278317   5.726448   6.037611
    29  H    4.359199   5.157710   4.693101   5.234444   5.826795
                   11         12         13         14         15
    11  H    0.000000
    12  H    3.548880   0.000000
    13  H    3.839283   1.742031   0.000000
    14  H    4.182630   1.808196   1.788532   0.000000
    15  H    3.212548   3.296181   3.715298   2.598850   0.000000
    16  H    3.598904   3.687147   3.227797   2.512589   1.758763
    17  H    2.418066   4.141365   4.089766   3.676498   1.795526
    18  C    2.157867   2.645842   3.041605   4.006624   4.338030
    19  H    2.509066   2.419550   3.421939   4.004472   4.240452
    20  H    2.473955   3.726649   4.025970   5.082305   5.205394
    21  H    3.084383   2.472960   2.529511   3.853693   4.812699
    22  C    3.314283   4.609340   3.745699   5.179108   5.563111
    23  H    3.371825   5.069059   4.511808   5.903114   6.093201
    24  H    4.171346   5.523768   4.433248   5.862433   6.233365
    25  H    3.793364   4.154193   3.175846   4.819497   5.706705
    26  C    2.475476   5.267622   4.711126   5.427131   4.622839
    27  H    3.559294   6.094094   5.286767   6.107642   5.450929
    28  H    2.479015   5.653783   5.337983   6.095816   5.183868
    29  H    2.451093   5.326073   4.902459   5.253137   3.990461
                   16         17         18         19         20
    16  H    0.000000
    17  H    1.802333   0.000000
    18  C    4.604981   4.147880   0.000000
    19  H    4.891962   4.408902   1.095971   0.000000
    20  H    5.451098   4.756017   1.092338   1.762843   0.000000
    21  H    4.834130   4.753265   1.092364   1.775268   1.765649
    22  C    4.899115   4.602290   2.881833   3.975883   2.788558
    23  H    5.674321   5.097904   2.845127   3.888761   2.338950
    24  H    5.320897   5.112150   3.972655   5.064696   3.849379
    25  H    5.042263   5.057040   2.769684   3.819790   2.871983
    26  C    4.061589   3.061140   3.748664   4.580918   3.721322
    27  H    4.609694   3.835804   4.633736   5.548450   4.554449
    28  H    4.922297   3.688456   3.708322   4.481008   3.393700
    29  H    3.510576   2.262158   4.192851   4.849683   4.331349
                   21         22         23         24         25
    21  H    0.000000
    22  C    2.791858   0.000000
    23  H    2.945356   1.094165   0.000000
    24  H    3.828889   1.095635   1.773816   0.000000
    25  H    2.269718   1.091157   1.785717   1.763803   0.000000
    26  C    4.276887   2.509826   2.766854   2.713899   3.474300
    27  H    5.005817   2.724517   3.072847   2.468720   3.725335
    28  H    4.386259   2.778145   2.585468   3.104608   3.792114
    29  H    4.819614   3.469789   3.789240   3.703993   4.327599
                   26         27         28         29
    26  C    0.000000
    27  H    1.094204   0.000000
    28  H    1.095862   1.781667   0.000000
    29  H    1.093982   1.767506   1.782293   0.000000
 Framework group  C1[X(C8H16Cl3FeO)]
 Deg. of freedom    81
                         Standard orientation:                         
 ---------------------------------------------------------------------
 Center     Atomic      Atomic             Coordinates (Angstroms)
 Number     Number       Type             X           Y           Z
 ---------------------------------------------------------------------
      1          8           0       -0.279920   -0.386611   -0.703604
      2          6           0       -1.411274   -1.205838   -0.489131
      3          6           0       -2.647365   -0.200590   -0.060111
      4          6           0       -2.060126    1.154915   -0.240348
      5          6           0       -1.927333    1.748178   -1.578381
      6         26           0        1.356682    0.021492    0.003803
      7         17           0        1.669880    2.076119   -0.814805
      8          6           0       -1.632827    1.951085    0.908119
      9         17           0        2.848164   -1.500414   -0.507141
     10         17           0        1.032390    0.184703    2.231460
     11          1           0       -3.417076   -0.326033   -0.830688
     12          1           0       -2.451661    2.037605    1.634214
     13          1           0       -0.846727    1.385612    1.450467
     14          1           0       -1.236659    2.928691    0.634559
     15          1           0       -2.536729    2.666131   -1.600369
     16          1           0       -0.883000    2.076199   -1.702381
     17          1           0       -2.221860    1.084284   -2.389376
     18          6           0       -3.259212   -0.461951    1.317100
     19          1           0       -4.071781    0.243960    1.523432
     20          1           0       -3.685721   -1.467110    1.347896
     21          1           0       -2.523233   -0.385969    2.120730
     22          6           0       -1.119548   -2.248870    0.586539
     23          1           0       -1.962369   -2.928623    0.743972
     24          1           0       -0.264240   -2.838999    0.239245
     25          1           0       -0.837997   -1.789091    1.535199
     26          6           0       -1.765063   -1.886946   -1.811700
     27          1           0       -0.922649   -2.514564   -2.117833
     28          1           0       -2.657421   -2.515135   -1.711751
     29          1           0       -1.936134   -1.149696   -2.601633
 ---------------------------------------------------------------------
 Rotational constants (GHZ):           0.5714863           0.3655802           0.3289041
   427 basis functions,  1056 primitive gaussians,   461 cartesian basis functions
    77 alpha electrons       72 beta electrons
       nuclear repulsion energy      1662.5577042550 Hartrees.
 NAtoms=   29 NActive=   29 NUniq=   29 SFac= 1.00D+00 NAtFMM=   60 NAOKFM=F Big=F
 Nuclear repulsion after empirical dispersion term =     1662.4882905630 Hartrees.
 Initial guess from the checkpoint file:  "checkpoint.chk"
 B after Tr=     0.000000    0.000000    0.000000
         Rot=    1.000000    0.000000    0.000000    0.000000 Ang=   0.00 deg.
 Initial guess <Sx>= 0.0000 <Sy>= 0.0000 <Sz>= 2.5000 <S**2>= 8.7624 S= 2.5021
 SCF Done:  E(UB3LYP) =  -3034.38845722     A.U. after    1 cycles
            NFock=  1  Conv=0.63D-08     -V/T= 2.0025
 <Sx>= 0.0000 <Sy>= 0.0000 <Sz>= 2.5000 <S**2>= 8.7624 S= 2.5021
 <L.S>= 0.000000000000E+00
 Annihilation of the first spin contaminant:
 S**2 before annihilation     8.7624,   after     8.7500
 1\1\GINC-HOLY7C06101\SP\UB3LYP\Jul-CC-pVDZ\C8H16Cl3Fe1O1(6)\EKWAN\11-F
 eb-2020\0\\#t pop=none jul-cc-pvdz guess=read ub3lyp empiricaldispersi
 on=gd3bj\\theory_abbreviation b3lyp_d3bj\\0,6\O,0,-0.27992,-0.386611,-
 0.703604\C,0,-1.411274,-1.205838,-0.489131\C,0,-2.647365,-0.20059,-0.0
 60111\C,0,-2.060126,1.154915,-0.240348\C,0,-1.927333,1.748178,-1.57838
 1\Fe,0,1.356682,0.021492,0.003803\Cl,0,1.66988,2.076119,-0.814805\C,0,
 -1.632827,1.951085,0.908119\Cl,0,2.848164,-1.500414,-0.507141\Cl,0,1.0
 3239,0.184703,2.23146\H,0,-3.417076,-0.326033,-0.830688\H,0,-2.451661,
 2.037605,1.634214\H,0,-0.846727,1.385612,1.450467\H,0,-1.236659,2.9286
 91,0.634559\H,0,-2.536729,2.666131,-1.600369\H,0,-0.883,2.076199,-1.70
 2381\H,0,-2.22186,1.084284,-2.389376\C,0,-3.259212,-0.461951,1.3171\H,
 0,-4.071781,0.24396,1.523432\H,0,-3.685721,-1.46711,1.347896\H,0,-2.52
 3233,-0.385969,2.12073\C,0,-1.119548,-2.24887,0.586539\H,0,-1.962369,-
 2.928623,0.743972\H,0,-0.26424,-2.838999,0.239245\H,0,-0.837997,-1.789
 091,1.535199\C,0,-1.765063,-1.886946,-1.8117\H,0,-0.922649,-2.514564,-
 2.117833\H,0,-2.657421,-2.515135,-1.711751\H,0,-1.936134,-1.149696,-2.
 601633\\Version=ES64L-G16RevA.03\HF=-3034.3884572\S2=8.762361\S2-1=0.\
 S2A=8.750048\RMSD=6.259e-09\PG=C01 [X(C8H16Cl3Fe1O1)]\\@


     "IF I COULD JUST GET IT ON PAPER"
 LIFE AND INK, THEY RUN OUT AT THE SAME TIME,
 OR SO SAID MY OLD FRIEND THE SQUID.
     -- JIMMY BUFFETT, 1981
 Job cpu time:       0 days  0 hours  4 minutes 41.2 seconds.
 Elapsed time:       0 days  0 hours  1 minutes 11.1 seconds.
 File lengths (MBytes):  RWF=    170 Int=      0 D2E=      0 Chk=     13 Scr=      1
 Normal termination of Gaussian 16 at Tue Feb 11 14:12:37 2020.
 Initial command:
 /n/sw/g16_nehalem/g16/l1.exe "/scratch/Gau-359382.inp" -scrdir="/scratch/"
 Entering Link 1 = /n/sw/g16_nehalem/g16/l1.exe PID=    363764.
  
 Copyright (c) 1988,1990,1992,1993,1995,1998,2003,2009,2016,
            Gaussian, Inc.  All Rights Reserved.
  
 This is part of the Gaussian(R) 16 program.  It is based on
 the Gaussian(R) 09 system (copyright 2009, Gaussian, Inc.),
 the Gaussian(R) 03 system (copyright 2003, Gaussian, Inc.),
 the Gaussian(R) 98 system (copyright 1998, Gaussian, Inc.),
 the Gaussian(R) 94 system (copyright 1995, Gaussian, Inc.),
 the Gaussian 92(TM) system (copyright 1992, Gaussian, Inc.),
 the Gaussian 90(TM) system (copyright 1990, Gaussian, Inc.),
 the Gaussian 88(TM) system (copyright 1988, Gaussian, Inc.),
 the Gaussian 86(TM) system (copyright 1986, Carnegie Mellon
 University), and the Gaussian 82(TM) system (copyright 1983,
 Carnegie Mellon University). Gaussian is a federally registered
 trademark of Gaussian, Inc.
  
 This software contains proprietary and confidential information,
 including trade secrets, belonging to Gaussian, Inc.
  
 This software is provided under written license and may be
 used, copied, transmitted, or stored only in accord with that
 written license.
  
 The following legend is applicable only to US Government
 contracts under FAR:
  
                    RESTRICTED RIGHTS LEGEND
  
 Use, reproduction and disclosure by the US Government is
 subject to restrictions as set forth in subparagraphs (a)
 and (c) of the Commercial Computer Software - Restricted
 Rights clause in FAR 52.227-19.
  
 Gaussian, Inc.
 340 Quinnipiac St., Bldg. 40, Wallingford CT 06492
  
  
 ---------------------------------------------------------------
 Warning -- This program may not be used in any manner that
 competes with the business of Gaussian, Inc. or will provide
 assistance to any competitor of Gaussian, Inc.  The licensee
 of this program is prohibited from giving any competitor of
 Gaussian, Inc. access to this program.  By using this program,
 the user acknowledges that Gaussian, Inc. is engaged in the
 business of creating and licensing software in the field of
 computational chemistry and represents and warrants to the
 licensee that it is not a competitor of Gaussian, Inc. and that
 it will not use this program in any manner prohibited above.
 ---------------------------------------------------------------
  

 Cite this work as:
 Gaussian 16, Revision A.03,
 M. J. Frisch, G. W. Trucks, H. B. Schlegel, G. E. Scuseria, 
 M. A. Robb, J. R. Cheeseman, G. Scalmani, V. Barone, 
 G. A. Petersson, H. Nakatsuji, X. Li, M. Caricato, A. V. Marenich, 
 J. Bloino, B. G. Janesko, R. Gomperts, B. Mennucci, H. P. Hratchian, 
 J. V. Ortiz, A. F. Izmaylov, J. L. Sonnenberg, D. Williams-Young, 
 F. Ding, F. Lipparini, F. Egidi, J. Goings, B. Peng, A. Petrone, 
 T. Henderson, D. Ranasinghe, V. G. Zakrzewski, J. Gao, N. Rega, 
 G. Zheng, W. Liang, M. Hada, M. Ehara, K. Toyota, R. Fukuda, 
 J. Hasegawa, M. Ishida, T. Nakajima, Y. Honda, O. Kitao, H. Nakai, 
 T. Vreven, K. Throssell, J. A. Montgomery, Jr., J. E. Peralta, 
 F. Ogliaro, M. J. Bearpark, J. J. Heyd, E. N. Brothers, K. N. Kudin, 
 V. N. Staroverov, T. A. Keith, R. Kobayashi, J. Normand, 
 K. Raghavachari, A. P. Rendell, J. C. Burant, S. S. Iyengar, 
 J. Tomasi, M. Cossi, J. M. Millam, M. Klene, C. Adamo, R. Cammi, 
 J. W. Ochterski, R. L. Martin, K. Morokuma, O. Farkas, 
 J. B. Foresman, and D. J. Fox, Gaussian, Inc., Wallingford CT, 2016.
 
 ******************************************
 Gaussian 16:  ES64L-G16RevA.03 25-Dec-2016
                11-Feb-2020 
 ******************************************
 %chk=checkpoint.chk
 %mem=3GB
 %nprocshared=4
 Will use up to    4 processors via shared memory.
 ----------------------------------------
 #t pop=none jul-cc-pvdz guess=read ub97d
 ----------------------------------------
 ------------------------
 theory_abbreviation b97d
 ------------------------
 Symbolic Z-matrix:
 Charge =  0 Multiplicity = 6
 O                    -0.27992  -0.38661  -0.7036 
 C                    -1.41127  -1.20584  -0.48913 
 C                    -2.64737  -0.20059  -0.06011 
 C                    -2.06013   1.15492  -0.24035 
 C                    -1.92733   1.74818  -1.57838 
 Fe                    1.35668   0.02149   0.0038 
 Cl                    1.66988   2.07612  -0.81481 
 C                    -1.63283   1.95109   0.90812 
 Cl                    2.84816  -1.50041  -0.50714 
 Cl                    1.03239   0.1847    2.23146 
 H                    -3.41708  -0.32603  -0.83069 
 H                    -2.45166   2.03761   1.63421 
 H                    -0.84673   1.38561   1.45047 
 H                    -1.23666   2.92869   0.63456 
 H                    -2.53673   2.66613  -1.60037 
 H                    -0.883     2.0762   -1.70238 
 H                    -2.22186   1.08428  -2.38938 
 C                    -3.25921  -0.46195   1.3171 
 H                    -4.07178   0.24396   1.52343 
 H                    -3.68572  -1.46711   1.3479 
 H                    -2.52323  -0.38597   2.12073 
 C                    -1.11955  -2.24887   0.58654 
 H                    -1.96237  -2.92862   0.74397 
 H                    -0.26424  -2.839     0.23925 
 H                    -0.838    -1.78909   1.5352 
 C                    -1.76506  -1.88695  -1.8117 
 H                    -0.92265  -2.51456  -2.11783 
 H                    -2.65742  -2.51514  -1.71175 
 H                    -1.93613  -1.1497   -2.60163 
 
                    Distance matrix (angstroms):
                    1          2          3          4          5
     1  O    0.000000
     2  C    1.413186   0.000000
     3  C    2.460383   1.650001   0.000000
     4  C    2.400009   2.460906   1.488197   0.000000
     5  C    2.834877   3.190453   2.573186   1.469669   0.000000
     6  Fe   1.829054   3.067720   4.010710   3.608162   4.033547
     7  Cl   3.143107   4.513404   4.938782   3.884786   3.691955
     8  C    3.145287   3.459416   2.568358   1.461317   2.512088
     9  Cl   3.326269   4.269650   5.664823   5.586883   5.874204
    10  Cl   3.265449   3.912380   4.352051   4.076126   5.071420
    11  H    3.140313   2.216745   1.096348   2.093567   2.660964
    12  H    4.007328   4.013841   2.813993   2.108655   3.267943
    13  H    2.846413   3.285783   2.835521   2.093899   3.236214
    14  H    3.700981   4.288065   3.502150   2.142392   2.601489
    15  H    3.900847   4.182540   3.256182   2.088201   1.102037
    16  H    2.725196   3.538759   3.315690   2.090916   1.101638
    17  H    2.962514   3.084257   2.693962   2.156263   1.088675
    18  C    3.600708   2.688999   1.529502   2.545134   3.878451
    19  H    4.442468   3.637392   2.175820   2.826219   4.059874
    20  H    4.120147   2.935309   2.159801   3.469884   4.689680
    21  H    3.606843   2.952967   2.192223   2.857181   4.311972
    22  C    2.416082   1.526462   2.635874   3.626869   4.616902
    23  H    3.374602   2.189118   2.925395   4.201634   5.221783
    24  H    2.627435   2.124484   3.567927   4.405288   5.206903
    25  H    2.700118   2.183287   2.888280   3.648745   4.836663
    26  C    2.384226   1.529138   2.586565   3.436441   3.646217
    27  H    2.634640   2.145737   3.544480   4.275965   4.412637
    28  H    3.346563   2.182187   2.843437   3.998882   4.327430
    29  H    2.632082   2.177451   2.804636   3.301859   3.073239
                    6          7          8          9         10
     6  Fe   0.000000
     7  Cl   2.233765   0.000000
     8  C    3.671278   3.727194   0.000000
     9  Cl   2.191296   3.778174   5.830531   0.000000
    10  Cl   2.257046   3.641920   3.460451   3.692775   0.000000
    11  H    4.858592   5.625630   3.375242   6.382561   5.425435
    12  H    4.607215   4.794401   1.097811   6.722434   3.991060
    13  H    2.967941   3.455657   1.109889   5.080708   2.362882
    14  H    3.946527   3.357902   1.089724   6.132392   3.902326
    15  H    4.972538   4.319813   2.760587   6.895819   5.794740
    16  H    3.485550   2.702774   2.718934   5.304936   4.766716
    17  H    4.434275   4.313775   3.460026   5.994048   5.722894
    18  C    4.823375   5.939930   2.938560   6.458042   4.435320
    19  H    5.641540   6.464583   3.039964   7.419684   5.153385
    20  H    5.426633   6.776002   4.011463   6.792196   5.076391
    21  H    4.438597   5.679915   2.779401   6.082730   3.602830
    22  C    3.409669   5.333873   4.243406   4.183188   3.641274
    23  H    4.501903   6.377340   4.893577   5.171682   4.568807
    24  H    3.296245   5.386114   5.026463   3.469288   3.846160
    25  H    3.231099   5.172216   3.874777   4.224011   2.806954
    26  C    4.084541   5.338400   4.705888   4.809693   5.335224
    27  H    4.016002   5.430788   5.440842   4.223963   5.479468
    28  H    5.048824   6.372571   5.278317   5.726448   6.037611
    29  H    4.359199   5.157710   4.693101   5.234444   5.826795
                   11         12         13         14         15
    11  H    0.000000
    12  H    3.548880   0.000000
    13  H    3.839283   1.742031   0.000000
    14  H    4.182630   1.808196   1.788532   0.000000
    15  H    3.212548   3.296181   3.715298   2.598850   0.000000
    16  H    3.598904   3.687147   3.227797   2.512589   1.758763
    17  H    2.418066   4.141365   4.089766   3.676498   1.795526
    18  C    2.157867   2.645842   3.041605   4.006624   4.338030
    19  H    2.509066   2.419550   3.421939   4.004472   4.240452
    20  H    2.473955   3.726649   4.025970   5.082305   5.205394
    21  H    3.084383   2.472960   2.529511   3.853693   4.812699
    22  C    3.314283   4.609340   3.745699   5.179108   5.563111
    23  H    3.371825   5.069059   4.511808   5.903114   6.093201
    24  H    4.171346   5.523768   4.433248   5.862433   6.233365
    25  H    3.793364   4.154193   3.175846   4.819497   5.706705
    26  C    2.475476   5.267622   4.711126   5.427131   4.622839
    27  H    3.559294   6.094094   5.286767   6.107642   5.450929
    28  H    2.479015   5.653783   5.337983   6.095816   5.183868
    29  H    2.451093   5.326073   4.902459   5.253137   3.990461
                   16         17         18         19         20
    16  H    0.000000
    17  H    1.802333   0.000000
    18  C    4.604981   4.147880   0.000000
    19  H    4.891962   4.408902   1.095971   0.000000
    20  H    5.451098   4.756017   1.092338   1.762843   0.000000
[...]
 ---------------------------------------------------------------------
 Rotational constants (GHZ):           0.5714863           0.3655802           0.3289041
   427 basis functions,  1056 primitive gaussians,   461 cartesian basis functions
    77 alpha electrons       72 beta electrons
       nuclear repulsion energy      1662.5577042550 Hartrees.
 NAtoms=   29 NActive=   29 NUniq=   29 SFac= 1.00D+00 NAtFMM=   60 NAOKFM=F Big=F
 Nuclear repulsion after empirical dispersion term =     1662.5552874615 Hartrees.
 Initial guess from the checkpoint file:  "checkpoint.chk"
 B after Tr=     0.000000    0.000000    0.000000
         Rot=    1.000000    0.000000    0.000000    0.000000 Ang=   0.00 deg.
 Initial guess <Sx>= 0.0000 <Sy>= 0.0000 <Sz>= 2.5000 <S**2>= 8.7620 S= 2.5020
 SCF Done:  E(UM06L) =  -3034.18485897     A.U. after   18 cycles
            NFock= 18  Conv=0.33D-08     -V/T= 2.0020
 <Sx>= 0.0000 <Sy>= 0.0000 <Sz>= 2.5000 <S**2>= 8.7626 S= 2.5021
 <L.S>= 0.000000000000E+00
 Annihilation of the first spin contaminant:
 S**2 before annihilation     8.7626,   after     8.7501
 1\1\GINC-HOLY7C06101\SP\UM06L\Jul-CC-pVDZ\C8H16Cl3Fe1O1(6)\EKWAN\11-Fe
 b-2020\0\\#t pop=none jul-cc-pvdz guess=read um06l empiricaldispersion
 =gd3\\theory_abbreviation m06l_d3\\0,6\O,0,-0.27992,-0.386611,-0.70360
 4\C,0,-1.411274,-1.205838,-0.489131\C,0,-2.647365,-0.20059,-0.060111\C
 ,0,-2.060126,1.154915,-0.240348\C,0,-1.927333,1.748178,-1.578381\Fe,0,
 1.356682,0.021492,0.003803\Cl,0,1.66988,2.076119,-0.814805\C,0,-1.6328
 27,1.951085,0.908119\Cl,0,2.848164,-1.500414,-0.507141\Cl,0,1.03239,0.
 184703,2.23146\H,0,-3.417076,-0.326033,-0.830688\H,0,-2.451661,2.03760
 5,1.634214\H,0,-0.846727,1.385612,1.450467\H,0,-1.236659,2.928691,0.63
 4559\H,0,-2.536729,2.666131,-1.600369\H,0,-0.883,2.076199,-1.702381\H,
 0,-2.22186,1.084284,-2.389376\C,0,-3.259212,-0.461951,1.3171\H,0,-4.07
 1781,0.24396,1.523432\H,0,-3.685721,-1.46711,1.347896\H,0,-2.523233,-0
 .385969,2.12073\C,0,-1.119548,-2.24887,0.586539\H,0,-1.962369,-2.92862
 3,0.743972\H,0,-0.26424,-2.838999,0.239245\H,0,-0.837997,-1.789091,1.5
 35199\C,0,-1.765063,-1.886946,-1.8117\H,0,-0.922649,-2.514564,-2.11783
 3\H,0,-2.657421,-2.515135,-1.711751\H,0,-1.936134,-1.149696,-2.601633\
 \Version=ES64L-G16RevA.03\HF=-3034.184859\S2=8.762644\S2-1=0.\S2A=8.75
 0052\RMSD=3.255e-09\PG=C01 [X(C8H16Cl3Fe1O1)]\\@


 IT CANNOT BE MY BEAUTY, FOR I HAVE NONE; AND IT CANNOT BE MY WIT,
 FOR HE HAS NOT ENOUGH TO KNOW THAT I HAVE ANY.
 -- CATHARINE SEDLEY, PUZZLED ABOUT WHY SHE WAS MISTRESS TO JAMES II
 Job cpu time:       0 days  1 hours 22 minutes 17.7 seconds.
 Elapsed time:       0 days  0 hours 20 minutes 51.7 seconds.
 File lengths (MBytes):  RWF=    174 Int=      0 D2E=      0 Chk=     13 Scr=      1
 Normal termination of Gaussian 16 at Tue Feb 11 23:09:37 2020.
 Initial command:
 /n/sw/g16_nehalem/g16/l1.exe "/scratch/Gau-359382.inp" -scrdir="/scratch/"
 Entering Link 1 = /n/sw/g16_nehalem/g16/l1.exe PID=    408703.
  
 Copyright (c) 1988,1990,1992,1993,1995,1998,2003,2009,2016,
            Gaussian, Inc.  All Rights Reserved.
  
 This is part of the Gaussian(R) 16 program.  It is based on
 the Gaussian(R) 09 system (copyright 2009, Gaussian, Inc.),
 the Gaussian(R) 03 system (copyright 2003, Gaussian, Inc.),
 the Gaussian(R) 98 system (copyright 1998, Gaussian, Inc.),
 the Gaussian(R) 94 system (copyright 1995, Gaussian, Inc.),
 the Gaussian 92(TM) system (copyright 1992, Gaussian, Inc.),
 the Gaussian 90(TM) system (copyright 1990, Gaussian, Inc.),
 the Gaussian 88(TM) system (copyright 1988, Gaussian, Inc.),
 the Gaussian 86(TM) system (copyright 1986, Carnegie Mellon
 University), and the Gaussian 82(TM) system (copyright 1983,
 Carnegie Mellon University). Gaussian is a federally registered
 trademark of Gaussian, Inc.
  
 This software contains proprietary and confidential information,
 including trade secrets, belonging to Gaussian, Inc.
  
 This software is provided under written license and may be
 used, copied, transmitted, or stored only in accord with that
 written license.
  
 The following legend is applicable only to US Government
 contracts under FAR:
  
                    RESTRICTED RIGHTS LEGEND
  
 Use, reproduction and disclosure by the US Government is
 subject to restrictions as set forth in subparagraphs (a)
 and (c) of the Commercial Computer Software - Restricted
 Rights clause in FAR 52.227-19.
  
 Gaussian, Inc.
 340 Quinnipiac St., Bldg. 40, Wallingford CT 06492
  
  
 ---------------------------------------------------------------
 Warning -- This program may not be used in any manner that
 competes with the business of Gaussian, Inc. or will provide
 assistance to any competitor of Gaussian, Inc.  The licensee
 of this program is prohibited from giving any competitor of
 Gaussian, Inc. access to this program.  By using this program,
 the user acknowledges that Gaussian, Inc. is engaged in the
 business of creating and licensing software in the field of
 computational chemistry and represents and warrants to the
 licensee that it is not a competitor of Gaussian, Inc. and that
 it will not use this program in any manner prohibited above.
 ---------------------------------------------------------------
  

 Cite this work as:
 Gaussian 16, Revision A.03,
 M. J. Frisch, G. W. Trucks, H. B. Schlegel, G. E. Scuseria, 
 M. A. Robb, J. R. Cheeseman, G. Scalmani, V. Barone, 
 G. A. Petersson, H. Nakatsuji, X. Li, M. Caricato, A. V. Marenich, 
 J. Bloino, B. G. Janesko, R. Gomperts, B. Mennucci, H. P. Hratchian, 
 J. V. Ortiz, A. F. Izmaylov, J. L. Sonnenberg, D. Williams-Young, 
 F. Ding, F. Lipparini, F. Egidi, J. Goings, B. Peng, A. Petrone, 
 T. Henderson, D. Ranasinghe, V. G. Zakrzewski, J. Gao, N. Rega, 
 G. Zheng, W. Liang, M. Hada, M. Ehara, K. Toyota, R. Fukuda, 
 J. Hasegawa, M. Ishida, T. Nakajima, Y. Honda, O. Kitao, H. Nakai, 
 T. Vreven, K. Throssell, J. A. Montgomery, Jr., J. E. Peralta, 
 F. Ogliaro, M. J. Bearpark, J. J. Heyd, E. N. Brothers, K. N. Kudin, 
 V. N. Staroverov, T. A. Keith, R. Kobayashi, J. Normand, 
 K. Raghavachari, A. P. Rendell, J. C. Burant, S. S. Iyengar, 
 J. Tomasi, M. Cossi, J. M. Millam, M. Klene, C. Adamo, R. Cammi, 
 J. W. Ochterski, R. L. Martin, K. Morokuma, O. Farkas, 
 J. B. Foresman, and D. J. Fox, Gaussian, Inc., Wallingford CT, 2016.
 
 ******************************************
 Gaussian 16:  ES64L-G16RevA.03 25-Dec-2016
                11-Feb-2020 
 ******************************************
 %chk=checkpoint.chk
 %mem=3GB
 %nprocshared=4
 Will use up to    4 processors via shared memory.
 -------------------------------------------------------------------
 #t pop=none jul-cc-pvdz guess=read ub97d3 empiricaldispersion=gd3bj
 -------------------------------------------------------------------
 ------------------------------
 theory_abbreviation b97d3_d3bj
 ------------------------------
 Symbolic Z-matrix:
 Charge =  0 Multiplicity = 6
 O                    -0.27992  -0.38661  -0.7036 
 C                    -1.41127  -1.20584  -0.48913 
 C                    -2.64737  -0.20059  -0.06011 
 C                    -2.06013   1.15492  -0.24035 
 C                    -1.92733   1.74818  -1.57838 
 Fe                    1.35668   0.02149   0.0038 
 Cl                    1.66988   2.07612  -0.81481 
 C                    -1.63283   1.95109   0.90812 
 Cl                    2.84816  -1.50041  -0.50714 
 Cl                    1.03239   0.1847    2.23146 
 H                    -3.41708  -0.32603  -0.83069 
 H                    -2.45166   2.03761   1.63421 
 H                    -0.84673   1.38561   1.45047 
 H                    -1.23666   2.92869   0.63456 
 H                    -2.53673   2.66613  -1.60037 
 H                    -0.883     2.0762   -1.70238 
 H                    -2.22186   1.08428  -2.38938 
 C                    -3.25921  -0.46195   1.3171 
 H                    -4.07178   0.24396   1.52343 
 H                    -3.68572  -1.46711   1.3479 
 H                    -2.52323  -0.38597   2.12073 
 C                    -1.11955  -2.24887   0.58654 
 H                    -1.96237  -2.92862   0.74397 
 H                    -0.26424  -2.839     0.23925 
 H                    -0.838    -1.78909   1.5352 
 C                    -1.76506  -1.88695  -1.8117 
 H                    -0.92265  -2.51456  -2.11783 
 H                    -2.65742  -2.51514  -1.71175 
 H                    -1.93613  -1.1497   -2.60163 
 
                    Distance matrix (angstroms):
                    1          2          3          4          5
     1  O    0.000000
     2  C    1.413186   0.000000
     3  C    2.460383   1.650001   0.000000
     4  C    2.400009   2.460906   1.488197   0.000000
     5  C    2.834877   3.190453   2.573186   1.469669   0.000000
     6  Fe   1.829054   3.067720   4.010710   3.608162   4.033547
     7  Cl   3.143107   4.513404   4.938782   3.884786   3.691955
     8  C    3.145287   3.459416   2.568358   1.461317   2.512088
     9  Cl   3.326269   4.269650   5.664823   5.586883   5.874204
    10  Cl   3.265449   3.912380   4.352051   4.076126   5.071420
    11  H    3.140313   2.216745   1.096348   2.093567   2.660964
    12  H    4.007328   4.013841   2.813993   2.108655   3.267943
    13  H    2.846413   3.285783   2.835521   2.093899   3.236214
    14  H    3.700981   4.288065   3.502150   2.142392   2.601489
    15  H    3.900847   4.182540   3.256182   2.088201   1.102037
    16  H    2.725196   3.538759   3.315690   2.090916   1.101638
    17  H    2.962514   3.084257   2.693962   2.156263   1.088675
    18  C    3.600708   2.688999   1.529502   2.545134   3.878451
    19  H    4.442468   3.637392   2.175820   2.826219   4.059874
    20  H    4.120147   2.935309   2.159801   3.469884   4.689680
    21  H    3.606843   2.952967   2.192223   2.857181   4.311972
    22  C    2.416082   1.526462   2.635874   3.626869   4.616902
    23  H    3.374602   2.189118   2.925395   4.201634   5.221783
    24  H    2.627435   2.124484   3.567927   4.405288   5.206903
    25  H    2.700118   2.183287   2.888280   3.648745   4.836663
    26  C    2.384226   1.529138   2.586565   3.436441   3.646217
    27  H    2.634640   2.145737   3.544480   4.275965   4.412637
    28  H    3.346563   2.182187   2.843437   3.998882   4.327430
    29  H    2.632082   2.177451   2.804636   3.301859   3.073239
                    6          7          8          9         10
     6  Fe   0.000000
     7  Cl   2.233765   0.000000
     8  C    3.671278   3.727194   0.000000
     9  Cl   2.191296   3.778174   5.830531   0.000000
    10  Cl   2.257046   3.641920   3.460451   3.692775   0.000000
    11  H    4.858592   5.625630   3.375242   6.382561   5.425435
    12  H    4.607215   4.794401   1.097811   6.722434   3.991060
    13  H    2.967941   3.455657   1.109889   5.080708   2.362882
    14  H    3.946527   3.357902   1.089724   6.132392   3.902326
    15  H    4.972538   4.319813   2.760587   6.895819   5.794740
    16  H    3.485550   2.702774   2.718934   5.304936   4.766716
    17  H    4.434275   4.313775   3.460026   5.994048   5.722894
    18  C    4.823375   5.939930   2.938560   6.458042   4.435320
    19  H    5.641540   6.464583   3.039964   7.419684   5.153385
    20  H    5.426633   6.776002   4.011463   6.792196   5.076391
    21  H    4.438597   5.679915   2.779401   6.082730   3.602830
    22  C    3.409669   5.333873   4.243406   4.183188   3.641274
    23  H    4.501903   6.377340   4.893577   5.171682   4.568807
    24  H    3.296245   5.386114   5.026463   3.469288   3.846160
    25  H    3.231099   5.172216   3.874777   4.224011   2.806954
    26  C    4.084541   5.338400   4.705888   4.809693   5.335224
    27  H    4.016002   5.430788   5.440842   4.223963   5.479468
    28  H    5.048824   6.372571   5.278317   5.726448   6.037611
    29  H    4.359199   5.157710   4.693101   5.234444   5.826795
                   11         12         13         14         15
    11  H    0.000000
    12  H    3.548880   0.000000
    13  H    3.839283   1.742031   0.000000
    14  H    4.182630   1.808196   1.788532   0.000000
    15  H    3.212548   3.296181   3.715298   2.598850   0.000000
    16  H    3.598904   3.687147   3.227797   2.512589   1.758763
    17  H    2.418066   4.141365   4.089766   3.676498   1.795526
    18  C    2.157867   2.645842   3.041605   4.006624   4.338030
    19  H    2.509066   2.419550   3.421939   4.004472   4.240452
    20  H    2.473955   3.726649   4.025970   5.082305   5.205394
    21  H    3.084383   2.472960   2.529511   3.853693   4.812699
    22  C    3.314283   4.609340   3.745699   5.179108   5.563111
    23  H    3.371825   5.069059   4.511808   5.903114   6.093201
    24  H    4.171346   5.523768   4.433248   5.862433   6.233365
    25  H    3.793364   4.154193   3.175846   4.819497   5.706705
    26  C    2.475476   5.267622   4.711126   5.427131   4.622839
    27  H    3.559294   6.094094   5.286767   6.107642   5.450929
    28  H    2.479015   5.653783   5.337983   6.095816   5.183868
    29  H    2.451093   5.326073   4.902459   5.253137   3.990461
                   16         17         18         19         20
    16  H    0.000000
    17  H    1.802333   0.000000
    18  C    4.604981   4.147880   0.000000
    19  H    4.891962   4.408902   1.095971   0.000000
    20  H    5.451098   4.756017   1.092338   1.762843   0.000000
    21  H    4.834130   4.753265   1.092364   1.775268   1.765649
    22  C    4.899115   4.602290   2.881833   3.975883   2.788558
    23  H    5.674321   5.097904   2.845127   3.888761   2.338950
    24  H    5.320897   5.112150   3.972655   5.064696   3.849379
    25  H    5.042263   5.057040   2.769684   3.819790   2.871983
    26  C    4.061589   3.061140   3.748664   4.580918   3.721322
    27  H    4.609694   3.835804   4.633736   5.548450   4.554449
    28  H    4.922297   3.688456   3.708322   4.481008   3.393700
    29  H    3.510576   2.262158   4.192851   4.849683   4.331349
                   21         22         23         24         25
    21  H    0.000000
    22  C    2.791858   0.000000
    23  H    2.945356   1.094165   0.000000
    24  H    3.828889   1.095635   1.773816   0.000000
    25  H    2.269718   1.091157   1.785717   1.763803   0.000000
    26  C    4.276887   2.509826   2.766854   2.713899   3.474300
    27  H    5.005817   2.724517   3.072847   2.468720   3.725335
    28  H    4.386259   2.778145   2.585468   3.104608   3.792114
    29  H    4.819614   3.469789   3.789240   3.703993   4.327599
                   26         27         28         29
    26  C    0.000000
    27  H    1.094204   0.000000
    28  H    1.095862   1.781667   0.000000
    29  H    1.093982   1.767506   1.782293   0.000000
 Framework group  C1[X(C8H16Cl3FeO)]
 Deg. of freedom    81
                         Standard orientation:                         
 ---------------------------------------------------------------------
 Center     Atomic      Atomic             Coordinates (Angstroms)
 Number     Number       Type             X           Y           Z
 ---------------------------------------------------------------------
      1          8           0       -0.279920   -0.386611   -0.703604
      2          6           0       -1.411274   -1.205838   -0.489131
      3          6           0       -2.647365   -0.200590   -0.060111
      4          6           0       -2.060126    1.154915   -0.240348
      5          6           0       -1.927333    1.748178   -1.578381
      6         26           0        1.356682    0.021492    0.003803
      7         17           0        1.669880    2.076119   -0.814805
      8          6           0       -1.632827    1.951085    0.908119
      9         17           0        2.848164   -1.500414   -0.507141
     10         17           0        1.032390    0.184703    2.231460
     11          1           0       -3.417076   -0.326033   -0.830688
     12          1           0       -2.451661    2.037605    1.634214
     13          1           0       -0.846727    1.385612    1.450467
     14          1           0       -1.236659    2.928691    0.634559
     15          1           0       -2.536729    2.666131   -1.600369
     16          1           0       -0.883000    2.076199   -1.702381
     17          1           0       -2.221860    1.084284   -2.389376
     18          6           0       -3.259212   -0.461951    1.317100
     19          1           0       -4.071781    0.243960    1.523432
     20          1           0       -3.685721   -1.467110    1.347896
     21          1           0       -2.523233   -0.385969    2.120730
     22          6           0       -1.119548   -2.248870    0.586539
     23          1           0       -1.962369   -2.928623    0.743972
     24          1           0       -0.264240   -2.838999    0.239245
     25          1           0       -0.837997   -1.789091    1.535199
     26          6           0       -1.765063   -1.886946   -1.811700
     27          1           0       -0.922649   -2.514564   -2.117833
     28          1           0       -2.657421   -2.515135   -1.711751
     29          1           0       -1.936134   -1.149696   -2.601633
 ---------------------------------------------------------------------
 Rotational constants (GHZ):           0.5714863           0.3655802           0.3289041
   427 basis functions,  1056 primitive gaussians,   461 cartesian basis functions
    77 alpha electrons       72 beta electrons
       nuclear repulsion energy      1662.5577042550 Hartrees.
 NAtoms=   29 NActive=   29 NUniq=   29 SFac= 1.00D+00 NAtFMM=   60 NAOKFM=F Big=F
 Nuclear repulsion after empirical dispersion term =     1662.4558242820 Hartrees.
 Initial guess from the checkpoint file:  "checkpoint.chk"
 B after Tr=     0.000000    0.000000    0.000000
         Rot=    1.000000    0.000000    0.000000    0.000000 Ang=   0.00 deg.
 Initial guess <Sx>= 0.0000 <Sy>= 0.0000 <Sz>= 2.5000 <S**2>= 8.7626 S= 2.5021
 SCF Done:  E(UB97D3) =  -3034.60493607     A.U. after   14 cycles
            NFock= 14  Conv=0.96D-08     -V/T= 2.0020
 <Sx>= 0.0000 <Sy>= 0.0000 <Sz>= 2.5000 <S**2>= 8.7616 S= 2.5019
 <L.S>= 0.000000000000E+00
 Annihilation of the first spin contaminant:
 S**2 before annihilation     8.7616,   after     8.7500
 1\1\GINC-HOLY7C06101\SP\UB97D3\Jul-CC-pVDZ\C8H16Cl3Fe1O1(6)\EKWAN\11-F
 eb-2020\0\\#t pop=none jul-cc-pvdz guess=read ub97d3 empiricaldispersi
 on=gd3bj\\theory_abbreviation b97d3_d3bj\\0,6\O,0,-0.27992,-0.386611,-
 0.703604\C,0,-1.411274,-1.205838,-0.489131\C,0,-2.647365,-0.20059,-0.0
 60111\C,0,-2.060126,1.154915,-0.240348\C,0,-1.927333,1.748178,-1.57838
 1\Fe,0,1.356682,0.021492,0.003803\Cl,0,1.66988,2.076119,-0.814805\C,0,
 -1.632827,1.951085,0.908119\Cl,0,2.848164,-1.500414,-0.507141\Cl,0,1.0
 3239,0.184703,2.23146\H,0,-3.417076,-0.326033,-0.830688\H,0,-2.451661,
 2.037605,1.634214\H,0,-0.846727,1.385612,1.450467\H,0,-1.236659,2.9286
 91,0.634559\H,0,-2.536729,2.666131,-1.600369\H,0,-0.883,2.076199,-1.70
 2381\H,0,-2.22186,1.084284,-2.389376\C,0,-3.259212,-0.461951,1.3171\H,
 0,-4.071781,0.24396,1.523432\H,0,-3.685721,-1.46711,1.347896\H,0,-2.52
 3233,-0.385969,2.12073\C,0,-1.119548,-2.24887,0.586539\H,0,-1.962369,-
 2.928623,0.743972\H,0,-0.26424,-2.838999,0.239245\H,0,-0.837997,-1.789
 091,1.535199\C,0,-1.765063,-1.886946,-1.8117\H,0,-0.922649,-2.514564,-
 2.117833\H,0,-2.657421,-2.515135,-1.711751\H,0,-1.936134,-1.149696,-2.
 601633\\Version=ES64L-G16RevA.03\HF=-3034.6049361\S2=8.761631\S2-1=0.\
 S2A=8.750043\RMSD=9.556e-09\PG=C01 [X(C8H16Cl3Fe1O1)]\\@


 IF I HAVE SEEN FARTHER, IT IS BY STANDING ON THE
 SHOULDERS OF GIANTS. -- SIR ISAAC NEWTON
 Job cpu time:       0 days  0 hours 45 minutes 17.1 seconds.
 Elapsed time:       0 days  0 hours 11 minutes 21.3 seconds.
 File lengths (MBytes):  RWF=    174 Int=      0 D2E=      0 Chk=     13 Scr=      1
 Normal termination of Gaussian 16 at Tue Feb 11 23:20:59 2020.
