 Entering Gaussian System, Link 0=g16
 Input=simple-grid-180-265-b3lyp_d3bj-631gd-gas-singlepoint-DFT-juldz2-gas.gjf
 Output=simple-grid-180-265-b3lyp_d3bj-631gd-gas-singlepoint-DFT-juldz2-gas.out
 Initial command:
 /n/sw/g16_nehalem/g16/l1.exe "/scratch/Gau-210908.inp" -scrdir="/scratch/"
 Entering Link 1 = /n/sw/g16_nehalem/g16/l1.exe PID=    210909.
  
 Copyright (c) 1988,1990,1992,1993,1995,1998,2003,2009,2016,
            Gaussian, Inc.  All Rights Reserved.
  
 This is part of the Gaussian(R) 16 program.  It is based on
 the Gaussian(R) 09 system (copyright 2009, Gaussian, Inc.),
 the Gaussian(R) 03 system (copyright 2003, Gaussian, Inc.),
 the Gaussian(R) 98 system (copyright 1998, Gaussian, Inc.),
 the Gaussian(R) 94 system (copyright 1995, Gaussian, Inc.),
 the Gaussian 92(TM) system (copyright 1992, Gaussian, Inc.),
 the Gaussian 90(TM) system (copyright 1990, Gaussian, Inc.),
 the Gaussian 88(TM) system (copyright 1988, Gaussian, Inc.),
 the Gaussian 86(TM) system (copyright 1986, Carnegie Mellon
 University), and the Gaussian 82(TM) system (copyright 1983,
 Carnegie Mellon University). Gaussian is a federally registered
 trademark of Gaussian, Inc.
  
 This software contains proprietary and confidential information,
 including trade secrets, belonging to Gaussian, Inc.
  
 This software is provided under written license and may be
 used, copied, transmitted, or stored only in accord with that
 written license.
  
 The following legend is applicable only to US Government
 contracts under FAR:
  
                    RESTRICTED RIGHTS LEGEND
  
 Use, reproduction and disclosure by the US Government is
 subject to restrictions as set forth in subparagraphs (a)
 and (c) of the Commercial Computer Software - Restricted
 Rights clause in FAR 52.227-19.
  
 Gaussian, Inc.
 340 Quinnipiac St., Bldg. 40, Wallingford CT 06492
  
  
 ---------------------------------------------------------------
 Warning -- This program may not be used in any manner that
 competes with the business of Gaussian, Inc. or will provide
 assistance to any competitor of Gaussian, Inc.  The licensee
 of this program is prohibited from giving any competitor of
 Gaussian, Inc. access to this program.  By using this program,
 the user acknowledges that Gaussian, Inc. is engaged in the
 business of creating and licensing software in the field of
 computational chemistry and represents and warrants to the
 licensee that it is not a competitor of Gaussian, Inc. and that
 it will not use this program in any manner prohibited above.
 ---------------------------------------------------------------
  

 Cite this work as:
 Gaussian 16, Revision A.03,
 M. J. Frisch, G. W. Trucks, H. B. Schlegel, G. E. Scuseria, 
 M. A. Robb, J. R. Cheeseman, G. Scalmani, V. Barone, 
 G. A. Petersson, H. Nakatsuji, X. Li, M. Caricato, A. V. Marenich, 
 J. Bloino, B. G. Janesko, R. Gomperts, B. Mennucci, H. P. Hratchian, 
 J. V. Ortiz, A. F. Izmaylov, J. L. Sonnenberg, D. Williams-Young, 
 F. Ding, F. Lipparini, F. Egidi, J. Goings, B. Peng, A. Petrone, 
 T. Henderson, D. Ranasinghe, V. G. Zakrzewski, J. Gao, N. Rega, 
 G. Zheng, W. Liang, M. Hada, M. Ehara, K. Toyota, R. Fukuda, 
 J. Hasegawa, M. Ishida, T. Nakajima, Y. Honda, O. Kitao, H. Nakai, 
 T. Vreven, K. Throssell, J. A. Montgomery, Jr., J. E. Peralta, 
 F. Ogliaro, M. J. Bearpark, J. J. Heyd, E. N. Brothers, K. N. Kudin, 
 V. N. Staroverov, T. A. Keith, R. Kobayashi, J. Normand, 
 K. Raghavachari, A. P. Rendell, J. C. Burant, S. S. Iyengar, 
 J. Tomasi, M. Cossi, J. M. Millam, M. Klene, C. Adamo, R. Cammi, 
 J. W. Ochterski, R. L. Martin, K. Morokuma, O. Farkas, 
 J. B. Foresman, and D. J. Fox, Gaussian, Inc., Wallingford CT, 2016.
 
 ******************************************
 Gaussian 16:  ES64L-G16RevA.03 25-Dec-2016
                11-Feb-2020 
 ******************************************
 %chk=checkpoint.chk
 %mem=3GB
 %nprocshared=4
 Will use up to    4 processors via shared memory.
 --------------------------------
 #t pop=none jul-cc-pvdz upbe1pbe
 --------------------------------
 ------------------------
 theory_abbreviation pbe0
 ------------------------
 Symbolic Z-matrix:
 Charge =  0 Multiplicity = 6
 O                    -0.35179  -0.11459  -0.46218 
 C                    -1.23253  -1.10192  -0.31405 
 C                    -2.57924  -0.42392   0.66916 
 C                    -2.81989   0.7613   -0.05747 
 C                    -3.78889   0.79281  -1.18565 
 Fe                    1.46055   0.17072  -0.07368 
 Cl                    1.7451    2.22802  -0.81703 
 C                    -2.05614   1.98231   0.203 
 Cl                    2.57039  -1.41506  -1.11804 
 Cl                    1.68002   0.06091   2.12913 
 H                    -3.35058  -1.18121   0.51782 
 H                    -2.45024   2.86188  -0.30891 
 H                    -1.89113   2.17836   1.26506 
 H                    -1.04949   1.7511   -0.21051 
 H                    -4.60548   1.4728   -0.89997 
 H                    -3.33212   1.23243  -2.0815 
 H                    -4.21655  -0.1822   -1.42068 
 C                    -2.11381  -0.28949   2.117 
 H                    -2.79792   0.36146   2.67209 
 H                    -2.11334  -1.26306   2.60932 
 H                    -1.10542   0.12479   2.18744 
 C                    -0.74223  -2.28193   0.53178 
 H                    -1.54382  -2.99511   0.74441 
 H                     0.02717  -2.78652  -0.06375 
 H                    -0.27667  -1.95436   1.46063 
 C                    -1.7852   -1.58259  -1.65652 
 H                    -0.9816   -2.14126  -2.14731 
 H                    -2.64702  -2.24769  -1.54296 
 H                    -2.04169  -0.74846  -2.31068 
 
                    Distance matrix (angstroms):
                    1          2          3          4          5
     1  O    0.000000
     2  C    1.331342   0.000000
     3  C    2.517368   1.799999   0.000000
     4  C    2.650001   2.461124   1.410907   0.000000
     5  C    3.627738   3.299194   2.526665   1.487530   0.000000
     6  Fe   1.875341   2.988324   4.150332   4.321019   5.401864
     7  Cl   3.163967   4.495307   5.285963   4.854616   5.728939
     8  C    2.782857   3.233910   2.506172   1.463569   2.519065
     9  Cl   3.265040   3.899574   5.540314   5.909015   6.731994
    10  Cl   3.297567   3.975461   4.528558   5.051830   6.436807
    11  H    3.330285   2.276927   1.091494   2.094262   2.643993
    12  H    3.645048   4.146632   3.430708   2.147628   2.615666
    13  H    3.257388   3.699676   2.756895   2.149360   3.395176
    14  H    2.007720   2.860760   2.800829   2.034067   3.061621
    15  H    4.561291   4.283603   3.188322   2.098661   1.100364
    16  H    3.649526   3.602962   3.297950   2.140337   1.097477
    17  H    3.982417   3.312830   2.665828   2.167757   1.090311
    18  C    3.128500   2.710485   1.526742   2.516157   3.858082
    19  H    4.004229   3.675455   2.162494   2.758779   4.006277
    20  H    3.722384   3.057432   2.164586   3.421843   4.629891
    21  H    2.765098   2.788987   2.185956   2.895549   4.361772
    22  C    2.416140   1.532395   2.616415   3.731634   4.656793
    23  H    3.342780   2.191212   2.772864   4.047470   4.807691
    24  H    2.727923   2.118344   3.593379   4.548937   5.350948
    25  H    2.662256   2.188570   2.875847   4.018388   5.185125
    26  C    2.374047   1.529277   2.716942   3.020154   3.143093
    27  H    2.709929   2.122270   3.665269   4.021392   4.173066
    28  H    3.314556   2.196309   2.867786   3.360148   3.267450
    29  H    2.583503   2.183156   3.045277   2.821687   2.587267
                    6          7          8          9         10
     6  Fe   0.000000
     7  Cl   2.205912   0.000000
     8  C    3.965542   3.943377   0.000000
     9  Cl   2.199347   3.747499   5.889996   0.000000
    10  Cl   2.216434   3.657934   4.621761   3.676323   0.000000
    11  H    5.032344   6.274596   3.432574   6.147239   5.426426
    12  H    4.753099   4.273263   1.091332   6.644817   5.554146
    13  H    4.129963   4.190428   1.092534   6.204594   4.240679
    14  H    2.969283   2.899147   1.112558   4.894049   3.972519
    15  H    6.258986   6.395865   2.824059   7.738242   7.118740
    16  H    5.303609   5.326181   2.722021   6.540417   6.650071
    17  H    5.845373   6.458696   3.462485   6.904639   6.886926
    18  C    4.217454   5.462378   2.971165   5.802944   3.809999
    19  H    5.070520   6.024699   3.045293   6.807339   4.520740
    20  H    4.693274   6.230167   4.040552   5.987790   4.046358
    21  H    3.420371   4.644982   2.879632   5.177731   2.786781
    22  C    3.351757   5.324070   4.474167   3.800900   3.729304
    23  H    4.440488   6.366801   5.032927   4.784556   4.652936
    24  H    3.286327   5.353912   5.210866   3.075782   3.955818
    25  H    3.144516   5.173742   4.499508   3.878936   2.887357
    26  C    4.014265   5.261980   4.029852   4.391942   5.388871
    27  H    3.950863   5.319322   4.866463   3.768743   5.497430
    28  H    4.987947   6.312661   4.614159   5.300491   6.126756
    29  H    4.256140   5.042835   3.711593   4.810196   5.849623
                   11         12         13         14         15
    11  H    0.000000
    12  H    4.223823   0.000000
    13  H    3.738327   1.804765   0.000000
    14  H    3.797878   1.790420   1.751628   0.000000
    15  H    3.260165   2.631349   3.543008   3.632888   0.000000
    16  H    3.547177   2.564158   3.764399   2.996668   1.753635
    17  H    2.346421   3.690840   4.265325   3.902869   1.778036
    18  C    2.209559   3.991162   2.620247   3.273237   4.291414
    19  H    2.706689   3.906322   2.470454   3.646569   4.154757
    20  H    2.431430   5.064056   3.701320   4.262431   5.100081
    21  H    3.087721   3.941065   2.384388   2.897961   4.857955
    22  C    2.831115   5.484777   4.663885   4.112260   5.574275
    23  H    2.570207   6.019589   5.211193   4.866491   5.660389
    24  H    3.784757   6.172690   5.485953   4.665914   6.348426
    25  H    3.306898   5.572422   4.441188   4.137682   6.004708
    26  C    2.709102   4.691652   4.763565   3.707513   4.226312
    27  H    3.692780   5.528838   5.579485   4.348137   5.267804
    28  H    2.424697   5.260166   5.295875   4.507533   4.253356
    29  H    3.146558   4.148321   4.623295   3.412180   3.673842
                   16         17         18         19         20
    16  H    0.000000
    17  H    1.794458   0.000000
    18  C    4.629034   4.116818   0.000000
    19  H    4.862160   4.365641   1.095382   0.000000
    20  H    5.451302   4.672540   1.090965   1.763984   0.000000
    21  H    4.940542   4.774086   1.092451   1.776363   1.766349
    22  C    5.087970   4.504641   2.892050   3.974199   2.689646
    23  H    5.390355   4.443375   3.086956   4.068821   2.608117
    24  H    5.613210   5.160705   3.946472   5.037433   3.748068
    25  H    5.660225   5.192798   2.564707   3.631443   2.273927
    26  C    3.240044   2.815699   4.002441   4.851986   4.290356
    27  H    4.112306   3.851076   4.784906   5.726190   4.967657
    28  H    3.587569   2.597043   4.184994   4.959544   4.300668
    29  H    2.375221   2.417182   4.451989   5.160600   4.947355
                   21         22         23         24         25
    21  H    0.000000
    22  C    2.943703   0.000000
    23  H    3.465300   1.093791   0.000000
    24  H    3.850498   1.096016   1.778936   0.000000
    25  H    2.353284   1.089410   1.789356   1.763105   0.000000
    26  C    4.260663   2.522993   2.796060   2.696488   3.482887
    27  H    4.892892   2.693438   3.067114   2.403167   3.680912
    28  H    4.681995   2.816721   2.647214   3.103172   3.837467
    29  H    4.676777   3.481328   3.824769   3.671858   4.335004
                   26         27         28         29
    26  C    0.000000
    27  H    1.094880   0.000000
    28  H    1.094534   1.774876   0.000000
    29  H    1.090628   1.757941   1.789836   0.000000
 Framework group  C1[X(C8H16Cl3FeO)]
 Deg. of freedom    81
                         Standard orientation:                         
 ---------------------------------------------------------------------
 Center     Atomic      Atomic             Coordinates (Angstroms)
 Number     Number       Type             X           Y           Z
 ---------------------------------------------------------------------
      1          8           0       -0.351789   -0.114594   -0.462182
      2          6           0       -1.232534   -1.101922   -0.314053
      3          6           0       -2.579236   -0.423923    0.669160
      4          6           0       -2.819891    0.761299   -0.057471
      5          6           0       -3.788894    0.792814   -1.185649
      6         26           0        1.460548    0.170716   -0.073676
      7         17           0        1.745095    2.228022   -0.817028
      8          6           0       -2.056140    1.982312    0.203001
      9         17           0        2.570389   -1.415058   -1.118043
     10         17           0        1.680021    0.060905    2.129130
     11          1           0       -3.350576   -1.181213    0.517816
     12          1           0       -2.450238    2.861880   -0.308909
     13          1           0       -1.891130    2.178361    1.265059
     14          1           0       -1.049494    1.751098   -0.210507
     15          1           0       -4.605483    1.472795   -0.899974
     16          1           0       -3.332120    1.232430   -2.081501
     17          1           0       -4.216548   -0.182200   -1.420677
     18          6           0       -2.113812   -0.289492    2.117003
     19          1           0       -2.797920    0.361458    2.672091
     20          1           0       -2.113336   -1.263056    2.609321
     21          1           0       -1.105417    0.124786    2.187442
     22          6           0       -0.742234   -2.281926    0.531779
     23          1           0       -1.543815   -2.995113    0.744409
     24          1           0        0.027167   -2.786524   -0.063749
     25          1           0       -0.276668   -1.954364    1.460631
     26          6           0       -1.785198   -1.582585   -1.656518
     27          1           0       -0.981604   -2.141263   -2.147311
     28          1           0       -2.647021   -2.247694   -1.542957
     29          1           0       -2.041689   -0.748464   -2.310677
 ---------------------------------------------------------------------
 Rotational constants (GHZ):           0.5891075           0.3254637           0.3086032
   427 basis functions,  1056 primitive gaussians,   461 cartesian basis functions
    77 alpha electrons       72 beta electrons
       nuclear repulsion energy      1642.1691741080 Hartrees.
 NAtoms=   29 NActive=   29 NUniq=   29 SFac= 1.00D+00 NAtFMM=   60 NAOKFM=F Big=F
 ExpMin= 1.40D-02 ExpMax= 4.32D+06 ExpMxC= 4.91D+03 IAcc=3 IRadAn=         5 AccDes= 0.00D+00
 Harris functional with IExCor= 1009 and IRadAn=       5 diagonalized for initial guess.
 HarFok:  IExCor= 1009 AccDes= 0.00D+00 IRadAn=         5 IDoV= 1 UseB2=F ITyADJ=14
 ICtDFT=  3500011 ScaDFX=  1.000000  1.000000  1.000000  1.000000
 FoFCou: FMM=F IPFlag=           0 FMFlag=      100000 FMFlg1=           0
         NFxFlg=           0 DoJE=T BraDBF=F KetDBF=T FulRan=T
         wScrn=  0.000000 ICntrl=       500 IOpCl=  0 I1Cent=   200000004 NGrid=           0
         NMat0=    1 NMatS0=      1 NMatT0=    0 NMatD0=    1 NMtDS0=    0 NMtDT0=    0
 Petite list used in FoFCou.
 Initial guess <Sx>= 0.0000 <Sy>= 0.0000 <Sz>= 2.5000 <S**2>= 8.7500 S= 2.5000
 EnCoef did     5 forward-backward iterations
 EnCoef did     6 forward-backward iterations
 Restarting incremental Fock formation.
 SCF Done:  E(UPBE1PBE) =  -3033.11038572     A.U. after   21 cycles
            NFock= 21  Conv=0.62D-08     -V/T= 2.0021
 <Sx>= 0.0000 <Sy>= 0.0000 <Sz>= 2.5000 <S**2>= 8.7624 S= 2.5021
 <L.S>= 0.000000000000E+00
 Annihilation of the first spin contaminant:
 S**2 before annihilation     8.7624,   after     8.7500
 1\1\GINC-HOLY7C12304\SP\UPBE1PBE\Jul-CC-pVDZ\C8H16Cl3Fe1O1(6)\EKWAN\11
 -Feb-2020\0\\#t pop=none jul-cc-pvdz upbe1pbe\\theory_abbreviation pbe
 0\\0,6\O,0,-0.351789,-0.114594,-0.462182\C,0,-1.232534,-1.101922,-0.31
 4053\C,0,-2.579236,-0.423923,0.66916\C,0,-2.819891,0.761299,-0.057471\
 C,0,-3.788894,0.792814,-1.185649\Fe,0,1.460548,0.170716,-0.073676\Cl,0
 ,1.745095,2.228022,-0.817028\C,0,-2.05614,1.982312,0.203001\Cl,0,2.570
 389,-1.415058,-1.118043\Cl,0,1.680021,0.060905,2.12913\H,0,-3.350576,-
 1.181213,0.517816\H,0,-2.450238,2.86188,-0.308909\H,0,-1.89113,2.17836
 1,1.265059\H,0,-1.049494,1.751098,-0.210507\H,0,-4.605483,1.472795,-0.
 899974\H,0,-3.33212,1.23243,-2.081501\H,0,-4.216548,-0.1822,-1.420677\
 C,0,-2.113812,-0.289492,2.117003\H,0,-2.79792,0.361458,2.672091\H,0,-2
 .113336,-1.263056,2.609321\H,0,-1.105417,0.124786,2.187442\C,0,-0.7422
 34,-2.281926,0.531779\H,0,-1.543815,-2.995113,0.744409\H,0,0.027167,-2
 .786524,-0.063749\H,0,-0.276668,-1.954364,1.460631\C,0,-1.785198,-1.58
 2585,-1.656518\H,0,-0.981604,-2.141263,-2.147311\H,0,-2.647021,-2.2476
 94,-1.542957\H,0,-2.041689,-0.748464,-2.310677\\Version=ES64L-G16RevA.
 03\HF=-3033.1103857\S2=8.762424\S2-1=0.\S2A=8.750048\RMSD=6.151e-09\PG
 =C01 [X(C8H16Cl3Fe1O1)]\\@


 IT IS NOT EASY TO DESCRIBE
     THE SEA WITH THE MOUTH

                   -- KOKYU
 Job cpu time:       0 days  1 hours 33 minutes 23.6 seconds.
 Elapsed time:       0 days  0 hours 23 minutes 27.6 seconds.
 File lengths (MBytes):  RWF=    173 Int=      0 D2E=      0 Chk=     13 Scr=      1
 Normal termination of Gaussian 16 at Tue Feb 11 20:07:15 2020.
 Initial command:
 /n/sw/g16_nehalem/g16/l1.exe "/scratch/Gau-210908.inp" -scrdir="/scratch/"
 Entering Link 1 = /n/sw/g16_nehalem/g16/l1.exe PID=    213057.
  
 Copyright (c) 1988,1990,1992,1993,1995,1998,2003,2009,2016,
            Gaussian, Inc.  All Rights Reserved.
  
 This is part of the Gaussian(R) 16 program.  It is based on
 the Gaussian(R) 09 system (copyright 2009, Gaussian, Inc.),
 the Gaussian(R) 03 system (copyright 2003, Gaussian, Inc.),
 the Gaussian(R) 98 system (copyright 1998, Gaussian, Inc.),
 the Gaussian(R) 94 system (copyright 1995, Gaussian, Inc.),
 the Gaussian 92(TM) system (copyright 1992, Gaussian, Inc.),
 the Gaussian 90(TM) system (copyright 1990, Gaussian, Inc.),
 the Gaussian 88(TM) system (copyright 1988, Gaussian, Inc.),
 the Gaussian 86(TM) system (copyright 1986, Carnegie Mellon
 University), and the Gaussian 82(TM) system (copyright 1983,
 Carnegie Mellon University). Gaussian is a federally registered
 trademark of Gaussian, Inc.
  
 This software contains proprietary and confidential information,
 including trade secrets, belonging to Gaussian, Inc.
  
 This software is provided under written license and may be
 used, copied, transmitted, or stored only in accord with that
 written license.
  
 The following legend is applicable only to US Government
 contracts under FAR:
  
                    RESTRICTED RIGHTS LEGEND
  
 Use, reproduction and disclosure by the US Government is
 subject to restrictions as set forth in subparagraphs (a)
 and (c) of the Commercial Computer Software - Restricted
 Rights clause in FAR 52.227-19.
  
 Gaussian, Inc.
 340 Quinnipiac St., Bldg. 40, Wallingford CT 06492
  
  
 ---------------------------------------------------------------
 Warning -- This program may not be used in any manner that
 competes with the business of Gaussian, Inc. or will provide
 assistance to any competitor of Gaussian, Inc.  The licensee
 of this program is prohibited from giving any competitor of
 Gaussian, Inc. access to this program.  By using this program,
 the user acknowledges that Gaussian, Inc. is engaged in the
 business of creating and licensing software in the field of
 computational chemistry and represents and warrants to the
 licensee that it is not a competitor of Gaussian, Inc. and that
 it will not use this program in any manner prohibited above.
 ---------------------------------------------------------------
  

 Cite this work as:
 Gaussian 16, Revision A.03,
 M. J. Frisch, G. W. Trucks, H. B. Schlegel, G. E. Scuseria, 
 M. A. Robb, J. R. Cheeseman, G. Scalmani, V. Barone, 
 G. A. Petersson, H. Nakatsuji, X. Li, M. Caricato, A. V. Marenich, 
 J. Bloino, B. G. Janesko, R. Gomperts, B. Mennucci, H. P. Hratchian, 
 J. V. Ortiz, A. F. Izmaylov, J. L. Sonnenberg, D. Williams-Young, 
 F. Ding, F. Lipparini, F. Egidi, J. Goings, B. Peng, A. Petrone, 
 T. Henderson, D. Ranasinghe, V. G. Zakrzewski, J. Gao, N. Rega, 
 G. Zheng, W. Liang, M. Hada, M. Ehara, K. Toyota, R. Fukuda, 
 J. Hasegawa, M. Ishida, T. Nakajima, Y. Honda, O. Kitao, H. Nakai, 
 T. Vreven, K. Throssell, J. A. Montgomery, Jr., J. E. Peralta, 
 F. Ogliaro, M. J. Bearpark, J. J. Heyd, E. N. Brothers, K. N. Kudin, 
 V. N. Staroverov, T. A. Keith, R. Kobayashi, J. Normand, 
 K. Raghavachari, A. P. Rendell, J. C. Burant, S. S. Iyengar, 
 J. Tomasi, M. Cossi, J. M. Millam, M. Klene, C. Adamo, R. Cammi, 
 J. W. Ochterski, R. L. Martin, K. Morokuma, O. Farkas, 
 J. B. Foresman, and D. J. Fox, Gaussian, Inc., Wallingford CT, 2016.
 
 ******************************************
 Gaussian 16:  ES64L-G16RevA.03 25-Dec-2016
                11-Feb-2020 
 ******************************************
 %chk=checkpoint.chk
 %mem=3GB
 %nprocshared=4
 Will use up to    4 processors via shared memory.
 ---------------------------------------------------------------------
 #t pop=none jul-cc-pvdz guess=read upbe1pbe empiricaldispersion=gd3bj
 ---------------------------------------------------------------------
 -----------------------------
 theory_abbreviation pbe0_d3bj
 -----------------------------
 Symbolic Z-matrix:
 Charge =  0 Multiplicity = 6
 O                    -0.35179  -0.11459  -0.46218 
 C                    -1.23253  -1.10192  -0.31405 
 C                    -2.57924  -0.42392   0.66916 
 C                    -2.81989   0.7613   -0.05747 
 C                    -3.78889   0.79281  -1.18565 
 Fe                    1.46055   0.17072  -0.07368 
 Cl                    1.7451    2.22802  -0.81703 
 C                    -2.05614   1.98231   0.203 
 Cl                    2.57039  -1.41506  -1.11804 
 Cl                    1.68002   0.06091   2.12913 
 H                    -3.35058  -1.18121   0.51782 
 H                    -2.45024   2.86188  -0.30891 
 H                    -1.89113   2.17836   1.26506 
 H                    -1.04949   1.7511   -0.21051 
 H                    -4.60548   1.4728   -0.89997 
 H                    -3.33212   1.23243  -2.0815 
 H                    -4.21655  -0.1822   -1.42068 
 C                    -2.11381  -0.28949   2.117 
 H                    -2.79792   0.36146   2.67209 
 H                    -2.11334  -1.26306   2.60932 
 H                    -1.10542   0.12479   2.18744 
 C                    -0.74223  -2.28193   0.53178 
 H                    -1.54382  -2.99511   0.74441 
 H                     0.02717  -2.78652  -0.06375 
 H                    -0.27667  -1.95436   1.46063 
 C                    -1.7852   -1.58259  -1.65652 
 H                    -0.9816   -2.14126  -2.14731 
 H                    -2.64702  -2.24769  -1.54296 
 H                    -2.04169  -0.74846  -2.31068 
 
                    Distance matrix (angstroms):
                    1          2          3          4          5
     1  O    0.000000
     2  C    1.331342   0.000000
     3  C    2.517368   1.799999   0.000000
     4  C    2.650001   2.461124   1.410907   0.000000
     5  C    3.627738   3.299194   2.526665   1.487530   0.000000
     6  Fe   1.875341   2.988324   4.150332   4.321019   5.401864
     7  Cl   3.163967   4.495307   5.285963   4.854616   5.728939
     8  C    2.782857   3.233910   2.506172   1.463569   2.519065
     9  Cl   3.265040   3.899574   5.540314   5.909015   6.731994
    10  Cl   3.297567   3.975461   4.528558   5.051830   6.436807
    11  H    3.330285   2.276927   1.091494   2.094262   2.643993
    12  H    3.645048   4.146632   3.430708   2.147628   2.615666
    13  H    3.257388   3.699676   2.756895   2.149360   3.395176
    14  H    2.007720   2.860760   2.800829   2.034067   3.061621
    15  H    4.561291   4.283603   3.188322   2.098661   1.100364
    16  H    3.649526   3.602962   3.297950   2.140337   1.097477
    17  H    3.982417   3.312830   2.665828   2.167757   1.090311
    18  C    3.128500   2.710485   1.526742   2.516157   3.858082
    19  H    4.004229   3.675455   2.162494   2.758779   4.006277
    20  H    3.722384   3.057432   2.164586   3.421843   4.629891
    21  H    2.765098   2.788987   2.185956   2.895549   4.361772
    22  C    2.416140   1.532395   2.616415   3.731634   4.656793
    23  H    3.342780   2.191212   2.772864   4.047470   4.807691
    24  H    2.727923   2.118344   3.593379   4.548937   5.350948
    25  H    2.662256   2.188570   2.875847   4.018388   5.185125
    26  C    2.374047   1.529277   2.716942   3.020154   3.143093
    27  H    2.709929   2.122270   3.665269   4.021392   4.173066
    28  H    3.314556   2.196309   2.867786   3.360148   3.267450
    29  H    2.583503   2.183156   3.045277   2.821687   2.587267
                    6          7          8          9         10
     6  Fe   0.000000
     7  Cl   2.205912   0.000000
     8  C    3.965542   3.943377   0.000000
     9  Cl   2.199347   3.747499   5.889996   0.000000
    10  Cl   2.216434   3.657934   4.621761   3.676323   0.000000
    11  H    5.032344   6.274596   3.432574   6.147239   5.426426
    12  H    4.753099   4.273263   1.091332   6.644817   5.554146
    13  H    4.129963   4.190428   1.092534   6.204594   4.240679
    14  H    2.969283   2.899147   1.112558   4.894049   3.972519
    15  H    6.258986   6.395865   2.824059   7.738242   7.118740
    16  H    5.303609   5.326181   2.722021   6.540417   6.650071
    17  H    5.845373   6.458696   3.462485   6.904639   6.886926
    18  C    4.217454   5.462378   2.971165   5.802944   3.809999
    19  H    5.070520   6.024699   3.045293   6.807339   4.520740
    20  H    4.693274   6.230167   4.040552   5.987790   4.046358
    21  H    3.420371   4.644982   2.879632   5.177731   2.786781
    22  C    3.351757   5.324070   4.474167   3.800900   3.729304
    23  H    4.440488   6.366801   5.032927   4.784556   4.652936
    24  H    3.286327   5.353912   5.210866   3.075782   3.955818
    25  H    3.144516   5.173742   4.499508   3.878936   2.887357
    26  C    4.014265   5.261980   4.029852   4.391942   5.388871
    27  H    3.950863   5.319322   4.866463   3.768743   5.497430
    28  H    4.987947   6.312661   4.614159   5.300491   6.126756
    29  H    4.256140   5.042835   3.711593   4.810196   5.849623
                   11         12         13         14         15
    11  H    0.000000
    12  H    4.223823   0.000000
    13  H    3.738327   1.804765   0.000000
    14  H    3.797878   1.790420   1.751628   0.000000
    15  H    3.260165   2.631349   3.543008   3.632888   0.000000
    16  H    3.547177   2.564158   3.764399   2.996668   1.753635
    17  H    2.346421   3.690840   4.265325   3.902869   1.778036
    18  C    2.209559   3.991162   2.620247   3.273237   4.291414
    19  H    2.706689   3.906322   2.470454   3.646569   4.154757
    20  H    2.431430   5.064056   3.701320   4.262431   5.100081
    21  H    3.087721   3.941065   2.384388   2.897961   4.857955
    22  C    2.831115   5.484777   4.663885   4.112260   5.574275
    23  H    2.570207   6.019589   5.211193   4.866491   5.660389
    24  H    3.784757   6.172690   5.485953   4.665914   6.348426
    25  H    3.306898   5.572422   4.441188   4.137682   6.004708
    26  C    2.709102   4.691652   4.763565   3.707513   4.226312
    27  H    3.692780   5.528838   5.579485   4.348137   5.267804
    28  H    2.424697   5.260166   5.295875   4.507533   4.253356
    29  H    3.146558   4.148321   4.623295   3.412180   3.673842
                   16         17         18         19         20
    16  H    0.000000
    17  H    1.794458   0.000000
    18  C    4.629034   4.116818   0.000000
    19  H    4.862160   4.365641   1.095382   0.000000
    20  H    5.451302   4.672540   1.090965   1.763984   0.000000
    21  H    4.940542   4.774086   1.092451   1.776363   1.766349
    22  C    5.087970   4.504641   2.892050   3.974199   2.689646
    23  H    5.390355   4.443375   3.086956   4.068821   2.608117
    24  H    5.613210   5.160705   3.946472   5.037433   3.748068
    25  H    5.660225   5.192798   2.564707   3.631443   2.273927
    26  C    3.240044   2.815699   4.002441   4.851986   4.290356
    27  H    4.112306   3.851076   4.784906   5.726190   4.967657
    28  H    3.587569   2.597043   4.184994   4.959544   4.300668
    29  H    2.375221   2.417182   4.451989   5.160600   4.947355
                   21         22         23         24         25
    21  H    0.000000
    22  C    2.943703   0.000000
    23  H    3.465300   1.093791   0.000000
    24  H    3.850498   1.096016   1.778936   0.000000
    25  H    2.353284   1.089410   1.789356   1.763105   0.000000
    26  C    4.260663   2.522993   2.796060   2.696488   3.482887
    27  H    4.892892   2.693438   3.067114   2.403167   3.680912
    28  H    4.681995   2.816721   2.647214   3.103172   3.837467
    29  H    4.676777   3.481328   3.824769   3.671858   4.335004
                   26         27         28         29
    26  C    0.000000
    27  H    1.094880   0.000000
    28  H    1.094534   1.774876   0.000000
    29  H    1.090628   1.757941   1.789836   0.000000
 Framework group  C1[X(C8H16Cl3FeO)]
 Deg. of freedom    81
                         Standard orientation:                         
 ---------------------------------------------------------------------
 Center     Atomic      Atomic             Coordinates (Angstroms)
 Number     Number       Type             X           Y           Z
 ---------------------------------------------------------------------
      1          8           0       -0.351789   -0.114594   -0.462182
      2          6           0       -1.232534   -1.101922   -0.314053
      3          6           0       -2.579236   -0.423923    0.669160
      4          6           0       -2.819891    0.761299   -0.057471
      5          6           0       -3.788894    0.792814   -1.185649
      6         26           0        1.460548    0.170716   -0.073676
      7         17           0        1.745095    2.228022   -0.817028
      8          6           0       -2.056140    1.982312    0.203001
      9         17           0        2.570389   -1.415058   -1.118043
     10         17           0        1.680021    0.060905    2.129130
     11          1           0       -3.350576   -1.181213    0.517816
     12          1           0       -2.450238    2.861880   -0.308909
     13          1           0       -1.891130    2.178361    1.265059
     14          1           0       -1.049494    1.751098   -0.210507
     15          1           0       -4.605483    1.472795   -0.899974
     16          1           0       -3.332120    1.232430   -2.081501
     17          1           0       -4.216548   -0.182200   -1.420677
     18          6           0       -2.113812   -0.289492    2.117003
     19          1           0       -2.797920    0.361458    2.672091
     20          1           0       -2.113336   -1.263056    2.609321
     21          1           0       -1.105417    0.124786    2.187442
     22          6           0       -0.742234   -2.281926    0.531779
     23          1           0       -1.543815   -2.995113    0.744409
     24          1           0        0.027167   -2.786524   -0.063749
     25          1           0       -0.276668   -1.954364    1.460631
     26          6           0       -1.785198   -1.582585   -1.656518
     27          1           0       -0.981604   -2.141263   -2.147311
     28          1           0       -2.647021   -2.247694   -1.542957
     29          1           0       -2.041689   -0.748464   -2.310677
 ---------------------------------------------------------------------
 Rotational constants (GHZ):           0.5891075           0.3254637           0.3086032
   427 basis functions,  1056 primitive gaussians,   461 cartesian basis functions
    77 alpha electrons       72 beta electrons
       nuclear repulsion energy      1642.1691741080 Hartrees.
 NAtoms=   29 NActive=   29 NUniq=   29 SFac= 1.00D+00 NAtFMM=   60 NAOKFM=F Big=F
 Nuclear repulsion after empirical dispersion term =     1642.1328129938 Hartrees.
 Initial guess from the checkpoint file:  "checkpoint.chk"
 B after Tr=     0.000000    0.000000    0.000000
         Rot=    1.000000    0.000000    0.000000    0.000000 Ang=   0.00 deg.
 Initial guess <Sx>= 0.0000 <Sy>= 0.0000 <Sz>= 2.5000 <S**2>= 8.7624 S= 2.5021
 SCF Done:  E(UPBE1PBE) =  -3033.14674683     A.U. after    1 cycles
            NFock=  1  Conv=0.31D-08     -V/T= 2.0021
 <Sx>= 0.0000 <Sy>= 0.0000 <Sz>= 2.5000 <S**2>= 8.7624 S= 2.5021
 <L.S>= 0.000000000000E+00
 Annihilation of the first spin contaminant:
 S**2 before annihilation     8.7624,   after     8.7500
 1\1\GINC-HOLY7C12304\SP\UPBE1PBE\Jul-CC-pVDZ\C8H16Cl3Fe1O1(6)\EKWAN\11
 -Feb-2020\0\\#t pop=none jul-cc-pvdz guess=read upbe1pbe empiricaldisp
 ersion=gd3bj\\theory_abbreviation pbe0_d3bj\\0,6\O,0,-0.351789,-0.1145
 94,-0.462182\C,0,-1.232534,-1.101922,-0.314053\C,0,-2.579236,-0.423923
 ,0.66916\C,0,-2.819891,0.761299,-0.057471\C,0,-3.788894,0.792814,-1.18
 5649\Fe,0,1.460548,0.170716,-0.073676\Cl,0,1.745095,2.228022,-0.817028
 \C,0,-2.05614,1.982312,0.203001\Cl,0,2.570389,-1.415058,-1.118043\Cl,0
 ,1.680021,0.060905,2.12913\H,0,-3.350576,-1.181213,0.517816\H,0,-2.450
 238,2.86188,-0.308909\H,0,-1.89113,2.178361,1.265059\H,0,-1.049494,1.7
 51098,-0.210507\H,0,-4.605483,1.472795,-0.899974\H,0,-3.33212,1.23243,
 -2.081501\H,0,-4.216548,-0.1822,-1.420677\C,0,-2.113812,-0.289492,2.11
 7003\H,0,-2.79792,0.361458,2.672091\H,0,-2.113336,-1.263056,2.609321\H
 ,0,-1.105417,0.124786,2.187442\C,0,-0.742234,-2.281926,0.531779\H,0,-1
 .543815,-2.995113,0.744409\H,0,0.027167,-2.786524,-0.063749\H,0,-0.276
 668,-1.954364,1.460631\C,0,-1.785198,-1.582585,-1.656518\H,0,-0.981604
 ,-2.141263,-2.147311\H,0,-2.647021,-2.247694,-1.542957\H,0,-2.041689,-
 0.748464,-2.310677\\Version=ES64L-G16RevA.03\HF=-3033.1467468\S2=8.762
 424\S2-1=0.\S2A=8.750048\RMSD=3.115e-09\PG=C01 [X(C8H16Cl3Fe1O1)]\\@


 SI MONUMENTUM REQUIRIS, CIRCUMSPICE
     -- FROM SIR CHRISTOPHER WREN'S TOMBSTONE
 Job cpu time:       0 days  0 hours  4 minutes 48.3 seconds.
 Elapsed time:       0 days  0 hours  1 minutes 13.1 seconds.
 File lengths (MBytes):  RWF=    170 Int=      0 D2E=      0 Chk=     13 Scr=      1
 Normal termination of Gaussian 16 at Tue Feb 11 20:08:29 2020.
 Initial command:
 /n/sw/g16_nehalem/g16/l1.exe "/scratch/Gau-210908.inp" -scrdir="/scratch/"
 Entering Link 1 = /n/sw/g16_nehalem/g16/l1.exe PID=    213476.
  
 Copyright (c) 1988,1990,1992,1993,1995,1998,2003,2009,2016,
            Gaussian, Inc.  All Rights Reserved.
  
 This is part of the Gaussian(R) 16 program.  It is based on
 the Gaussian(R) 09 system (copyright 2009, Gaussian, Inc.),
 the Gaussian(R) 03 system (copyright 2003, Gaussian, Inc.),
 the Gaussian(R) 98 system (copyright 1998, Gaussian, Inc.),
 the Gaussian(R) 94 system (copyright 1995, Gaussian, Inc.),
 the Gaussian 92(TM) system (copyright 1992, Gaussian, Inc.),
 the Gaussian 90(TM) system (copyright 1990, Gaussian, Inc.),
 the Gaussian 88(TM) system (copyright 1988, Gaussian, Inc.),
 the Gaussian 86(TM) system (copyright 1986, Carnegie Mellon
 University), and the Gaussian 82(TM) system (copyright 1983,
 Carnegie Mellon University). Gaussian is a federally registered
 trademark of Gaussian, Inc.
  
 This software contains proprietary and confidential information,
 including trade secrets, belonging to Gaussian, Inc.
  
 This software is provided under written license and may be
 used, copied, transmitted, or stored only in accord with that
 written license.
  
 The following legend is applicable only to US Government
 contracts under FAR:
  
                    RESTRICTED RIGHTS LEGEND
  
 Use, reproduction and disclosure by the US Government is
 subject to restrictions as set forth in subparagraphs (a)
 and (c) of the Commercial Computer Software - Restricted
 Rights clause in FAR 52.227-19.
  
 Gaussian, Inc.
 340 Quinnipiac St., Bldg. 40, Wallingford CT 06492
  
  
 ---------------------------------------------------------------
 Warning -- This program may not be used in any manner that
 competes with the business of Gaussian, Inc. or will provide
 assistance to any competitor of Gaussian, Inc.  The licensee
 of this program is prohibited from giving any competitor of
 Gaussian, Inc. access to this program.  By using this program,
 the user acknowledges that Gaussian, Inc. is engaged in the
 business of creating and licensing software in the field of
 computational chemistry and represents and warrants to the
 licensee that it is not a competitor of Gaussian, Inc. and that
 it will not use this program in any manner prohibited above.
 ---------------------------------------------------------------
  

 Cite this work as:
 Gaussian 16, Revision A.03,
 M. J. Frisch, G. W. Trucks, H. B. Schlegel, G. E. Scuseria, 
 M. A. Robb, J. R. Cheeseman, G. Scalmani, V. Barone, 
 G. A. Petersson, H. Nakatsuji, X. Li, M. Caricato, A. V. Marenich, 
 J. Bloino, B. G. Janesko, R. Gomperts, B. Mennucci, H. P. Hratchian, 
 J. V. Ortiz, A. F. Izmaylov, J. L. Sonnenberg, D. Williams-Young, 
 F. Ding, F. Lipparini, F. Egidi, J. Goings, B. Peng, A. Petrone, 
 T. Henderson, D. Ranasinghe, V. G. Zakrzewski, J. Gao, N. Rega, 
 G. Zheng, W. Liang, M. Hada, M. Ehara, K. Toyota, R. Fukuda, 
 J. Hasegawa, M. Ishida, T. Nakajima, Y. Honda, O. Kitao, H. Nakai, 
 T. Vreven, K. Throssell, J. A. Montgomery, Jr., J. E. Peralta, 
 F. Ogliaro, M. J. Bearpark, J. J. Heyd, E. N. Brothers, K. N. Kudin, 
 V. N. Staroverov, T. A. Keith, R. Kobayashi, J. Normand, 
 K. Raghavachari, A. P. Rendell, J. C. Burant, S. S. Iyengar, 
 J. Tomasi, M. Cossi, J. M. Millam, M. Klene, C. Adamo, R. Cammi, 
 J. W. Ochterski, R. L. Martin, K. Morokuma, O. Farkas, 
 J. B. Foresman, and D. J. Fox, Gaussian, Inc., Wallingford CT, 2016.
 
 ******************************************
 Gaussian 16:  ES64L-G16RevA.03 25-Dec-2016
                11-Feb-2020 
 ******************************************
 %chk=checkpoint.chk
 %mem=3GB
 %nprocshared=4
 Will use up to    4 processors via shared memory.
 -----------------------------------------
 #t pop=none jul-cc-pvdz guess=read ub3lyp
 -----------------------------------------
 -------------------------
 theory_abbreviation b3lyp
 -------------------------
 Symbolic Z-matrix:
 Charge =  0 Multiplicity = 6
 O                    -0.35179  -0.11459  -0.46218 
 C                    -1.23253  -1.10192  -0.31405 
 C                    -2.57924  -0.42392   0.66916 
 C                    -2.81989   0.7613   -0.05747 
 C                    -3.78889   0.79281  -1.18565 
 Fe                    1.46055   0.17072  -0.07368 
 Cl                    1.7451    2.22802  -0.81703 
 C                    -2.05614   1.98231   0.203 
 Cl                    2.57039  -1.41506  -1.11804 
 Cl                    1.68002   0.06091   2.12913 
 H                    -3.35058  -1.18121   0.51782 
 H                    -2.45024   2.86188  -0.30891 
 H                    -1.89113   2.17836   1.26506 
 H                    -1.04949   1.7511   -0.21051 
 H                    -4.60548   1.4728   -0.89997 
 H                    -3.33212   1.23243  -2.0815 
 H                    -4.21655  -0.1822   -1.42068 
 C                    -2.11381  -0.28949   2.117 
 H                    -2.79792   0.36146   2.67209 
 H                    -2.11334  -1.26306   2.60932 
 H                    -1.10542   0.12479   2.18744 
 C                    -0.74223  -2.28193   0.53178 
 H                    -1.54382  -2.99511   0.74441 
 H                     0.02717  -2.78652  -0.06375 
 H                    -0.27667  -1.95436   1.46063 
 C                    -1.7852   -1.58259  -1.65652 
 H                    -0.9816   -2.14126  -2.14731 
 H                    -2.64702  -2.24769  -1.54296 
 H                    -2.04169  -0.74846  -2.31068 
 
                    Distance matrix (angstroms):
                    1          2          3          4          5
     1  O    0.000000
     2  C    1.331342   0.000000
     3  C    2.517368   1.799999   0.000000
     4  C    2.650001   2.461124   1.410907   0.000000
     5  C    3.627738   3.299194   2.526665   1.487530   0.000000
     6  Fe   1.875341   2.988324   4.150332   4.321019   5.401864
     7  Cl   3.163967   4.495307   5.285963   4.854616   5.728939
     8  C    2.782857   3.233910   2.506172   1.463569   2.519065
     9  Cl   3.265040   3.899574   5.540314   5.909015   6.731994
    10  Cl   3.297567   3.975461   4.528558   5.051830   6.436807
    11  H    3.330285   2.276927   1.091494   2.094262   2.643993
    12  H    3.645048   4.146632   3.430708   2.147628   2.615666
    13  H    3.257388   3.699676   2.756895   2.149360   3.395176
    14  H    2.007720   2.860760   2.800829   2.034067   3.061621
    15  H    4.561291   4.283603   3.188322   2.098661   1.100364
    16  H    3.649526   3.602962   3.297950   2.140337   1.097477
    17  H    3.982417   3.312830   2.665828   2.167757   1.090311
    18  C    3.128500   2.710485   1.526742   2.516157   3.858082
    19  H    4.004229   3.675455   2.162494   2.758779   4.006277
    20  H    3.722384   3.057432   2.164586   3.421843   4.629891
    21  H    2.765098   2.788987   2.185956   2.895549   4.361772
    22  C    2.416140   1.532395   2.616415   3.731634   4.656793
    23  H    3.342780   2.191212   2.772864   4.047470   4.807691
    24  H    2.727923   2.118344   3.593379   4.548937   5.350948
    25  H    2.662256   2.188570   2.875847   4.018388   5.185125
    26  C    2.374047   1.529277   2.716942   3.020154   3.143093
    27  H    2.709929   2.122270   3.665269   4.021392   4.173066
    28  H    3.314556   2.196309   2.867786   3.360148   3.267450
    29  H    2.583503   2.183156   3.045277   2.821687   2.587267
                    6          7          8          9         10
     6  Fe   0.000000
     7  Cl   2.205912   0.000000
     8  C    3.965542   3.943377   0.000000
     9  Cl   2.199347   3.747499   5.889996   0.000000
    10  Cl   2.216434   3.657934   4.621761   3.676323   0.000000
    11  H    5.032344   6.274596   3.432574   6.147239   5.426426
    12  H    4.753099   4.273263   1.091332   6.644817   5.554146
    13  H    4.129963   4.190428   1.092534   6.204594   4.240679
    14  H    2.969283   2.899147   1.112558   4.894049   3.972519
    15  H    6.258986   6.395865   2.824059   7.738242   7.118740
    16  H    5.303609   5.326181   2.722021   6.540417   6.650071
    17  H    5.845373   6.458696   3.462485   6.904639   6.886926
    18  C    4.217454   5.462378   2.971165   5.802944   3.809999
    19  H    5.070520   6.024699   3.045293   6.807339   4.520740
    20  H    4.693274   6.230167   4.040552   5.987790   4.046358
    21  H    3.420371   4.644982   2.879632   5.177731   2.786781
    22  C    3.351757   5.324070   4.474167   3.800900   3.729304
    23  H    4.440488   6.366801   5.032927   4.784556   4.652936
    24  H    3.286327   5.353912   5.210866   3.075782   3.955818
    25  H    3.144516   5.173742   4.499508   3.878936   2.887357
    26  C    4.014265   5.261980   4.029852   4.391942   5.388871
    27  H    3.950863   5.319322   4.866463   3.768743   5.497430
    28  H    4.987947   6.312661   4.614159   5.300491   6.126756
    29  H    4.256140   5.042835   3.711593   4.810196   5.849623
                   11         12         13         14         15
    11  H    0.000000
    12  H    4.223823   0.000000
    13  H    3.738327   1.804765   0.000000
    14  H    3.797878   1.790420   1.751628   0.000000
    15  H    3.260165   2.631349   3.543008   3.632888   0.000000
    16  H    3.547177   2.564158   3.764399   2.996668   1.753635
    17  H    2.346421   3.690840   4.265325   3.902869   1.778036
    18  C    2.209559   3.991162   2.620247   3.273237   4.291414
    19  H    2.706689   3.906322   2.470454   3.646569   4.154757
    20  H    2.431430   5.064056   3.701320   4.262431   5.100081
    21  H    3.087721   3.941065   2.384388   2.897961   4.857955
    22  C    2.831115   5.484777   4.663885   4.112260   5.574275
    23  H    2.570207   6.019589   5.211193   4.866491   5.660389
    24  H    3.784757   6.172690   5.485953   4.665914   6.348426
    25  H    3.306898   5.572422   4.441188   4.137682   6.004708
    26  C    2.709102   4.691652   4.763565   3.707513   4.226312
    27  H    3.692780   5.528838   5.579485   4.348137   5.267804
    28  H    2.424697   5.260166   5.295875   4.507533   4.253356
    29  H    3.146558   4.148321   4.623295   3.412180   3.673842
                   16         17         18         19         20
    16  H    0.000000
    17  H    1.794458   0.000000
    18  C    4.629034   4.116818   0.000000
    19  H    4.862160   4.365641   1.095382   0.000000
    20  H    5.451302   4.672540   1.090965   1.763984   0.000000
    21  H    4.940542   4.774086   1.092451   1.776363   1.766349
    22  C    5.087970   4.504641   2.892050   3.974199   2.689646
    23  H    5.390355   4.443375   3.086956   4.068821   2.608117
    24  H    5.613210   5.160705   3.946472   5.037433   3.748068
    25  H    5.660225   5.192798   2.564707   3.631443   2.273927
    26  C    3.240044   2.815699   4.002441   4.851986   4.290356
    27  H    4.112306   3.851076   4.784906   5.726190   4.967657
    28  H    3.587569   2.597043   4.184994   4.959544   4.300668
    29  H    2.375221   2.417182   4.451989   5.160600   4.947355
                   21         22         23         24         25
    21  H    0.000000
    22  C    2.943703   0.000000
    23  H    3.465300   1.093791   0.000000
    24  H    3.850498   1.096016   1.778936   0.000000
    25  H    2.353284   1.089410   1.789356   1.763105   0.000000
    26  C    4.260663   2.522993   2.796060   2.696488   3.482887
    27  H    4.892892   2.693438   3.067114   2.403167   3.680912
    28  H    4.681995   2.816721   2.647214   3.103172   3.837467
    29  H    4.676777   3.481328   3.824769   3.671858   4.335004
                   26         27         28         29
    26  C    0.000000
    27  H    1.094880   0.000000
    28  H    1.094534   1.774876   0.000000
    29  H    1.090628   1.757941   1.789836   0.000000
 Framework group  C1[X(C8H16Cl3FeO)]
 Deg. of freedom    81
                         Standard orientation:                         
 ---------------------------------------------------------------------
 Center     Atomic      Atomic             Coordinates (Angstroms)
 Number     Number       Type             X           Y           Z
 ---------------------------------------------------------------------
      1          8           0       -0.351789   -0.114594   -0.462182
      2          6           0       -1.232534   -1.101922   -0.314053
      3          6           0       -2.579236   -0.423923    0.669160
      4          6           0       -2.819891    0.761299   -0.057471
      5          6           0       -3.788894    0.792814   -1.185649
      6         26           0        1.460548    0.170716   -0.073676
      7         17           0        1.745095    2.228022   -0.817028
      8          6           0       -2.056140    1.982312    0.203001
      9         17           0        2.570389   -1.415058   -1.118043
     10         17           0        1.680021    0.060905    2.129130
     11          1           0       -3.350576   -1.181213    0.517816
     12          1           0       -2.450238    2.861880   -0.308909
     13          1           0       -1.891130    2.178361    1.265059
     14          1           0       -1.049494    1.751098   -0.210507
     15          1           0       -4.605483    1.472795   -0.899974
     16          1           0       -3.332120    1.232430   -2.081501
     17          1           0       -4.216548   -0.182200   -1.420677
     18          6           0       -2.113812   -0.289492    2.117003
     19          1           0       -2.797920    0.361458    2.672091
     20          1           0       -2.113336   -1.263056    2.609321
     21          1           0       -1.105417    0.124786    2.187442
     22          6           0       -0.742234   -2.281926    0.531779
     23          1           0       -1.543815   -2.995113    0.744409
     24          1           0        0.027167   -2.786524   -0.063749
     25          1           0       -0.276668   -1.954364    1.460631
     26          6           0       -1.785198   -1.582585   -1.656518
     27          1           0       -0.981604   -2.141263   -2.147311
     28          1           0       -2.647021   -2.247694   -1.542957
     29          1           0       -2.041689   -0.748464   -2.310677
 ---------------------------------------------------------------------
 Rotational constants (GHZ):           0.5891075           0.3254637           0.3086032
   427 basis functions,  1056 primitive gaussians,   461 cartesian basis functions
    77 alpha electrons       72 beta electrons
       nuclear repulsion energy      1642.1691741080 Hartrees.
 NAtoms=   29 NActive=   29 NUniq=   29 SFac= 1.00D+00 NAtFMM=   60 NAOKFM=F Big=F
 Initial guess from the checkpoint file:  "checkpoint.chk"
 B after Tr=     0.000000    0.000000    0.000000
         Rot=    1.000000    0.000000    0.000000    0.000000 Ang=   0.00 deg.
 Initial guess <Sx>= 0.0000 <Sy>= 0.0000 <Sz>= 2.5000 <S**2>= 8.7624 S= 2.5021
 SCF Done:  E(UB3LYP) =  -3034.32256731     A.U. after   15 cycles
            NFock= 15  Conv=0.87D-08     -V/T= 2.0024
 <Sx>= 0.0000 <Sy>= 0.0000 <Sz>= 2.5000 <S**2>= 8.7618 S= 2.5020
 <L.S>= 0.000000000000E+00
 Annihilation of the first spin contaminant:
 S**2 before annihilation     8.7618,   after     8.7500
 1\1\GINC-HOLY7C12304\SP\UB3LYP\Jul-CC-pVDZ\C8H16Cl3Fe1O1(6)\EKWAN\11-F
 eb-2020\0\\#t pop=none jul-cc-pvdz guess=read ub3lyp\\theory_abbreviat
 ion b3lyp\\0,6\O,0,-0.351789,-0.114594,-0.462182\C,0,-1.232534,-1.1019
 22,-0.314053\C,0,-2.579236,-0.423923,0.66916\C,0,-2.819891,0.761299,-0
 .057471\C,0,-3.788894,0.792814,-1.185649\Fe,0,1.460548,0.170716,-0.073
 676\Cl,0,1.745095,2.228022,-0.817028\C,0,-2.05614,1.982312,0.203001\Cl
 ,0,2.570389,-1.415058,-1.118043\Cl,0,1.680021,0.060905,2.12913\H,0,-3.
 350576,-1.181213,0.517816\H,0,-2.450238,2.86188,-0.308909\H,0,-1.89113
 ,2.178361,1.265059\H,0,-1.049494,1.751098,-0.210507\H,0,-4.605483,1.47
 2795,-0.899974\H,0,-3.33212,1.23243,-2.081501\H,0,-4.216548,-0.1822,-1
 .420677\C,0,-2.113812,-0.289492,2.117003\H,0,-2.79792,0.361458,2.67209
 1\H,0,-2.113336,-1.263056,2.609321\H,0,-1.105417,0.124786,2.187442\C,0
 ,-0.742234,-2.281926,0.531779\H,0,-1.543815,-2.995113,0.744409\H,0,0.0
 27167,-2.786524,-0.063749\H,0,-0.276668,-1.954364,1.460631\C,0,-1.7851
 98,-1.582585,-1.656518\H,0,-0.981604,-2.141263,-2.147311\H,0,-2.647021
 ,-2.247694,-1.542957\H,0,-2.041689,-0.748464,-2.310677\\Version=ES64L-
 G16RevA.03\HF=-3034.3225673\S2=8.76175\S2-1=0.\S2A=8.750043\RMSD=8.662
 e-09\PG=C01 [X(C8H16Cl3Fe1O1)]\\@


      LET US REMEMBER, PLEASE, THAT THE SEARCH FOR THE CONSTITUTION
      OF THE WORLD IS ONE OF THE GREATEST AND NOBLEST PROBLEMS PRESENTED 
      BY NATURE.

                                                  -- GALILEO
 Job cpu time:       0 days  1 hours  4 minutes 32.0 seconds.
 Elapsed time:       0 days  0 hours 16 minutes 12.2 seconds.
 File lengths (MBytes):  RWF=    174 Int=      0 D2E=      0 Chk=     13 Scr=      1
 Normal termination of Gaussian 16 at Tue Feb 11 20:24:42 2020.
 Initial command:
 /n/sw/g16_nehalem/g16/l1.exe "/scratch/Gau-210908.inp" -scrdir="/scratch/"
 Entering Link 1 = /n/sw/g16_nehalem/g16/l1.exe PID=    214620.
  
 Copyright (c) 1988,1990,1992,1993,1995,1998,2003,2009,2016,
            Gaussian, Inc.  All Rights Reserved.
  
 This is part of the Gaussian(R) 16 program.  It is based on
 the Gaussian(R) 09 system (copyright 2009, Gaussian, Inc.),
 the Gaussian(R) 03 system (copyright 2003, Gaussian, Inc.),
 the Gaussian(R) 98 system (copyright 1998, Gaussian, Inc.),
 the Gaussian(R) 94 system (copyright 1995, Gaussian, Inc.),
 the Gaussian 92(TM) system (copyright 1992, Gaussian, Inc.),
 the Gaussian 90(TM) system (copyright 1990, Gaussian, Inc.),
 the Gaussian 88(TM) system (copyright 1988, Gaussian, Inc.),
 the Gaussian 86(TM) system (copyright 1986, Carnegie Mellon
 University), and the Gaussian 82(TM) system (copyright 1983,
 Carnegie Mellon University). Gaussian is a federally registered
 trademark of Gaussian, Inc.
  
 This software contains proprietary and confidential information,
 including trade secrets, belonging to Gaussian, Inc.
  
 This software is provided under written license and may be
 used, copied, transmitted, or stored only in accord with that
 written license.
  
 The following legend is applicable only to US Government
 contracts under FAR:
  
                    RESTRICTED RIGHTS LEGEND
  
 Use, reproduction and disclosure by the US Government is
 subject to restrictions as set forth in subparagraphs (a)
 and (c) of the Commercial Computer Software - Restricted
 Rights clause in FAR 52.227-19.
  
 Gaussian, Inc.
 340 Quinnipiac St., Bldg. 40, Wallingford CT 06492
  
  
 ---------------------------------------------------------------
 Warning -- This program may not be used in any manner that
 competes with the business of Gaussian, Inc. or will provide
 assistance to any competitor of Gaussian, Inc.  The licensee
 of this program is prohibited from giving any competitor of
 Gaussian, Inc. access to this program.  By using this program,
 the user acknowledges that Gaussian, Inc. is engaged in the
 business of creating and licensing software in the field of
 computational chemistry and represents and warrants to the
 licensee that it is not a competitor of Gaussian, Inc. and that
 it will not use this program in any manner prohibited above.
 ---------------------------------------------------------------
  

 Cite this work as:
 Gaussian 16, Revision A.03,
 M. J. Frisch, G. W. Trucks, H. B. Schlegel, G. E. Scuseria, 
 M. A. Robb, J. R. Cheeseman, G. Scalmani, V. Barone, 
 G. A. Petersson, H. Nakatsuji, X. Li, M. Caricato, A. V. Marenich, 
 J. Bloino, B. G. Janesko, R. Gomperts, B. Mennucci, H. P. Hratchian, 
 J. V. Ortiz, A. F. Izmaylov, J. L. Sonnenberg, D. Williams-Young, 
 F. Ding, F. Lipparini, F. Egidi, J. Goings, B. Peng, A. Petrone, 
 T. Henderson, D. Ranasinghe, V. G. Zakrzewski, J. Gao, N. Rega, 
 G. Zheng, W. Liang, M. Hada, M. Ehara, K. Toyota, R. Fukuda, 
 J. Hasegawa, M. Ishida, T. Nakajima, Y. Honda, O. Kitao, H. Nakai, 
 T. Vreven, K. Throssell, J. A. Montgomery, Jr., J. E. Peralta, 
 F. Ogliaro, M. J. Bearpark, J. J. Heyd, E. N. Brothers, K. N. Kudin, 
 V. N. Staroverov, T. A. Keith, R. Kobayashi, J. Normand, 
 K. Raghavachari, A. P. Rendell, J. C. Burant, S. S. Iyengar, 
 J. Tomasi, M. Cossi, J. M. Millam, M. Klene, C. Adamo, R. Cammi, 
 J. W. Ochterski, R. L. Martin, K. Morokuma, O. Farkas, 
 J. B. Foresman, and D. J. Fox, Gaussian, Inc., Wallingford CT, 2016.
 
 ******************************************
 Gaussian 16:  ES64L-G16RevA.03 25-Dec-2016
                11-Feb-2020 
 ******************************************
 %chk=checkpoint.chk
 %mem=3GB
 %nprocshared=4
 Will use up to    4 processors via shared memory.
 -------------------------------------------------------------------
 #t pop=none jul-cc-pvdz guess=read ub3lyp empiricaldispersion=gd3bj
 -------------------------------------------------------------------
 ------------------------------
 theory_abbreviation b3lyp_d3bj
 ------------------------------
 Symbolic Z-matrix:
 Charge =  0 Multiplicity = 6
 O                    -0.35179  -0.11459  -0.46218 
 C                    -1.23253  -1.10192  -0.31405 
 C                    -2.57924  -0.42392   0.66916 
 C                    -2.81989   0.7613   -0.05747 
 C                    -3.78889   0.79281  -1.18565 
 Fe                    1.46055   0.17072  -0.07368 
 Cl                    1.7451    2.22802  -0.81703 
 C                    -2.05614   1.98231   0.203 
 Cl                    2.57039  -1.41506  -1.11804 
 Cl                    1.68002   0.06091   2.12913 
 H                    -3.35058  -1.18121   0.51782 
 H                    -2.45024   2.86188  -0.30891 
 H                    -1.89113   2.17836   1.26506 
 H                    -1.04949   1.7511   -0.21051 
 H                    -4.60548   1.4728   -0.89997 
 H                    -3.33212   1.23243  -2.0815 
 H                    -4.21655  -0.1822   -1.42068 
 C                    -2.11381  -0.28949   2.117 
 H                    -2.79792   0.36146   2.67209 
 H                    -2.11334  -1.26306   2.60932 
 H                    -1.10542   0.12479   2.18744 
 C                    -0.74223  -2.28193   0.53178 
 H                    -1.54382  -2.99511   0.74441 
 H                     0.02717  -2.78652  -0.06375 
 H                    -0.27667  -1.95436   1.46063 
 C                    -1.7852   -1.58259  -1.65652 
 H                    -0.9816   -2.14126  -2.14731 
 H                    -2.64702  -2.24769  -1.54296 
 H                    -2.04169  -0.74846  -2.31068 
 
                    Distance matrix (angstroms):
                    1          2          3          4          5
     1  O    0.000000
     2  C    1.331342   0.000000
     3  C    2.517368   1.799999   0.000000
     4  C    2.650001   2.461124   1.410907   0.000000
     5  C    3.627738   3.299194   2.526665   1.487530   0.000000
     6  Fe   1.875341   2.988324   4.150332   4.321019   5.401864
     7  Cl   3.163967   4.495307   5.285963   4.854616   5.728939
     8  C    2.782857   3.233910   2.506172   1.463569   2.519065
     9  Cl   3.265040   3.899574   5.540314   5.909015   6.731994
    10  Cl   3.297567   3.975461   4.528558   5.051830   6.436807
    11  H    3.330285   2.276927   1.091494   2.094262   2.643993
    12  H    3.645048   4.146632   3.430708   2.147628   2.615666
    13  H    3.257388   3.699676   2.756895   2.149360   3.395176
    14  H    2.007720   2.860760   2.800829   2.034067   3.061621
    15  H    4.561291   4.283603   3.188322   2.098661   1.100364
    16  H    3.649526   3.602962   3.297950   2.140337   1.097477
    17  H    3.982417   3.312830   2.665828   2.167757   1.090311
    18  C    3.128500   2.710485   1.526742   2.516157   3.858082
    19  H    4.004229   3.675455   2.162494   2.758779   4.006277
    20  H    3.722384   3.057432   2.164586   3.421843   4.629891
    21  H    2.765098   2.788987   2.185956   2.895549   4.361772
    22  C    2.416140   1.532395   2.616415   3.731634   4.656793
    23  H    3.342780   2.191212   2.772864   4.047470   4.807691
    24  H    2.727923   2.118344   3.593379   4.548937   5.350948
    25  H    2.662256   2.188570   2.875847   4.018388   5.185125
    26  C    2.374047   1.529277   2.716942   3.020154   3.143093
    27  H    2.709929   2.122270   3.665269   4.021392   4.173066
    28  H    3.314556   2.196309   2.867786   3.360148   3.267450
    29  H    2.583503   2.183156   3.045277   2.821687   2.587267
                    6          7          8          9         10
     6  Fe   0.000000
     7  Cl   2.205912   0.000000
     8  C    3.965542   3.943377   0.000000
     9  Cl   2.199347   3.747499   5.889996   0.000000
    10  Cl   2.216434   3.657934   4.621761   3.676323   0.000000
    11  H    5.032344   6.274596   3.432574   6.147239   5.426426
    12  H    4.753099   4.273263   1.091332   6.644817   5.554146
    13  H    4.129963   4.190428   1.092534   6.204594   4.240679
    14  H    2.969283   2.899147   1.112558   4.894049   3.972519
    15  H    6.258986   6.395865   2.824059   7.738242   7.118740
    16  H    5.303609   5.326181   2.722021   6.540417   6.650071
    17  H    5.845373   6.458696   3.462485   6.904639   6.886926
    18  C    4.217454   5.462378   2.971165   5.802944   3.809999
    19  H    5.070520   6.024699   3.045293   6.807339   4.520740
    20  H    4.693274   6.230167   4.040552   5.987790   4.046358
    21  H    3.420371   4.644982   2.879632   5.177731   2.786781
    22  C    3.351757   5.324070   4.474167   3.800900   3.729304
    23  H    4.440488   6.366801   5.032927   4.784556   4.652936
    24  H    3.286327   5.353912   5.210866   3.075782   3.955818
    25  H    3.144516   5.173742   4.499508   3.878936   2.887357
    26  C    4.014265   5.261980   4.029852   4.391942   5.388871
    27  H    3.950863   5.319322   4.866463   3.768743   5.497430
    28  H    4.987947   6.312661   4.614159   5.300491   6.126756
    29  H    4.256140   5.042835   3.711593   4.810196   5.849623
                   11         12         13         14         15
    11  H    0.000000
    12  H    4.223823   0.000000
    13  H    3.738327   1.804765   0.000000
    14  H    3.797878   1.790420   1.751628   0.000000
    15  H    3.260165   2.631349   3.543008   3.632888   0.000000
    16  H    3.547177   2.564158   3.764399   2.996668   1.753635
    17  H    2.346421   3.690840   4.265325   3.902869   1.778036
    18  C    2.209559   3.991162   2.620247   3.273237   4.291414
    19  H    2.706689   3.906322   2.470454   3.646569   4.154757
    20  H    2.431430   5.064056   3.701320   4.262431   5.100081
    21  H    3.087721   3.941065   2.384388   2.897961   4.857955
    22  C    2.831115   5.484777   4.663885   4.112260   5.574275
    23  H    2.570207   6.019589   5.211193   4.866491   5.660389
    24  H    3.784757   6.172690   5.485953   4.665914   6.348426
    25  H    3.306898   5.572422   4.441188   4.137682   6.004708
    26  C    2.709102   4.691652   4.763565   3.707513   4.226312
    27  H    3.692780   5.528838   5.579485   4.348137   5.267804
    28  H    2.424697   5.260166   5.295875   4.507533   4.253356
    29  H    3.146558   4.148321   4.623295   3.412180   3.673842
                   16         17         18         19         20
    16  H    0.000000
    17  H    1.794458   0.000000
    18  C    4.629034   4.116818   0.000000
    19  H    4.862160   4.365641   1.095382   0.000000
    20  H    5.451302   4.672540   1.090965   1.763984   0.000000
    21  H    4.940542   4.774086   1.092451   1.776363   1.766349
    22  C    5.087970   4.504641   2.892050   3.974199   2.689646
    23  H    5.390355   4.443375   3.086956   4.068821   2.608117
    24  H    5.613210   5.160705   3.946472   5.037433   3.748068
    25  H    5.660225   5.192798   2.564707   3.631443   2.273927
    26  C    3.240044   2.815699   4.002441   4.851986   4.290356
    27  H    4.112306   3.851076   4.784906   5.726190   4.967657
    28  H    3.587569   2.597043   4.184994   4.959544   4.300668
    29  H    2.375221   2.417182   4.451989   5.160600   4.947355
                   21         22         23         24         25
    21  H    0.000000
    22  C    2.943703   0.000000
    23  H    3.465300   1.093791   0.000000
    24  H    3.850498   1.096016   1.778936   0.000000
    25  H    2.353284   1.089410   1.789356   1.763105   0.000000
    26  C    4.260663   2.522993   2.796060   2.696488   3.482887
    27  H    4.892892   2.693438   3.067114   2.403167   3.680912
    28  H    4.681995   2.816721   2.647214   3.103172   3.837467
    29  H    4.676777   3.481328   3.824769   3.671858   4.335004
                   26         27         28         29
    26  C    0.000000
    27  H    1.094880   0.000000
    28  H    1.094534   1.774876   0.000000
    29  H    1.090628   1.757941   1.789836   0.000000
 Framework group  C1[X(C8H16Cl3FeO)]
 Deg. of freedom    81
                         Standard orientation:                         
 ---------------------------------------------------------------------
 Center     Atomic      Atomic             Coordinates (Angstroms)
 Number     Number       Type             X           Y           Z
 ---------------------------------------------------------------------
      1          8           0       -0.351789   -0.114594   -0.462182
      2          6           0       -1.232534   -1.101922   -0.314053
      3          6           0       -2.579236   -0.423923    0.669160
      4          6           0       -2.819891    0.761299   -0.057471
      5          6           0       -3.788894    0.792814   -1.185649
      6         26           0        1.460548    0.170716   -0.073676
      7         17           0        1.745095    2.228022   -0.817028
      8          6           0       -2.056140    1.982312    0.203001
      9         17           0        2.570389   -1.415058   -1.118043
     10         17           0        1.680021    0.060905    2.129130
     11          1           0       -3.350576   -1.181213    0.517816
     12          1           0       -2.450238    2.861880   -0.308909
     13          1           0       -1.891130    2.178361    1.265059
     14          1           0       -1.049494    1.751098   -0.210507
     15          1           0       -4.605483    1.472795   -0.899974
     16          1           0       -3.332120    1.232430   -2.081501
     17          1           0       -4.216548   -0.182200   -1.420677
     18          6           0       -2.113812   -0.289492    2.117003
     19          1           0       -2.797920    0.361458    2.672091
     20          1           0       -2.113336   -1.263056    2.609321
     21          1           0       -1.105417    0.124786    2.187442
     22          6           0       -0.742234   -2.281926    0.531779
     23          1           0       -1.543815   -2.995113    0.744409
     24          1           0        0.027167   -2.786524   -0.063749
     25          1           0       -0.276668   -1.954364    1.460631
     26          6           0       -1.785198   -1.582585   -1.656518
     27          1           0       -0.981604   -2.141263   -2.147311
     28          1           0       -2.647021   -2.247694   -1.542957
     29          1           0       -2.041689   -0.748464   -2.310677
 ---------------------------------------------------------------------
 Rotational constants (GHZ):           0.5891075           0.3254637           0.3086032
   427 basis functions,  1056 primitive gaussians,   461 cartesian basis functions
    77 alpha electrons       72 beta electrons
       nuclear repulsion energy      1642.1691741080 Hartrees.
 NAtoms=   29 NActive=   29 NUniq=   29 SFac= 1.00D+00 NAtFMM=   60 NAOKFM=F Big=F
 Nuclear repulsion after empirical dispersion term =     1642.1013432839 Hartrees.
 Initial guess from the checkpoint file:  "checkpoint.chk"
 B after Tr=     0.000000    0.000000    0.000000
         Rot=    1.000000    0.000000    0.000000    0.000000 Ang=   0.00 deg.
 Initial guess <Sx>= 0.0000 <Sy>= 0.0000 <Sz>= 2.5000 <S**2>= 8.7618 S= 2.5020
 SCF Done:  E(UB3LYP) =  -3034.39039813     A.U. after    1 cycles
            NFock=  1  Conv=0.22D-08     -V/T= 2.0024
 <Sx>= 0.0000 <Sy>= 0.0000 <Sz>= 2.5000 <S**2>= 8.7618 S= 2.5020
 <L.S>= 0.000000000000E+00
 Annihilation of the first spin contaminant:
 S**2 before annihilation     8.7618,   after     8.7500
 1\1\GINC-HOLY7C12304\SP\UB3LYP\Jul-CC-pVDZ\C8H16Cl3Fe1O1(6)\EKWAN\11-F
 eb-2020\0\\#t pop=none jul-cc-pvdz guess=read ub3lyp empiricaldispersi
 on=gd3bj\\theory_abbreviation b3lyp_d3bj\\0,6\O,0,-0.351789,-0.114594,
 -0.462182\C,0,-1.232534,-1.101922,-0.314053\C,0,-2.579236,-0.423923,0.
 66916\C,0,-2.819891,0.761299,-0.057471\C,0,-3.788894,0.792814,-1.18564
 9\Fe,0,1.460548,0.170716,-0.073676\Cl,0,1.745095,2.228022,-0.817028\C,
 0,-2.05614,1.982312,0.203001\Cl,0,2.570389,-1.415058,-1.118043\Cl,0,1.
 680021,0.060905,2.12913\H,0,-3.350576,-1.181213,0.517816\H,0,-2.450238
 ,2.86188,-0.308909\H,0,-1.89113,2.178361,1.265059\H,0,-1.049494,1.7510
 98,-0.210507\H,0,-4.605483,1.472795,-0.899974\H,0,-3.33212,1.23243,-2.
 081501\H,0,-4.216548,-0.1822,-1.420677\C,0,-2.113812,-0.289492,2.11700
 3\H,0,-2.79792,0.361458,2.672091\H,0,-2.113336,-1.263056,2.609321\H,0,
 -1.105417,0.124786,2.187442\C,0,-0.742234,-2.281926,0.531779\H,0,-1.54
 3815,-2.995113,0.744409\H,0,0.027167,-2.786524,-0.063749\H,0,-0.276668
 ,-1.954364,1.460631\C,0,-1.785198,-1.582585,-1.656518\H,0,-0.981604,-2
 .141263,-2.147311\H,0,-2.647021,-2.247694,-1.542957\H,0,-2.041689,-0.7
 48464,-2.310677\\Version=ES64L-G16RevA.03\HF=-3034.3903981\S2=8.76175\
 S2-1=0.\S2A=8.750043\RMSD=2.211e-09\PG=C01 [X(C8H16Cl3Fe1O1)]\\@


 WHEN YOU REACH FOR THE STARS, YOU MAY NOT QUITE GET ONE,
 BUT YOU WON'T COME UP WITH A HANDFUL OF MUD, EITHER.

                                         -- LEO BURNETT (AD AGENCY HEAD)
 Job cpu time:       0 days  0 hours  4 minutes 56.6 seconds.
 Elapsed time:       0 days  0 hours  1 minutes 15.9 seconds.
 File lengths (MBytes):  RWF=    170 Int=      0 D2E=      0 Chk=     13 Scr=      1
 Normal termination of Gaussian 16 at Tue Feb 11 20:25:59 2020.
 Initial command:
 /n/sw/g16_nehalem/g16/l1.exe "/scratch/Gau-210908.inp" -scrdir="/scratch/"
 Entering Link 1 = /n/sw/g16_nehalem/g16/l1.exe PID=    214713.
  
 Copyright (c) 1988,1990,1992,1993,1995,1998,2003,2009,2016,
            Gaussian, Inc.  All Rights Reserved.
  
 This is part of the Gaussian(R) 16 program.  It is based on
 the Gaussian(R) 09 system (copyright 2009, Gaussian, Inc.),
 the Gaussian(R) 03 system (copyright 2003, Gaussian, Inc.),
 the Gaussian(R) 98 system (copyright 1998, Gaussian, Inc.),
 the Gaussian(R) 94 system (copyright 1995, Gaussian, Inc.),
 the Gaussian 92(TM) system (copyright 1992, Gaussian, Inc.),
 the Gaussian 90(TM) system (copyright 1990, Gaussian, Inc.),
 the Gaussian 88(TM) system (copyright 1988, Gaussian, Inc.),
 the Gaussian 86(TM) system (copyright 1986, Carnegie Mellon
 University), and the Gaussian 82(TM) system (copyright 1983,
 Carnegie Mellon University). Gaussian is a federally registered
 trademark of Gaussian, Inc.
  
 This software contains proprietary and confidential information,
 including trade secrets, belonging to Gaussian, Inc.
  
 This software is provided under written license and may be
 used, copied, transmitted, or stored only in accord with that
 written license.
  
 The following legend is applicable only to US Government
 contracts under FAR:
  
                    RESTRICTED RIGHTS LEGEND
  
 Use, reproduction and disclosure by the US Government is
 subject to restrictions as set forth in subparagraphs (a)
 and (c) of the Commercial Computer Software - Restricted
 Rights clause in FAR 52.227-19.
  
 Gaussian, Inc.
 340 Quinnipiac St., Bldg. 40, Wallingford CT 06492
  
  
 ---------------------------------------------------------------
 Warning -- This program may not be used in any manner that
 competes with the business of Gaussian, Inc. or will provide
 assistance to any competitor of Gaussian, Inc.  The licensee
 of this program is prohibited from giving any competitor of
 Gaussian, Inc. access to this program.  By using this program,
 the user acknowledges that Gaussian, Inc. is engaged in the
 business of creating and licensing software in the field of
 computational chemistry and represents and warrants to the
 licensee that it is not a competitor of Gaussian, Inc. and that
 it will not use this program in any manner prohibited above.
 ---------------------------------------------------------------
  

 Cite this work as:
 Gaussian 16, Revision A.03,
 M. J. Frisch, G. W. Trucks, H. B. Schlegel, G. E. Scuseria, 
 M. A. Robb, J. R. Cheeseman, G. Scalmani, V. Barone, 
 G. A. Petersson, H. Nakatsuji, X. Li, M. Caricato, A. V. Marenich, 
 J. Bloino, B. G. Janesko, R. Gomperts, B. Mennucci, H. P. Hratchian, 
 J. V. Ortiz, A. F. Izmaylov, J. L. Sonnenberg, D. Williams-Young, 
 F. Ding, F. Lipparini, F. Egidi, J. Goings, B. Peng, A. Petrone, 
 T. Henderson, D. Ranasinghe, V. G. Zakrzewski, J. Gao, N. Rega, 
 G. Zheng, W. Liang, M. Hada, M. Ehara, K. Toyota, R. Fukuda, 
 J. Hasegawa, M. Ishida, T. Nakajima, Y. Honda, O. Kitao, H. Nakai, 
 T. Vreven, K. Throssell, J. A. Montgomery, Jr., J. E. Peralta, 
 F. Ogliaro, M. J. Bearpark, J. J. Heyd, E. N. Brothers, K. N. Kudin, 
 V. N. Staroverov, T. A. Keith, R. Kobayashi, J. Normand, 
 K. Raghavachari, A. P. Rendell, J. C. Burant, S. S. Iyengar, 
 J. Tomasi, M. Cossi, J. M. Millam, M. Klene, C. Adamo, R. Cammi, 
 J. W. Ochterski, R. L. Martin, K. Morokuma, O. Farkas, 
 J. B. Foresman, and D. J. Fox, Gaussian, Inc., Wallingford CT, 2016.
 
 ******************************************
 Gaussian 16:  ES64L-G16RevA.03 25-Dec-2016
                11-Feb-2020 
 ******************************************
 %chk=checkpoint.chk
 %mem=3GB
 %nprocshared=4
 Will use up to    4 processors via shared memory.
 ----------------------------------------
 #t pop=none jul-cc-pvdz guess=read ub97d
 ----------------------------------------
 ------------------------
 theory_abbreviation b97d
 ------------------------
 Symbolic Z-matrix:
 Charge =  0 Multiplicity = 6
 O                    -0.35179  -0.11459  -0.46218 
 C                    -1.23253  -1.10192  -0.31405 
 C                    -2.57924  -0.42392   0.66916 
 C                    -2.81989   0.7613   -0.05747 
 C                    -3.78889   0.79281  -1.18565 
 Fe                    1.46055   0.17072  -0.07368 
 Cl                    1.7451    2.22802  -0.81703 
 C                    -2.05614   1.98231   0.203 
 Cl                    2.57039  -1.41506  -1.11804 
 Cl                    1.68002   0.06091   2.12913 
 H                    -3.35058  -1.18121   0.51782 
 H                    -2.45024   2.86188  -0.30891 
 H                    -1.89113   2.17836   1.26506 
 H                    -1.04949   1.7511   -0.21051 
 H                    -4.60548   1.4728   -0.89997 
 H                    -3.33212   1.23243  -2.0815 
 H                    -4.21655  -0.1822   -1.42068 
 C                    -2.11381  -0.28949   2.117 
 H                    -2.79792   0.36146   2.67209 
 H                    -2.11334  -1.26306   2.60932 
 H                    -1.10542   0.12479   2.18744 
 C                    -0.74223  -2.28193   0.53178 
 H                    -1.54382  -2.99511   0.74441 
 H                     0.02717  -2.78652  -0.06375 
 H                    -0.27667  -1.95436   1.46063 
 C                    -1.7852   -1.58259  -1.65652 
 H                    -0.9816   -2.14126  -2.14731 
 H                    -2.64702  -2.24769  -1.54296 
 H                    -2.04169  -0.74846  -2.31068 
 
                    Distance matrix (angstroms):
                    1          2          3          4          5
     1  O    0.000000
     2  C    1.331342   0.000000
     3  C    2.517368   1.799999   0.000000
     4  C    2.650001   2.461124   1.410907   0.000000
     5  C    3.627738   3.299194   2.526665   1.487530   0.000000
     6  Fe   1.875341   2.988324   4.150332   4.321019   5.401864
     7  Cl   3.163967   4.495307   5.285963   4.854616   5.728939
     8  C    2.782857   3.233910   2.506172   1.463569   2.519065
     9  Cl   3.265040   3.899574   5.540314   5.909015   6.731994
    10  Cl   3.297567   3.975461   4.528558   5.051830   6.436807
    11  H    3.330285   2.276927   1.091494   2.094262   2.643993
    12  H    3.645048   4.146632   3.430708   2.147628   2.615666
    13  H    3.257388   3.699676   2.756895   2.149360   3.395176
    14  H    2.007720   2.860760   2.800829   2.034067   3.061621
    15  H    4.561291   4.283603   3.188322   2.098661   1.100364
    16  H    3.649526   3.602962   3.297950   2.140337   1.097477
    17  H    3.982417   3.312830   2.665828   2.167757   1.090311
    18  C    3.128500   2.710485   1.526742   2.516157   3.858082
    19  H    4.004229   3.675455   2.162494   2.758779   4.006277
    20  H    3.722384   3.057432   2.164586   3.421843   4.629891
    21  H    2.765098   2.788987   2.185956   2.895549   4.361772
    22  C    2.416140   1.532395   2.616415   3.731634   4.656793
    23  H    3.342780   2.191212   2.772864   4.047470   4.807691
    24  H    2.727923   2.118344   3.593379   4.548937   5.350948
    25  H    2.662256   2.188570   2.875847   4.018388   5.185125
    26  C    2.374047   1.529277   2.716942   3.020154   3.143093
    27  H    2.709929   2.122270   3.665269   4.021392   4.173066
    28  H    3.314556   2.196309   2.867786   3.360148   3.267450
    29  H    2.583503   2.183156   3.045277   2.821687   2.587267
                    6          7          8          9         10
     6  Fe   0.000000
     7  Cl   2.205912   0.000000
     8  C    3.965542   3.943377   0.000000
     9  Cl   2.199347   3.747499   5.889996   0.000000
    10  Cl   2.216434   3.657934   4.621761   3.676323   0.000000
    11  H    5.032344   6.274596   3.432574   6.147239   5.426426
    12  H    4.753099   4.273263   1.091332   6.644817   5.554146
    13  H    4.129963   4.190428   1.092534   6.204594   4.240679
    14  H    2.969283   2.899147   1.112558   4.894049   3.972519
    15  H    6.258986   6.395865   2.824059   7.738242   7.118740
    16  H    5.303609   5.326181   2.722021   6.540417   6.650071
    17  H    5.845373   6.458696   3.462485   6.904639   6.886926
    18  C    4.217454   5.462378   2.971165   5.802944   3.809999
    19  H    5.070520   6.024699   3.045293   6.807339   4.520740
    20  H    4.693274   6.230167   4.040552   5.987790   4.046358
    21  H    3.420371   4.644982   2.879632   5.177731   2.786781
    22  C    3.351757   5.324070   4.474167   3.800900   3.729304
    23  H    4.440488   6.366801   5.032927   4.784556   4.652936
    24  H    3.286327   5.353912   5.210866   3.075782   3.955818
    25  H    3.144516   5.173742   4.499508   3.878936   2.887357
    26  C    4.014265   5.261980   4.029852   4.391942   5.388871
    27  H    3.950863   5.319322   4.866463   3.768743   5.497430
    28  H    4.987947   6.312661   4.614159   5.300491   6.126756
    29  H    4.256140   5.042835   3.711593   4.810196   5.849623
                   11         12         13         14         15
    11  H    0.000000
    12  H    4.223823   0.000000
    13  H    3.738327   1.804765   0.000000
    14  H    3.797878   1.790420   1.751628   0.000000
    15  H    3.260165   2.631349   3.543008   3.632888   0.000000
    16  H    3.547177   2.564158   3.764399   2.996668   1.753635
    17  H    2.346421   3.690840   4.265325   3.902869   1.778036
    18  C    2.209559   3.991162   2.620247   3.273237   4.291414
    19  H    2.706689   3.906322   2.470454   3.646569   4.154757
    20  H    2.431430   5.064056   3.701320   4.262431   5.100081
    21  H    3.087721   3.941065   2.384388   2.897961   4.857955
    22  C    2.831115   5.484777   4.663885   4.112260   5.574275
    23  H    2.570207   6.019589   5.211193   4.866491   5.660389
    24  H    3.784757   6.172690   5.485953   4.665914   6.348426
    25  H    3.306898   5.572422   4.441188   4.137682   6.004708
    26  C    2.709102   4.691652   4.763565   3.707513   4.226312
    27  H    3.692780   5.528838   5.579485   4.348137   5.267804
    28  H    2.424697   5.260166   5.295875   4.507533   4.253356
    29  H    3.146558   4.148321   4.623295   3.412180   3.673842
                   16         17         18         19         20
    16  H    0.000000
    17  H    1.794458   0.000000
    18  C    4.629034   4.116818   0.000000
    19  H    4.862160   4.365641   1.095382   0.000000
    20  H    5.451302   4.672540   1.090965   1.763984   0.000000
    21  H    4.940542   4.774086   1.092451   1.776363   1.766349
    22  C    5.087970   4.504641   2.892050   3.974199   2.689646
    23  H    5.390355   4.443375   3.086956   4.068821   2.608117
    24  H    5.613210   5.160705   3.946472   5.037433   3.748068
[...]
 Rotational constants (GHZ):           0.5891075           0.3254637           0.3086032
   427 basis functions,  1056 primitive gaussians,   461 cartesian basis functions
    77 alpha electrons       72 beta electrons
       nuclear repulsion energy      1642.1691741080 Hartrees.
 NAtoms=   29 NActive=   29 NUniq=   29 SFac= 1.00D+00 NAtFMM=   60 NAOKFM=F Big=F
 Nuclear repulsion after empirical dispersion term =     1642.1667486793 Hartrees.
 Initial guess from the checkpoint file:  "checkpoint.chk"
 B after Tr=     0.000000    0.000000    0.000000
         Rot=    1.000000    0.000000    0.000000    0.000000 Ang=   0.00 deg.
 Initial guess <Sx>= 0.0000 <Sy>= 0.0000 <Sz>= 2.5000 <S**2>= 8.7615 S= 2.5019
 SCF Done:  E(UM06L) =  -3034.18918284     A.U. after   16 cycles
            NFock= 16  Conv=0.98D-08     -V/T= 2.0020
 <Sx>= 0.0000 <Sy>= 0.0000 <Sz>= 2.5000 <S**2>= 8.7619 S= 2.5020
 <L.S>= 0.000000000000E+00
 Annihilation of the first spin contaminant:
 S**2 before annihilation     8.7619,   after     8.7500
 1\1\GINC-HOLY7C12304\SP\UM06L\Jul-CC-pVDZ\C8H16Cl3Fe1O1(6)\EKWAN\12-Fe
 b-2020\0\\#t pop=none jul-cc-pvdz guess=read um06l empiricaldispersion
 =gd3\\theory_abbreviation m06l_d3\\0,6\O,0,-0.351789,-0.114594,-0.4621
 82\C,0,-1.232534,-1.101922,-0.314053\C,0,-2.579236,-0.423923,0.66916\C
 ,0,-2.819891,0.761299,-0.057471\C,0,-3.788894,0.792814,-1.185649\Fe,0,
 1.460548,0.170716,-0.073676\Cl,0,1.745095,2.228022,-0.817028\C,0,-2.05
 614,1.982312,0.203001\Cl,0,2.570389,-1.415058,-1.118043\Cl,0,1.680021,
 0.060905,2.12913\H,0,-3.350576,-1.181213,0.517816\H,0,-2.450238,2.8618
 8,-0.308909\H,0,-1.89113,2.178361,1.265059\H,0,-1.049494,1.751098,-0.2
 10507\H,0,-4.605483,1.472795,-0.899974\H,0,-3.33212,1.23243,-2.081501\
 H,0,-4.216548,-0.1822,-1.420677\C,0,-2.113812,-0.289492,2.117003\H,0,-
 2.79792,0.361458,2.672091\H,0,-2.113336,-1.263056,2.609321\H,0,-1.1054
 17,0.124786,2.187442\C,0,-0.742234,-2.281926,0.531779\H,0,-1.543815,-2
 .995113,0.744409\H,0,0.027167,-2.786524,-0.063749\H,0,-0.276668,-1.954
 364,1.460631\C,0,-1.785198,-1.582585,-1.656518\H,0,-0.981604,-2.141263
 ,-2.147311\H,0,-2.647021,-2.247694,-1.542957\H,0,-2.041689,-0.748464,-
 2.310677\\Version=ES64L-G16RevA.03\HF=-3034.1891828\S2=8.761898\S2-1=0
 .\S2A=8.750045\RMSD=9.843e-09\PG=C01 [X(C8H16Cl3Fe1O1)]\\@


 I do not feel obliged to believe that the same God who
 has endowed us with sense, reason, and intellect has
 intended us to forgo their use.
                   --Galileo Galilei
 Job cpu time:       0 days  1 hours 13 minutes 30.8 seconds.
 Elapsed time:       0 days  0 hours 18 minutes 27.6 seconds.
 File lengths (MBytes):  RWF=    174 Int=      0 D2E=      0 Chk=     13 Scr=      1
 Normal termination of Gaussian 16 at Wed Feb 12 06:05:29 2020.
 Initial command:
 /n/sw/g16_nehalem/g16/l1.exe "/scratch/Gau-210908.inp" -scrdir="/scratch/"
 Entering Link 1 = /n/sw/g16_nehalem/g16/l1.exe PID=    264503.
  
 Copyright (c) 1988,1990,1992,1993,1995,1998,2003,2009,2016,
            Gaussian, Inc.  All Rights Reserved.
  
 This is part of the Gaussian(R) 16 program.  It is based on
 the Gaussian(R) 09 system (copyright 2009, Gaussian, Inc.),
 the Gaussian(R) 03 system (copyright 2003, Gaussian, Inc.),
 the Gaussian(R) 98 system (copyright 1998, Gaussian, Inc.),
 the Gaussian(R) 94 system (copyright 1995, Gaussian, Inc.),
 the Gaussian 92(TM) system (copyright 1992, Gaussian, Inc.),
 the Gaussian 90(TM) system (copyright 1990, Gaussian, Inc.),
 the Gaussian 88(TM) system (copyright 1988, Gaussian, Inc.),
 the Gaussian 86(TM) system (copyright 1986, Carnegie Mellon
 University), and the Gaussian 82(TM) system (copyright 1983,
 Carnegie Mellon University). Gaussian is a federally registered
 trademark of Gaussian, Inc.
  
 This software contains proprietary and confidential information,
 including trade secrets, belonging to Gaussian, Inc.
  
 This software is provided under written license and may be
 used, copied, transmitted, or stored only in accord with that
 written license.
  
 The following legend is applicable only to US Government
 contracts under FAR:
  
                    RESTRICTED RIGHTS LEGEND
  
 Use, reproduction and disclosure by the US Government is
 subject to restrictions as set forth in subparagraphs (a)
 and (c) of the Commercial Computer Software - Restricted
 Rights clause in FAR 52.227-19.
  
 Gaussian, Inc.
 340 Quinnipiac St., Bldg. 40, Wallingford CT 06492
  
  
 ---------------------------------------------------------------
 Warning -- This program may not be used in any manner that
 competes with the business of Gaussian, Inc. or will provide
 assistance to any competitor of Gaussian, Inc.  The licensee
 of this program is prohibited from giving any competitor of
 Gaussian, Inc. access to this program.  By using this program,
 the user acknowledges that Gaussian, Inc. is engaged in the
 business of creating and licensing software in the field of
 computational chemistry and represents and warrants to the
 licensee that it is not a competitor of Gaussian, Inc. and that
 it will not use this program in any manner prohibited above.
 ---------------------------------------------------------------
  

 Cite this work as:
 Gaussian 16, Revision A.03,
 M. J. Frisch, G. W. Trucks, H. B. Schlegel, G. E. Scuseria, 
 M. A. Robb, J. R. Cheeseman, G. Scalmani, V. Barone, 
 G. A. Petersson, H. Nakatsuji, X. Li, M. Caricato, A. V. Marenich, 
 J. Bloino, B. G. Janesko, R. Gomperts, B. Mennucci, H. P. Hratchian, 
 J. V. Ortiz, A. F. Izmaylov, J. L. Sonnenberg, D. Williams-Young, 
 F. Ding, F. Lipparini, F. Egidi, J. Goings, B. Peng, A. Petrone, 
 T. Henderson, D. Ranasinghe, V. G. Zakrzewski, J. Gao, N. Rega, 
 G. Zheng, W. Liang, M. Hada, M. Ehara, K. Toyota, R. Fukuda, 
 J. Hasegawa, M. Ishida, T. Nakajima, Y. Honda, O. Kitao, H. Nakai, 
 T. Vreven, K. Throssell, J. A. Montgomery, Jr., J. E. Peralta, 
 F. Ogliaro, M. J. Bearpark, J. J. Heyd, E. N. Brothers, K. N. Kudin, 
 V. N. Staroverov, T. A. Keith, R. Kobayashi, J. Normand, 
 K. Raghavachari, A. P. Rendell, J. C. Burant, S. S. Iyengar, 
 J. Tomasi, M. Cossi, J. M. Millam, M. Klene, C. Adamo, R. Cammi, 
 J. W. Ochterski, R. L. Martin, K. Morokuma, O. Farkas, 
 J. B. Foresman, and D. J. Fox, Gaussian, Inc., Wallingford CT, 2016.
 
 ******************************************
 Gaussian 16:  ES64L-G16RevA.03 25-Dec-2016
                12-Feb-2020 
 ******************************************
 %chk=checkpoint.chk
 %mem=3GB
 %nprocshared=4
 Will use up to    4 processors via shared memory.
 -------------------------------------------------------------------
 #t pop=none jul-cc-pvdz guess=read ub97d3 empiricaldispersion=gd3bj
 -------------------------------------------------------------------
 ------------------------------
 theory_abbreviation b97d3_d3bj
 ------------------------------
 Symbolic Z-matrix:
 Charge =  0 Multiplicity = 6
 O                    -0.35179  -0.11459  -0.46218 
 C                    -1.23253  -1.10192  -0.31405 
 C                    -2.57924  -0.42392   0.66916 
 C                    -2.81989   0.7613   -0.05747 
 C                    -3.78889   0.79281  -1.18565 
 Fe                    1.46055   0.17072  -0.07368 
 Cl                    1.7451    2.22802  -0.81703 
 C                    -2.05614   1.98231   0.203 
 Cl                    2.57039  -1.41506  -1.11804 
 Cl                    1.68002   0.06091   2.12913 
 H                    -3.35058  -1.18121   0.51782 
 H                    -2.45024   2.86188  -0.30891 
 H                    -1.89113   2.17836   1.26506 
 H                    -1.04949   1.7511   -0.21051 
 H                    -4.60548   1.4728   -0.89997 
 H                    -3.33212   1.23243  -2.0815 
 H                    -4.21655  -0.1822   -1.42068 
 C                    -2.11381  -0.28949   2.117 
 H                    -2.79792   0.36146   2.67209 
 H                    -2.11334  -1.26306   2.60932 
 H                    -1.10542   0.12479   2.18744 
 C                    -0.74223  -2.28193   0.53178 
 H                    -1.54382  -2.99511   0.74441 
 H                     0.02717  -2.78652  -0.06375 
 H                    -0.27667  -1.95436   1.46063 
 C                    -1.7852   -1.58259  -1.65652 
 H                    -0.9816   -2.14126  -2.14731 
 H                    -2.64702  -2.24769  -1.54296 
 H                    -2.04169  -0.74846  -2.31068 
 
                    Distance matrix (angstroms):
                    1          2          3          4          5
     1  O    0.000000
     2  C    1.331342   0.000000
     3  C    2.517368   1.799999   0.000000
     4  C    2.650001   2.461124   1.410907   0.000000
     5  C    3.627738   3.299194   2.526665   1.487530   0.000000
     6  Fe   1.875341   2.988324   4.150332   4.321019   5.401864
     7  Cl   3.163967   4.495307   5.285963   4.854616   5.728939
     8  C    2.782857   3.233910   2.506172   1.463569   2.519065
     9  Cl   3.265040   3.899574   5.540314   5.909015   6.731994
    10  Cl   3.297567   3.975461   4.528558   5.051830   6.436807
    11  H    3.330285   2.276927   1.091494   2.094262   2.643993
    12  H    3.645048   4.146632   3.430708   2.147628   2.615666
    13  H    3.257388   3.699676   2.756895   2.149360   3.395176
    14  H    2.007720   2.860760   2.800829   2.034067   3.061621
    15  H    4.561291   4.283603   3.188322   2.098661   1.100364
    16  H    3.649526   3.602962   3.297950   2.140337   1.097477
    17  H    3.982417   3.312830   2.665828   2.167757   1.090311
    18  C    3.128500   2.710485   1.526742   2.516157   3.858082
    19  H    4.004229   3.675455   2.162494   2.758779   4.006277
    20  H    3.722384   3.057432   2.164586   3.421843   4.629891
    21  H    2.765098   2.788987   2.185956   2.895549   4.361772
    22  C    2.416140   1.532395   2.616415   3.731634   4.656793
    23  H    3.342780   2.191212   2.772864   4.047470   4.807691
    24  H    2.727923   2.118344   3.593379   4.548937   5.350948
    25  H    2.662256   2.188570   2.875847   4.018388   5.185125
    26  C    2.374047   1.529277   2.716942   3.020154   3.143093
    27  H    2.709929   2.122270   3.665269   4.021392   4.173066
    28  H    3.314556   2.196309   2.867786   3.360148   3.267450
    29  H    2.583503   2.183156   3.045277   2.821687   2.587267
                    6          7          8          9         10
     6  Fe   0.000000
     7  Cl   2.205912   0.000000
     8  C    3.965542   3.943377   0.000000
     9  Cl   2.199347   3.747499   5.889996   0.000000
    10  Cl   2.216434   3.657934   4.621761   3.676323   0.000000
    11  H    5.032344   6.274596   3.432574   6.147239   5.426426
    12  H    4.753099   4.273263   1.091332   6.644817   5.554146
    13  H    4.129963   4.190428   1.092534   6.204594   4.240679
    14  H    2.969283   2.899147   1.112558   4.894049   3.972519
    15  H    6.258986   6.395865   2.824059   7.738242   7.118740
    16  H    5.303609   5.326181   2.722021   6.540417   6.650071
    17  H    5.845373   6.458696   3.462485   6.904639   6.886926
    18  C    4.217454   5.462378   2.971165   5.802944   3.809999
    19  H    5.070520   6.024699   3.045293   6.807339   4.520740
    20  H    4.693274   6.230167   4.040552   5.987790   4.046358
    21  H    3.420371   4.644982   2.879632   5.177731   2.786781
    22  C    3.351757   5.324070   4.474167   3.800900   3.729304
    23  H    4.440488   6.366801   5.032927   4.784556   4.652936
    24  H    3.286327   5.353912   5.210866   3.075782   3.955818
    25  H    3.144516   5.173742   4.499508   3.878936   2.887357
    26  C    4.014265   5.261980   4.029852   4.391942   5.388871
    27  H    3.950863   5.319322   4.866463   3.768743   5.497430
    28  H    4.987947   6.312661   4.614159   5.300491   6.126756
    29  H    4.256140   5.042835   3.711593   4.810196   5.849623
                   11         12         13         14         15
    11  H    0.000000
    12  H    4.223823   0.000000
    13  H    3.738327   1.804765   0.000000
    14  H    3.797878   1.790420   1.751628   0.000000
    15  H    3.260165   2.631349   3.543008   3.632888   0.000000
    16  H    3.547177   2.564158   3.764399   2.996668   1.753635
    17  H    2.346421   3.690840   4.265325   3.902869   1.778036
    18  C    2.209559   3.991162   2.620247   3.273237   4.291414
    19  H    2.706689   3.906322   2.470454   3.646569   4.154757
    20  H    2.431430   5.064056   3.701320   4.262431   5.100081
    21  H    3.087721   3.941065   2.384388   2.897961   4.857955
    22  C    2.831115   5.484777   4.663885   4.112260   5.574275
    23  H    2.570207   6.019589   5.211193   4.866491   5.660389
    24  H    3.784757   6.172690   5.485953   4.665914   6.348426
    25  H    3.306898   5.572422   4.441188   4.137682   6.004708
    26  C    2.709102   4.691652   4.763565   3.707513   4.226312
    27  H    3.692780   5.528838   5.579485   4.348137   5.267804
    28  H    2.424697   5.260166   5.295875   4.507533   4.253356
    29  H    3.146558   4.148321   4.623295   3.412180   3.673842
                   16         17         18         19         20
    16  H    0.000000
    17  H    1.794458   0.000000
    18  C    4.629034   4.116818   0.000000
    19  H    4.862160   4.365641   1.095382   0.000000
    20  H    5.451302   4.672540   1.090965   1.763984   0.000000
    21  H    4.940542   4.774086   1.092451   1.776363   1.766349
    22  C    5.087970   4.504641   2.892050   3.974199   2.689646
    23  H    5.390355   4.443375   3.086956   4.068821   2.608117
    24  H    5.613210   5.160705   3.946472   5.037433   3.748068
    25  H    5.660225   5.192798   2.564707   3.631443   2.273927
    26  C    3.240044   2.815699   4.002441   4.851986   4.290356
    27  H    4.112306   3.851076   4.784906   5.726190   4.967657
    28  H    3.587569   2.597043   4.184994   4.959544   4.300668
    29  H    2.375221   2.417182   4.451989   5.160600   4.947355
                   21         22         23         24         25
    21  H    0.000000
    22  C    2.943703   0.000000
    23  H    3.465300   1.093791   0.000000
    24  H    3.850498   1.096016   1.778936   0.000000
    25  H    2.353284   1.089410   1.789356   1.763105   0.000000
    26  C    4.260663   2.522993   2.796060   2.696488   3.482887
    27  H    4.892892   2.693438   3.067114   2.403167   3.680912
    28  H    4.681995   2.816721   2.647214   3.103172   3.837467
    29  H    4.676777   3.481328   3.824769   3.671858   4.335004
                   26         27         28         29
    26  C    0.000000
    27  H    1.094880   0.000000
    28  H    1.094534   1.774876   0.000000
    29  H    1.090628   1.757941   1.789836   0.000000
 Framework group  C1[X(C8H16Cl3FeO)]
 Deg. of freedom    81
                         Standard orientation:                         
 ---------------------------------------------------------------------
 Center     Atomic      Atomic             Coordinates (Angstroms)
 Number     Number       Type             X           Y           Z
 ---------------------------------------------------------------------
      1          8           0       -0.351789   -0.114594   -0.462182
      2          6           0       -1.232534   -1.101922   -0.314053
      3          6           0       -2.579236   -0.423923    0.669160
      4          6           0       -2.819891    0.761299   -0.057471
      5          6           0       -3.788894    0.792814   -1.185649
      6         26           0        1.460548    0.170716   -0.073676
      7         17           0        1.745095    2.228022   -0.817028
      8          6           0       -2.056140    1.982312    0.203001
      9         17           0        2.570389   -1.415058   -1.118043
     10         17           0        1.680021    0.060905    2.129130
     11          1           0       -3.350576   -1.181213    0.517816
     12          1           0       -2.450238    2.861880   -0.308909
     13          1           0       -1.891130    2.178361    1.265059
     14          1           0       -1.049494    1.751098   -0.210507
     15          1           0       -4.605483    1.472795   -0.899974
     16          1           0       -3.332120    1.232430   -2.081501
     17          1           0       -4.216548   -0.182200   -1.420677
     18          6           0       -2.113812   -0.289492    2.117003
     19          1           0       -2.797920    0.361458    2.672091
     20          1           0       -2.113336   -1.263056    2.609321
     21          1           0       -1.105417    0.124786    2.187442
     22          6           0       -0.742234   -2.281926    0.531779
     23          1           0       -1.543815   -2.995113    0.744409
     24          1           0        0.027167   -2.786524   -0.063749
     25          1           0       -0.276668   -1.954364    1.460631
     26          6           0       -1.785198   -1.582585   -1.656518
     27          1           0       -0.981604   -2.141263   -2.147311
     28          1           0       -2.647021   -2.247694   -1.542957
     29          1           0       -2.041689   -0.748464   -2.310677
 ---------------------------------------------------------------------
 Rotational constants (GHZ):           0.5891075           0.3254637           0.3086032
   427 basis functions,  1056 primitive gaussians,   461 cartesian basis functions
    77 alpha electrons       72 beta electrons
       nuclear repulsion energy      1642.1691741080 Hartrees.
 NAtoms=   29 NActive=   29 NUniq=   29 SFac= 1.00D+00 NAtFMM=   60 NAOKFM=F Big=F
 Nuclear repulsion after empirical dispersion term =     1642.0688567011 Hartrees.
 Initial guess from the checkpoint file:  "checkpoint.chk"
 B after Tr=     0.000000    0.000000    0.000000
         Rot=    1.000000    0.000000    0.000000    0.000000 Ang=   0.00 deg.
 Initial guess <Sx>= 0.0000 <Sy>= 0.0000 <Sz>= 2.5000 <S**2>= 8.7619 S= 2.5020
 EnCoef did     3 forward-backward iterations
 SCF Done:  E(UB97D3) =  -3034.60923170     A.U. after   16 cycles
            NFock= 16  Conv=0.43D-08     -V/T= 2.0019
 <Sx>= 0.0000 <Sy>= 0.0000 <Sz>= 2.5000 <S**2>= 8.7602 S= 2.5017
 <L.S>= 0.000000000000E+00
 Annihilation of the first spin contaminant:
 S**2 before annihilation     8.7602,   after     8.7500
 1\1\GINC-HOLY7C12304\SP\UB97D3\Jul-CC-pVDZ\C8H16Cl3Fe1O1(6)\EKWAN\12-F
 eb-2020\0\\#t pop=none jul-cc-pvdz guess=read ub97d3 empiricaldispersi
 on=gd3bj\\theory_abbreviation b97d3_d3bj\\0,6\O,0,-0.351789,-0.114594,
 -0.462182\C,0,-1.232534,-1.101922,-0.314053\C,0,-2.579236,-0.423923,0.
 66916\C,0,-2.819891,0.761299,-0.057471\C,0,-3.788894,0.792814,-1.18564
 9\Fe,0,1.460548,0.170716,-0.073676\Cl,0,1.745095,2.228022,-0.817028\C,
 0,-2.05614,1.982312,0.203001\Cl,0,2.570389,-1.415058,-1.118043\Cl,0,1.
 680021,0.060905,2.12913\H,0,-3.350576,-1.181213,0.517816\H,0,-2.450238
 ,2.86188,-0.308909\H,0,-1.89113,2.178361,1.265059\H,0,-1.049494,1.7510
 98,-0.210507\H,0,-4.605483,1.472795,-0.899974\H,0,-3.33212,1.23243,-2.
 081501\H,0,-4.216548,-0.1822,-1.420677\C,0,-2.113812,-0.289492,2.11700
 3\H,0,-2.79792,0.361458,2.672091\H,0,-2.113336,-1.263056,2.609321\H,0,
 -1.105417,0.124786,2.187442\C,0,-0.742234,-2.281926,0.531779\H,0,-1.54
 3815,-2.995113,0.744409\H,0,0.027167,-2.786524,-0.063749\H,0,-0.276668
 ,-1.954364,1.460631\C,0,-1.785198,-1.582585,-1.656518\H,0,-0.981604,-2
 .141263,-2.147311\H,0,-2.647021,-2.247694,-1.542957\H,0,-2.041689,-0.7
 48464,-2.310677\\Version=ES64L-G16RevA.03\HF=-3034.6092317\S2=8.760248
 \S2-1=0.\S2A=8.750033\RMSD=4.284e-09\PG=C01 [X(C8H16Cl3Fe1O1)]\\@


 THE FIRST MORNING OF CREATION WROTE WHAT THE LAST DAWN OF
 RECKONING SHALL READ. -- OMAR KHAYYAM
 Job cpu time:       0 days  0 hours 53 minutes 18.5 seconds.
 Elapsed time:       0 days  0 hours 13 minutes 24.8 seconds.
 File lengths (MBytes):  RWF=    174 Int=      0 D2E=      0 Chk=     13 Scr=      1
 Normal termination of Gaussian 16 at Wed Feb 12 06:18:55 2020.
