 Entering Gaussian System, Link 0=g16
 Input=simple-grid-170-210-b3lyp_d3bj-631gd-gas-singlepoint-DFT-juldz2-gas.gjf
 Output=simple-grid-170-210-b3lyp_d3bj-631gd-gas-singlepoint-DFT-juldz2-gas.out
 Initial command:
 /n/sw/g16_nehalem/g16/l1.exe "/scratch/Gau-27629.inp" -scrdir="/scratch/"
 Entering Link 1 = /n/sw/g16_nehalem/g16/l1.exe PID=     27639.
  
 Copyright (c) 1988,1990,1992,1993,1995,1998,2003,2009,2016,
            Gaussian, Inc.  All Rights Reserved.
  
 This is part of the Gaussian(R) 16 program.  It is based on
 the Gaussian(R) 09 system (copyright 2009, Gaussian, Inc.),
 the Gaussian(R) 03 system (copyright 2003, Gaussian, Inc.),
 the Gaussian(R) 98 system (copyright 1998, Gaussian, Inc.),
 the Gaussian(R) 94 system (copyright 1995, Gaussian, Inc.),
 the Gaussian 92(TM) system (copyright 1992, Gaussian, Inc.),
 the Gaussian 90(TM) system (copyright 1990, Gaussian, Inc.),
 the Gaussian 88(TM) system (copyright 1988, Gaussian, Inc.),
 the Gaussian 86(TM) system (copyright 1986, Carnegie Mellon
 University), and the Gaussian 82(TM) system (copyright 1983,
 Carnegie Mellon University). Gaussian is a federally registered
 trademark of Gaussian, Inc.
  
 This software contains proprietary and confidential information,
 including trade secrets, belonging to Gaussian, Inc.
  
 This software is provided under written license and may be
 used, copied, transmitted, or stored only in accord with that
 written license.
  
 The following legend is applicable only to US Government
 contracts under FAR:
  
                    RESTRICTED RIGHTS LEGEND
  
 Use, reproduction and disclosure by the US Government is
 subject to restrictions as set forth in subparagraphs (a)
 and (c) of the Commercial Computer Software - Restricted
 Rights clause in FAR 52.227-19.
  
 Gaussian, Inc.
 340 Quinnipiac St., Bldg. 40, Wallingford CT 06492
  
  
 ---------------------------------------------------------------
 Warning -- This program may not be used in any manner that
 competes with the business of Gaussian, Inc. or will provide
 assistance to any competitor of Gaussian, Inc.  The licensee
 of this program is prohibited from giving any competitor of
 Gaussian, Inc. access to this program.  By using this program,
 the user acknowledges that Gaussian, Inc. is engaged in the
 business of creating and licensing software in the field of
 computational chemistry and represents and warrants to the
 licensee that it is not a competitor of Gaussian, Inc. and that
 it will not use this program in any manner prohibited above.
 ---------------------------------------------------------------
  

 Cite this work as:
 Gaussian 16, Revision A.03,
 M. J. Frisch, G. W. Trucks, H. B. Schlegel, G. E. Scuseria, 
 M. A. Robb, J. R. Cheeseman, G. Scalmani, V. Barone, 
 G. A. Petersson, H. Nakatsuji, X. Li, M. Caricato, A. V. Marenich, 
 J. Bloino, B. G. Janesko, R. Gomperts, B. Mennucci, H. P. Hratchian, 
 J. V. Ortiz, A. F. Izmaylov, J. L. Sonnenberg, D. Williams-Young, 
 F. Ding, F. Lipparini, F. Egidi, J. Goings, B. Peng, A. Petrone, 
 T. Henderson, D. Ranasinghe, V. G. Zakrzewski, J. Gao, N. Rega, 
 G. Zheng, W. Liang, M. Hada, M. Ehara, K. Toyota, R. Fukuda, 
 J. Hasegawa, M. Ishida, T. Nakajima, Y. Honda, O. Kitao, H. Nakai, 
 T. Vreven, K. Throssell, J. A. Montgomery, Jr., J. E. Peralta, 
 F. Ogliaro, M. J. Bearpark, J. J. Heyd, E. N. Brothers, K. N. Kudin, 
 V. N. Staroverov, T. A. Keith, R. Kobayashi, J. Normand, 
 K. Raghavachari, A. P. Rendell, J. C. Burant, S. S. Iyengar, 
 J. Tomasi, M. Cossi, J. M. Millam, M. Klene, C. Adamo, R. Cammi, 
 J. W. Ochterski, R. L. Martin, K. Morokuma, O. Farkas, 
 J. B. Foresman, and D. J. Fox, Gaussian, Inc., Wallingford CT, 2016.
 
 ******************************************
 Gaussian 16:  ES64L-G16RevA.03 25-Dec-2016
                11-Feb-2020 
 ******************************************
 %chk=checkpoint.chk
 %mem=3GB
 %nprocshared=4
 Will use up to    4 processors via shared memory.
 --------------------------------
 #t pop=none jul-cc-pvdz upbe1pbe
 --------------------------------
 ------------------------
 theory_abbreviation pbe0
 ------------------------
 Symbolic Z-matrix:
 Charge =  0 Multiplicity = 6
 O                    -0.38924  -0.21182  -0.55362 
 C                    -1.43573  -1.19373  -0.36048 
 C                    -2.76262  -0.13957  -0.22584 
 C                    -1.96597   1.14419  -0.2618 
 C                    -1.86511   1.90464  -1.52878 
 Fe                    1.3774    0.03484   0.02733 
 Cl                    1.81832   2.02739  -0.83663 
 C                    -1.57662   1.8324    0.99028 
 Cl                    2.52394  -1.67665  -0.72232 
 Cl                    1.34345   0.14849   2.24058 
 H                    -3.33787  -0.22753  -1.15175 
 H                    -2.45141   2.42272   1.30987 
 H                    -1.32905   1.14057   1.79579 
 H                    -0.74286   2.5184    0.82618 
 H                    -2.65042   2.67866  -1.5048 
 H                    -0.89742   2.40964  -1.60098 
 H                    -2.03062   1.27328  -2.40277 
 C                    -3.67479  -0.34497   0.97697 
 H                    -4.47015   0.40899   1.00282 
 H                    -4.15511  -1.32558   0.9088 
 H                    -3.13579  -0.30354   1.92615 
 C                    -1.19743  -2.02065   0.88807 
 H                    -2.01753  -2.72625   1.05471 
 H                    -0.27483  -2.59731   0.75516 
 H                    -1.06963  -1.39903   1.77622 
 C                    -1.5422   -2.04654  -1.61064 
 H                    -0.6057   -2.59855  -1.74666 
 H                    -2.36592  -2.76465  -1.52938 
 H                    -1.69852  -1.42255  -2.49552 
 
                    Distance matrix (angstroms):
                    1          2          3          4          5
     1  O    0.000000
     2  C    1.447960   0.000000
     3  C    2.396995   1.699999   0.000000
     4  C    2.100000   2.399321   1.511285   0.000000
     5  C    2.758356   3.339036   2.584949   1.481111   0.000000
     6  Fe   1.875993   3.094100   4.151415   3.534456   4.053578
     7  Cl   3.157133   4.603388   5.104291   3.928273   3.749904
     8  C    2.823526   3.316894   2.602725   1.480851   2.536553
     9  Cl   3.265089   4.005389   5.527821   5.322455   5.721868
    10  Cl   3.307500   4.036193   4.798541   4.266802   5.252332
    11  H    3.008730   2.275476   1.093602   2.134421   2.618653
    12  H    3.829608   4.110997   3.003428   2.083372   2.944505
    13  H    2.869133   3.179593   2.789425   2.153923   3.453108
    14  H    3.079442   3.958292   3.500139   2.137326   2.679926
    15  H    3.791117   4.216671   3.096891   2.090002   1.102907
    16  H    2.868319   3.848746   3.445057   2.129917   1.093917
    17  H    2.884271   3.257451   2.696477   2.145828   1.090805
    18  C    3.627020   2.742725   1.523487   2.583066   3.822891
    19  H    4.411544   3.692556   2.173981   2.900119   3.928384
    20  H    4.190570   3.003907   2.152452   3.501768   4.649751
    21  H    3.701512   2.985177   2.190251   2.872546   4.292693
    22  C    2.450207   1.516399   2.688697   3.453854   4.657777
    23  H    3.400062   2.165615   2.980924   4.088546   5.304982
    24  H    2.723335   2.135973   3.632071   4.230012   5.292723
    25  H    2.701950   2.177528   2.908724   3.380077   4.740256
    26  C    2.410979   1.517083   2.653985   3.489947   3.965200
    27  H    2.677069   2.141029   3.607186   4.250090   4.681058
    28  H    3.372886   2.167811   2.957639   4.128652   4.696073
    29  H    2.636492   2.163293   2.815987   3.413092   3.468795
                    6          7          8          9         10
     6  Fe   0.000000
     7  Cl   2.216106   0.000000
     8  C    3.589528   3.860213   0.000000
     9  Cl   2.192197   3.772391   5.662243   0.000000
    10  Cl   2.216421   3.636620   3.595222   3.674701   0.000000
    11  H    4.867532   5.636517   3.454503   6.053529   5.793451
    12  H    4.691120   4.795238   1.102663   6.759340   4.520980
    13  H    3.416862   4.197859   1.090307   5.396585   2.885187
    14  H    3.361799   3.092837   1.092104   5.537890   3.459719
    15  H    5.055747   4.565114   2.845105   6.808455   6.031638
    16  H    3.669588   2.847031   2.740280   5.401437   4.989176
    17  H    4.365057   4.223245   3.468642   5.680673   5.848946
    18  C    5.154674   6.252320   3.023804   6.563932   5.198356
    19  H    5.940148   6.748898   3.224704   7.499552   5.949607
    20  H    5.765095   7.069000   4.077744   6.884291   5.846418
    21  H    4.908042   6.132650   2.805186   6.397840   4.512958
    22  C    3.405238   5.334418   3.873011   4.069430   3.604235
    23  H    4.494958   6.394377   4.580372   4.988428   4.578925
    24  H    3.191833   5.320054   4.623012   3.296006   3.516349
    25  H    3.332047   5.187257   3.364053   4.385602   2.904034
    26  C    3.941971   5.337521   4.670343   4.178446   5.289327
    27  H    3.743588   5.301262   5.297811   3.419620   5.219527
    28  H    4.926760   6.399338   5.301368   5.074039   6.038078
    29  H    4.236751   5.198292   4.770778   4.586721   5.844004
                   11         12         13         14         15
    11  H    0.000000
    12  H    3.724142   0.000000
    13  H    3.820354   1.771920   0.000000
    14  H    4.264559   1.778274   1.783863   0.000000
    15  H    3.007188   2.833284   3.873714   3.016285   0.000000
    16  H    3.621088   3.299713   3.651698   2.434509   1.776131
    17  H    2.350831   3.909216   4.258842   3.692528   1.779210
    18  C    2.158421   3.044267   2.894787   4.100955   4.043619
    19  H    2.515829   2.867869   3.321223   4.286431   3.840696
    20  H    2.473752   4.136802   3.854249   5.140661   4.911561
    21  H    3.085462   2.877608   2.316628   3.859970   4.571703
    22  C    3.457985   4.636151   3.291598   4.562174   5.469969
    23  H    3.585444   5.173511   3.996939   5.402161   6.013713
    24  H    4.316756   5.499623   4.020703   5.137563   6.211821
    25  H    3.884626   4.090540   2.552892   4.044204   5.467314
    26  C    2.596888   5.415747   4.669786   5.236001   4.854576
    27  H    3.666120   6.161344   5.201273   5.729003   5.664658
    28  H    2.743039   5.914172   5.232842   6.007796   5.450798
    29  H    2.433363   5.462045   5.012133   5.241954   4.325227
                   16         17         18         19         20
    16  H    0.000000
    17  H    1.793963   0.000000
    18  C    4.684814   4.092030   0.000000
    19  H    4.852498   4.277423   1.096231   0.000000
    20  H    5.555478   4.715296   1.094048   1.765451   0.000000
    21  H    4.981189   4.737857   1.092319   1.772212   1.765943
    22  C    5.090466   4.730100   2.992179   4.077626   3.038326
    23  H    5.889373   5.286837   2.902252   3.980930   2.559772
    24  H    5.568531   5.294978   4.084356   5.167193   4.086253
    25  H    5.093238   5.052591   2.921758   3.928179   3.205924
    26  C    4.502597   3.447793   3.760192   4.629549   3.700631
    27  H    5.018792   4.177557   4.681469   5.615955   4.611970
    28  H    5.379119   4.144899   3.721530   4.572942   3.349153
    29  H    4.015925   2.717798   4.138241   4.824402   4.199240
                   21         22         23         24         25
    21  H    0.000000
    22  C    2.789864   0.000000
    23  H    2.807037   1.094624   0.000000
    24  H    3.849378   1.096078   1.772949   0.000000
    25  H    2.343415   1.091581   1.783419   1.763561   0.000000
    26  C    4.252818   2.522514   2.791423   2.739809   3.480427
    27  H    5.015774   2.761507   3.139630   2.523603   3.750300
    28  H    4.311661   2.786209   2.607752   3.101575   3.804238
    29  H    4.782162   3.472391   3.795465   3.738162   4.317845
                   26         27         28         29
    26  C    0.000000
    27  H    1.095558   0.000000
    28  H    1.095816   1.781350   0.000000
    29  H    1.093991   1.771448   1.783282   0.000000
 Framework group  C1[X(C8H16Cl3FeO)]
 Deg. of freedom    81
                         Standard orientation:                         
 ---------------------------------------------------------------------
 Center     Atomic      Atomic             Coordinates (Angstroms)
 Number     Number       Type             X           Y           Z
 ---------------------------------------------------------------------
      1          8           0       -0.389238   -0.211819   -0.553617
      2          6           0       -1.435730   -1.193725   -0.360476
      3          6           0       -2.762617   -0.139570   -0.225843
      4          6           0       -1.965970    1.144191   -0.261804
      5          6           0       -1.865107    1.904638   -1.528783
      6         26           0        1.377399    0.034838    0.027333
      7         17           0        1.818320    2.027395   -0.836630
      8          6           0       -1.576622    1.832395    0.990276
      9         17           0        2.523941   -1.676651   -0.722315
     10         17           0        1.343450    0.148487    2.240578
     11          1           0       -3.337872   -0.227533   -1.151753
     12          1           0       -2.451406    2.422715    1.309872
     13          1           0       -1.329047    1.140571    1.795792
     14          1           0       -0.742855    2.518396    0.826181
     15          1           0       -2.650423    2.678659   -1.504801
     16          1           0       -0.897420    2.409637   -1.600981
     17          1           0       -2.030617    1.273283   -2.402770
     18          6           0       -3.674788   -0.344969    0.976974
     19          1           0       -4.470147    0.408992    1.002820
     20          1           0       -4.155106   -1.325576    0.908801
     21          1           0       -3.135791   -0.303537    1.926146
     22          6           0       -1.197428   -2.020653    0.888070
     23          1           0       -2.017526   -2.726252    1.054714
     24          1           0       -0.274830   -2.597311    0.755158
     25          1           0       -1.069633   -1.399031    1.776216
     26          6           0       -1.542196   -2.046544   -1.610638
     27          1           0       -0.605695   -2.598551   -1.746661
     28          1           0       -2.365924   -2.764654   -1.529375
     29          1           0       -1.698521   -1.422554   -2.495520
 ---------------------------------------------------------------------
 Rotational constants (GHZ):           0.5728380           0.3618288           0.3233087
   427 basis functions,  1056 primitive gaussians,   461 cartesian basis functions
    77 alpha electrons       72 beta electrons
       nuclear repulsion energy      1659.4725971550 Hartrees.
 NAtoms=   29 NActive=   29 NUniq=   29 SFac= 1.00D+00 NAtFMM=   60 NAOKFM=F Big=F
 ExpMin= 1.40D-02 ExpMax= 4.32D+06 ExpMxC= 4.91D+03 IAcc=3 IRadAn=         5 AccDes= 0.00D+00
 Harris functional with IExCor= 1009 and IRadAn=       5 diagonalized for initial guess.
 HarFok:  IExCor= 1009 AccDes= 0.00D+00 IRadAn=         5 IDoV= 1 UseB2=F ITyADJ=14
 ICtDFT=  3500011 ScaDFX=  1.000000  1.000000  1.000000  1.000000
 FoFCou: FMM=F IPFlag=           0 FMFlag=      100000 FMFlg1=           0
         NFxFlg=           0 DoJE=T BraDBF=F KetDBF=T FulRan=T
         wScrn=  0.000000 ICntrl=       500 IOpCl=  0 I1Cent=   200000004 NGrid=           0
         NMat0=    1 NMatS0=      1 NMatT0=    0 NMatD0=    1 NMtDS0=    0 NMtDT0=    0
 Petite list used in FoFCou.
 Initial guess <Sx>= 0.0000 <Sy>= 0.0000 <Sz>= 2.5000 <S**2>= 8.7500 S= 2.5000
 EnCoef did   100 forward-backward iterations
 SCF Done:  E(UPBE1PBE) =  -3033.11580991     A.U. after   20 cycles
            NFock= 20  Conv=0.64D-08     -V/T= 2.0022
 <Sx>= 0.0000 <Sy>= 0.0000 <Sz>= 2.5000 <S**2>= 8.7627 S= 2.5021
 <L.S>= 0.000000000000E+00
 Annihilation of the first spin contaminant:
 S**2 before annihilation     8.7627,   after     8.7501
 1\1\GINC-HOLY7C04309\SP\UPBE1PBE\Jul-CC-pVDZ\C8H16Cl3Fe1O1(6)\EKWAN\11
 -Feb-2020\0\\#t pop=none jul-cc-pvdz upbe1pbe\\theory_abbreviation pbe
 0\\0,6\O,0,-0.389238,-0.211819,-0.553617\C,0,-1.43573,-1.193725,-0.360
 476\C,0,-2.762617,-0.13957,-0.225843\C,0,-1.96597,1.144191,-0.261804\C
 ,0,-1.865107,1.904638,-1.528783\Fe,0,1.377399,0.034838,0.027333\Cl,0,1
 .81832,2.027395,-0.83663\C,0,-1.576622,1.832395,0.990276\Cl,0,2.523941
 ,-1.676652,-0.722315\Cl,0,1.34345,0.148487,2.240578\H,0,-3.337872,-0.2
 27533,-1.151753\H,0,-2.451406,2.422715,1.309872\H,0,-1.329047,1.140571
 ,1.795792\H,0,-0.742855,2.518396,0.826181\H,0,-2.650423,2.678659,-1.50
 4801\H,0,-0.89742,2.409637,-1.600981\H,0,-2.030617,1.273283,-2.40277\C
 ,0,-3.674788,-0.344969,0.976974\H,0,-4.470147,0.408993,1.00282\H,0,-4.
 155106,-1.325575,0.908801\H,0,-3.135791,-0.303537,1.926146\C,0,-1.1974
 28,-2.020653,0.88807\H,0,-2.017526,-2.726252,1.054714\H,0,-0.27483,-2.
 597311,0.755158\H,0,-1.069633,-1.399031,1.776216\C,0,-1.542196,-2.0465
 44,-1.610638\H,0,-0.605695,-2.598551,-1.746661\H,0,-2.365924,-2.764654
 ,-1.529375\H,0,-1.698521,-1.422554,-2.49552\\Version=ES64L-G16RevA.03\
 HF=-3033.1158099\S2=8.762728\S2-1=0.\S2A=8.750051\RMSD=6.381e-09\PG=C0
 1 [X(C8H16Cl3Fe1O1)]\\@


 THE HURRIEDER I GO, THE BEHINDER I GET.
 Job cpu time:       0 days  1 hours 26 minutes 10.6 seconds.
 Elapsed time:       0 days  0 hours 21 minutes 37.9 seconds.
 File lengths (MBytes):  RWF=    173 Int=      0 D2E=      0 Chk=     13 Scr=      1
 Normal termination of Gaussian 16 at Tue Feb 11 13:56:22 2020.
 Initial command:
 /n/sw/g16_nehalem/g16/l1.exe "/scratch/Gau-27629.inp" -scrdir="/scratch/"
 Entering Link 1 = /n/sw/g16_nehalem/g16/l1.exe PID=     29903.
  
 Copyright (c) 1988,1990,1992,1993,1995,1998,2003,2009,2016,
            Gaussian, Inc.  All Rights Reserved.
  
 This is part of the Gaussian(R) 16 program.  It is based on
 the Gaussian(R) 09 system (copyright 2009, Gaussian, Inc.),
 the Gaussian(R) 03 system (copyright 2003, Gaussian, Inc.),
 the Gaussian(R) 98 system (copyright 1998, Gaussian, Inc.),
 the Gaussian(R) 94 system (copyright 1995, Gaussian, Inc.),
 the Gaussian 92(TM) system (copyright 1992, Gaussian, Inc.),
 the Gaussian 90(TM) system (copyright 1990, Gaussian, Inc.),
 the Gaussian 88(TM) system (copyright 1988, Gaussian, Inc.),
 the Gaussian 86(TM) system (copyright 1986, Carnegie Mellon
 University), and the Gaussian 82(TM) system (copyright 1983,
 Carnegie Mellon University). Gaussian is a federally registered
 trademark of Gaussian, Inc.
  
 This software contains proprietary and confidential information,
 including trade secrets, belonging to Gaussian, Inc.
  
 This software is provided under written license and may be
 used, copied, transmitted, or stored only in accord with that
 written license.
  
 The following legend is applicable only to US Government
 contracts under FAR:
  
                    RESTRICTED RIGHTS LEGEND
  
 Use, reproduction and disclosure by the US Government is
 subject to restrictions as set forth in subparagraphs (a)
 and (c) of the Commercial Computer Software - Restricted
 Rights clause in FAR 52.227-19.
  
 Gaussian, Inc.
 340 Quinnipiac St., Bldg. 40, Wallingford CT 06492
  
  
 ---------------------------------------------------------------
 Warning -- This program may not be used in any manner that
 competes with the business of Gaussian, Inc. or will provide
 assistance to any competitor of Gaussian, Inc.  The licensee
 of this program is prohibited from giving any competitor of
 Gaussian, Inc. access to this program.  By using this program,
 the user acknowledges that Gaussian, Inc. is engaged in the
 business of creating and licensing software in the field of
 computational chemistry and represents and warrants to the
 licensee that it is not a competitor of Gaussian, Inc. and that
 it will not use this program in any manner prohibited above.
 ---------------------------------------------------------------
  

 Cite this work as:
 Gaussian 16, Revision A.03,
 M. J. Frisch, G. W. Trucks, H. B. Schlegel, G. E. Scuseria, 
 M. A. Robb, J. R. Cheeseman, G. Scalmani, V. Barone, 
 G. A. Petersson, H. Nakatsuji, X. Li, M. Caricato, A. V. Marenich, 
 J. Bloino, B. G. Janesko, R. Gomperts, B. Mennucci, H. P. Hratchian, 
 J. V. Ortiz, A. F. Izmaylov, J. L. Sonnenberg, D. Williams-Young, 
 F. Ding, F. Lipparini, F. Egidi, J. Goings, B. Peng, A. Petrone, 
 T. Henderson, D. Ranasinghe, V. G. Zakrzewski, J. Gao, N. Rega, 
 G. Zheng, W. Liang, M. Hada, M. Ehara, K. Toyota, R. Fukuda, 
 J. Hasegawa, M. Ishida, T. Nakajima, Y. Honda, O. Kitao, H. Nakai, 
 T. Vreven, K. Throssell, J. A. Montgomery, Jr., J. E. Peralta, 
 F. Ogliaro, M. J. Bearpark, J. J. Heyd, E. N. Brothers, K. N. Kudin, 
 V. N. Staroverov, T. A. Keith, R. Kobayashi, J. Normand, 
 K. Raghavachari, A. P. Rendell, J. C. Burant, S. S. Iyengar, 
 J. Tomasi, M. Cossi, J. M. Millam, M. Klene, C. Adamo, R. Cammi, 
 J. W. Ochterski, R. L. Martin, K. Morokuma, O. Farkas, 
 J. B. Foresman, and D. J. Fox, Gaussian, Inc., Wallingford CT, 2016.
 
 ******************************************
 Gaussian 16:  ES64L-G16RevA.03 25-Dec-2016
                11-Feb-2020 
 ******************************************
 %chk=checkpoint.chk
 %mem=3GB
 %nprocshared=4
 Will use up to    4 processors via shared memory.
 ---------------------------------------------------------------------
 #t pop=none jul-cc-pvdz guess=read upbe1pbe empiricaldispersion=gd3bj
 ---------------------------------------------------------------------
 -----------------------------
 theory_abbreviation pbe0_d3bj
 -----------------------------
 Symbolic Z-matrix:
 Charge =  0 Multiplicity = 6
 O                    -0.38924  -0.21182  -0.55362 
 C                    -1.43573  -1.19373  -0.36048 
 C                    -2.76262  -0.13957  -0.22584 
 C                    -1.96597   1.14419  -0.2618 
 C                    -1.86511   1.90464  -1.52878 
 Fe                    1.3774    0.03484   0.02733 
 Cl                    1.81832   2.02739  -0.83663 
 C                    -1.57662   1.8324    0.99028 
 Cl                    2.52394  -1.67665  -0.72232 
 Cl                    1.34345   0.14849   2.24058 
 H                    -3.33787  -0.22753  -1.15175 
 H                    -2.45141   2.42272   1.30987 
 H                    -1.32905   1.14057   1.79579 
 H                    -0.74286   2.5184    0.82618 
 H                    -2.65042   2.67866  -1.5048 
 H                    -0.89742   2.40964  -1.60098 
 H                    -2.03062   1.27328  -2.40277 
 C                    -3.67479  -0.34497   0.97697 
 H                    -4.47015   0.40899   1.00282 
 H                    -4.15511  -1.32558   0.9088 
 H                    -3.13579  -0.30354   1.92615 
 C                    -1.19743  -2.02065   0.88807 
 H                    -2.01753  -2.72625   1.05471 
 H                    -0.27483  -2.59731   0.75516 
 H                    -1.06963  -1.39903   1.77622 
 C                    -1.5422   -2.04654  -1.61064 
 H                    -0.6057   -2.59855  -1.74666 
 H                    -2.36592  -2.76465  -1.52938 
 H                    -1.69852  -1.42255  -2.49552 
 
                    Distance matrix (angstroms):
                    1          2          3          4          5
     1  O    0.000000
     2  C    1.447960   0.000000
     3  C    2.396995   1.699999   0.000000
     4  C    2.100000   2.399321   1.511285   0.000000
     5  C    2.758356   3.339036   2.584949   1.481111   0.000000
     6  Fe   1.875993   3.094100   4.151415   3.534456   4.053578
     7  Cl   3.157133   4.603388   5.104291   3.928273   3.749904
     8  C    2.823526   3.316894   2.602725   1.480851   2.536553
     9  Cl   3.265089   4.005389   5.527821   5.322455   5.721868
    10  Cl   3.307500   4.036193   4.798541   4.266802   5.252332
    11  H    3.008730   2.275476   1.093602   2.134421   2.618653
    12  H    3.829608   4.110997   3.003428   2.083372   2.944505
    13  H    2.869133   3.179593   2.789425   2.153923   3.453108
    14  H    3.079442   3.958292   3.500139   2.137326   2.679926
    15  H    3.791117   4.216671   3.096891   2.090002   1.102907
    16  H    2.868319   3.848746   3.445057   2.129917   1.093917
    17  H    2.884271   3.257451   2.696477   2.145828   1.090805
    18  C    3.627020   2.742725   1.523487   2.583066   3.822891
    19  H    4.411544   3.692556   2.173981   2.900119   3.928384
    20  H    4.190570   3.003907   2.152452   3.501768   4.649751
    21  H    3.701512   2.985177   2.190251   2.872546   4.292693
    22  C    2.450207   1.516399   2.688697   3.453854   4.657777
    23  H    3.400062   2.165615   2.980924   4.088546   5.304982
    24  H    2.723335   2.135973   3.632071   4.230012   5.292723
    25  H    2.701950   2.177528   2.908724   3.380077   4.740256
    26  C    2.410979   1.517083   2.653985   3.489947   3.965200
    27  H    2.677069   2.141029   3.607186   4.250090   4.681058
    28  H    3.372886   2.167811   2.957639   4.128652   4.696073
    29  H    2.636492   2.163293   2.815987   3.413092   3.468795
                    6          7          8          9         10
     6  Fe   0.000000
     7  Cl   2.216106   0.000000
     8  C    3.589528   3.860213   0.000000
     9  Cl   2.192197   3.772391   5.662243   0.000000
    10  Cl   2.216421   3.636620   3.595222   3.674701   0.000000
    11  H    4.867532   5.636517   3.454503   6.053529   5.793451
    12  H    4.691120   4.795238   1.102663   6.759340   4.520980
    13  H    3.416862   4.197859   1.090307   5.396585   2.885187
    14  H    3.361799   3.092837   1.092104   5.537890   3.459719
    15  H    5.055747   4.565114   2.845105   6.808455   6.031638
    16  H    3.669588   2.847031   2.740280   5.401437   4.989176
    17  H    4.365057   4.223245   3.468642   5.680673   5.848946
    18  C    5.154674   6.252320   3.023804   6.563932   5.198356
    19  H    5.940148   6.748898   3.224704   7.499552   5.949607
    20  H    5.765095   7.069000   4.077744   6.884291   5.846418
    21  H    4.908042   6.132650   2.805186   6.397840   4.512958
    22  C    3.405238   5.334418   3.873011   4.069430   3.604235
    23  H    4.494958   6.394377   4.580372   4.988428   4.578925
    24  H    3.191833   5.320054   4.623012   3.296006   3.516349
    25  H    3.332047   5.187257   3.364053   4.385602   2.904034
    26  C    3.941971   5.337521   4.670343   4.178446   5.289327
    27  H    3.743588   5.301262   5.297811   3.419620   5.219527
    28  H    4.926760   6.399338   5.301368   5.074039   6.038078
    29  H    4.236751   5.198292   4.770778   4.586721   5.844004
                   11         12         13         14         15
    11  H    0.000000
    12  H    3.724142   0.000000
    13  H    3.820354   1.771920   0.000000
    14  H    4.264559   1.778274   1.783863   0.000000
    15  H    3.007188   2.833284   3.873714   3.016285   0.000000
    16  H    3.621088   3.299713   3.651698   2.434509   1.776131
    17  H    2.350831   3.909216   4.258842   3.692528   1.779210
    18  C    2.158421   3.044267   2.894787   4.100955   4.043619
    19  H    2.515829   2.867869   3.321223   4.286431   3.840696
    20  H    2.473752   4.136802   3.854249   5.140661   4.911561
    21  H    3.085462   2.877608   2.316628   3.859970   4.571703
    22  C    3.457985   4.636151   3.291598   4.562174   5.469969
    23  H    3.585444   5.173511   3.996939   5.402161   6.013713
    24  H    4.316756   5.499623   4.020703   5.137563   6.211821
    25  H    3.884626   4.090540   2.552892   4.044204   5.467314
    26  C    2.596888   5.415747   4.669786   5.236001   4.854576
    27  H    3.666120   6.161344   5.201273   5.729003   5.664658
    28  H    2.743039   5.914172   5.232842   6.007796   5.450798
    29  H    2.433363   5.462045   5.012133   5.241954   4.325227
                   16         17         18         19         20
    16  H    0.000000
    17  H    1.793963   0.000000
    18  C    4.684814   4.092030   0.000000
    19  H    4.852498   4.277423   1.096231   0.000000
    20  H    5.555478   4.715296   1.094048   1.765451   0.000000
    21  H    4.981189   4.737857   1.092319   1.772212   1.765943
    22  C    5.090466   4.730100   2.992179   4.077626   3.038326
    23  H    5.889373   5.286837   2.902252   3.980930   2.559772
    24  H    5.568531   5.294978   4.084356   5.167193   4.086253
    25  H    5.093238   5.052591   2.921758   3.928179   3.205924
    26  C    4.502597   3.447793   3.760192   4.629549   3.700631
    27  H    5.018792   4.177557   4.681469   5.615955   4.611970
    28  H    5.379119   4.144899   3.721530   4.572942   3.349153
    29  H    4.015925   2.717798   4.138241   4.824402   4.199240
                   21         22         23         24         25
    21  H    0.000000
    22  C    2.789864   0.000000
    23  H    2.807037   1.094624   0.000000
    24  H    3.849378   1.096078   1.772949   0.000000
    25  H    2.343415   1.091581   1.783419   1.763561   0.000000
    26  C    4.252818   2.522514   2.791423   2.739809   3.480427
    27  H    5.015774   2.761507   3.139630   2.523603   3.750300
    28  H    4.311661   2.786209   2.607752   3.101575   3.804238
    29  H    4.782162   3.472391   3.795465   3.738162   4.317845
                   26         27         28         29
    26  C    0.000000
    27  H    1.095558   0.000000
    28  H    1.095816   1.781350   0.000000
    29  H    1.093991   1.771448   1.783282   0.000000
 Framework group  C1[X(C8H16Cl3FeO)]
 Deg. of freedom    81
                         Standard orientation:                         
 ---------------------------------------------------------------------
 Center     Atomic      Atomic             Coordinates (Angstroms)
 Number     Number       Type             X           Y           Z
 ---------------------------------------------------------------------
      1          8           0       -0.389238   -0.211819   -0.553617
      2          6           0       -1.435730   -1.193725   -0.360476
      3          6           0       -2.762617   -0.139570   -0.225843
      4          6           0       -1.965970    1.144191   -0.261804
      5          6           0       -1.865107    1.904638   -1.528783
      6         26           0        1.377399    0.034838    0.027333
      7         17           0        1.818320    2.027395   -0.836630
      8          6           0       -1.576622    1.832395    0.990276
      9         17           0        2.523941   -1.676651   -0.722315
     10         17           0        1.343450    0.148487    2.240578
     11          1           0       -3.337872   -0.227533   -1.151753
     12          1           0       -2.451406    2.422715    1.309872
     13          1           0       -1.329047    1.140571    1.795792
     14          1           0       -0.742855    2.518396    0.826181
     15          1           0       -2.650423    2.678659   -1.504801
     16          1           0       -0.897420    2.409637   -1.600981
     17          1           0       -2.030617    1.273283   -2.402770
     18          6           0       -3.674788   -0.344969    0.976974
     19          1           0       -4.470147    0.408992    1.002820
     20          1           0       -4.155106   -1.325576    0.908801
     21          1           0       -3.135791   -0.303537    1.926146
     22          6           0       -1.197428   -2.020653    0.888070
     23          1           0       -2.017526   -2.726252    1.054714
     24          1           0       -0.274830   -2.597311    0.755158
     25          1           0       -1.069633   -1.399031    1.776216
     26          6           0       -1.542196   -2.046544   -1.610638
     27          1           0       -0.605695   -2.598551   -1.746661
     28          1           0       -2.365924   -2.764654   -1.529375
     29          1           0       -1.698521   -1.422554   -2.495520
 ---------------------------------------------------------------------
 Rotational constants (GHZ):           0.5728380           0.3618288           0.3233087
   427 basis functions,  1056 primitive gaussians,   461 cartesian basis functions
    77 alpha electrons       72 beta electrons
       nuclear repulsion energy      1659.4725971550 Hartrees.
 NAtoms=   29 NActive=   29 NUniq=   29 SFac= 1.00D+00 NAtFMM=   60 NAOKFM=F Big=F
 Nuclear repulsion after empirical dispersion term =     1659.4356526583 Hartrees.
 Initial guess from the checkpoint file:  "checkpoint.chk"
 B after Tr=     0.000000    0.000000    0.000000
         Rot=    1.000000    0.000000    0.000000    0.000000 Ang=   0.00 deg.
 Initial guess <Sx>= 0.0000 <Sy>= 0.0000 <Sz>= 2.5000 <S**2>= 8.7627 S= 2.5021
 SCF Done:  E(UPBE1PBE) =  -3033.15275440     A.U. after    1 cycles
            NFock=  1  Conv=0.30D-08     -V/T= 2.0022
 <Sx>= 0.0000 <Sy>= 0.0000 <Sz>= 2.5000 <S**2>= 8.7627 S= 2.5021
 <L.S>= 0.000000000000E+00
 Annihilation of the first spin contaminant:
 S**2 before annihilation     8.7627,   after     8.7501
 1\1\GINC-HOLY7C04309\SP\UPBE1PBE\Jul-CC-pVDZ\C8H16Cl3Fe1O1(6)\EKWAN\11
 -Feb-2020\0\\#t pop=none jul-cc-pvdz guess=read upbe1pbe empiricaldisp
 ersion=gd3bj\\theory_abbreviation pbe0_d3bj\\0,6\O,0,-0.389238,-0.2118
 19,-0.553617\C,0,-1.43573,-1.193725,-0.360476\C,0,-2.762617,-0.13957,-
 0.225843\C,0,-1.96597,1.144191,-0.261804\C,0,-1.865107,1.904638,-1.528
 783\Fe,0,1.377399,0.034838,0.027333\Cl,0,1.81832,2.027395,-0.83663\C,0
 ,-1.576622,1.832395,0.990276\Cl,0,2.523941,-1.676652,-0.722315\Cl,0,1.
 34345,0.148487,2.240578\H,0,-3.337872,-0.227533,-1.151753\H,0,-2.45140
 6,2.422715,1.309872\H,0,-1.329047,1.140571,1.795792\H,0,-0.742855,2.51
 8396,0.826181\H,0,-2.650423,2.678659,-1.504801\H,0,-0.89742,2.409637,-
 1.600981\H,0,-2.030617,1.273283,-2.40277\C,0,-3.674788,-0.344969,0.976
 974\H,0,-4.470147,0.408993,1.00282\H,0,-4.155106,-1.325575,0.908801\H,
 0,-3.135791,-0.303537,1.926146\C,0,-1.197428,-2.020653,0.88807\H,0,-2.
 017526,-2.726252,1.054714\H,0,-0.27483,-2.597311,0.755158\H,0,-1.06963
 3,-1.399031,1.776216\C,0,-1.542196,-2.046544,-1.610638\H,0,-0.605695,-
 2.598551,-1.746661\H,0,-2.365924,-2.764654,-1.529375\H,0,-1.698521,-1.
 422554,-2.49552\\Version=ES64L-G16RevA.03\HF=-3033.1527544\S2=8.762728
 \S2-1=0.\S2A=8.750051\RMSD=2.982e-09\PG=C01 [X(C8H16Cl3Fe1O1)]\\@


 HOW IS IT THAT THE SKY FEEDS THE STARS?

                           -- LUCRETIUS
 Job cpu time:       0 days  0 hours  4 minutes 36.9 seconds.
 Elapsed time:       0 days  0 hours  1 minutes  9.7 seconds.
 File lengths (MBytes):  RWF=    170 Int=      0 D2E=      0 Chk=     13 Scr=      1
 Normal termination of Gaussian 16 at Tue Feb 11 13:57:32 2020.
 Initial command:
 /n/sw/g16_nehalem/g16/l1.exe "/scratch/Gau-27629.inp" -scrdir="/scratch/"
 Entering Link 1 = /n/sw/g16_nehalem/g16/l1.exe PID=     30102.
  
 Copyright (c) 1988,1990,1992,1993,1995,1998,2003,2009,2016,
            Gaussian, Inc.  All Rights Reserved.
  
 This is part of the Gaussian(R) 16 program.  It is based on
 the Gaussian(R) 09 system (copyright 2009, Gaussian, Inc.),
 the Gaussian(R) 03 system (copyright 2003, Gaussian, Inc.),
 the Gaussian(R) 98 system (copyright 1998, Gaussian, Inc.),
 the Gaussian(R) 94 system (copyright 1995, Gaussian, Inc.),
 the Gaussian 92(TM) system (copyright 1992, Gaussian, Inc.),
 the Gaussian 90(TM) system (copyright 1990, Gaussian, Inc.),
 the Gaussian 88(TM) system (copyright 1988, Gaussian, Inc.),
 the Gaussian 86(TM) system (copyright 1986, Carnegie Mellon
 University), and the Gaussian 82(TM) system (copyright 1983,
 Carnegie Mellon University). Gaussian is a federally registered
 trademark of Gaussian, Inc.
  
 This software contains proprietary and confidential information,
 including trade secrets, belonging to Gaussian, Inc.
  
 This software is provided under written license and may be
 used, copied, transmitted, or stored only in accord with that
 written license.
  
 The following legend is applicable only to US Government
 contracts under FAR:
  
                    RESTRICTED RIGHTS LEGEND
  
 Use, reproduction and disclosure by the US Government is
 subject to restrictions as set forth in subparagraphs (a)
 and (c) of the Commercial Computer Software - Restricted
 Rights clause in FAR 52.227-19.
  
 Gaussian, Inc.
 340 Quinnipiac St., Bldg. 40, Wallingford CT 06492
  
  
 ---------------------------------------------------------------
 Warning -- This program may not be used in any manner that
 competes with the business of Gaussian, Inc. or will provide
 assistance to any competitor of Gaussian, Inc.  The licensee
 of this program is prohibited from giving any competitor of
 Gaussian, Inc. access to this program.  By using this program,
 the user acknowledges that Gaussian, Inc. is engaged in the
 business of creating and licensing software in the field of
 computational chemistry and represents and warrants to the
 licensee that it is not a competitor of Gaussian, Inc. and that
 it will not use this program in any manner prohibited above.
 ---------------------------------------------------------------
  

 Cite this work as:
 Gaussian 16, Revision A.03,
 M. J. Frisch, G. W. Trucks, H. B. Schlegel, G. E. Scuseria, 
 M. A. Robb, J. R. Cheeseman, G. Scalmani, V. Barone, 
 G. A. Petersson, H. Nakatsuji, X. Li, M. Caricato, A. V. Marenich, 
 J. Bloino, B. G. Janesko, R. Gomperts, B. Mennucci, H. P. Hratchian, 
 J. V. Ortiz, A. F. Izmaylov, J. L. Sonnenberg, D. Williams-Young, 
 F. Ding, F. Lipparini, F. Egidi, J. Goings, B. Peng, A. Petrone, 
 T. Henderson, D. Ranasinghe, V. G. Zakrzewski, J. Gao, N. Rega, 
 G. Zheng, W. Liang, M. Hada, M. Ehara, K. Toyota, R. Fukuda, 
 J. Hasegawa, M. Ishida, T. Nakajima, Y. Honda, O. Kitao, H. Nakai, 
 T. Vreven, K. Throssell, J. A. Montgomery, Jr., J. E. Peralta, 
 F. Ogliaro, M. J. Bearpark, J. J. Heyd, E. N. Brothers, K. N. Kudin, 
 V. N. Staroverov, T. A. Keith, R. Kobayashi, J. Normand, 
 K. Raghavachari, A. P. Rendell, J. C. Burant, S. S. Iyengar, 
 J. Tomasi, M. Cossi, J. M. Millam, M. Klene, C. Adamo, R. Cammi, 
 J. W. Ochterski, R. L. Martin, K. Morokuma, O. Farkas, 
 J. B. Foresman, and D. J. Fox, Gaussian, Inc., Wallingford CT, 2016.
 
 ******************************************
 Gaussian 16:  ES64L-G16RevA.03 25-Dec-2016
                11-Feb-2020 
 ******************************************
 %chk=checkpoint.chk
 %mem=3GB
 %nprocshared=4
 Will use up to    4 processors via shared memory.
 -----------------------------------------
 #t pop=none jul-cc-pvdz guess=read ub3lyp
 -----------------------------------------
 -------------------------
 theory_abbreviation b3lyp
 -------------------------
 Symbolic Z-matrix:
 Charge =  0 Multiplicity = 6
 O                    -0.38924  -0.21182  -0.55362 
 C                    -1.43573  -1.19373  -0.36048 
 C                    -2.76262  -0.13957  -0.22584 
 C                    -1.96597   1.14419  -0.2618 
 C                    -1.86511   1.90464  -1.52878 
 Fe                    1.3774    0.03484   0.02733 
 Cl                    1.81832   2.02739  -0.83663 
 C                    -1.57662   1.8324    0.99028 
 Cl                    2.52394  -1.67665  -0.72232 
 Cl                    1.34345   0.14849   2.24058 
 H                    -3.33787  -0.22753  -1.15175 
 H                    -2.45141   2.42272   1.30987 
 H                    -1.32905   1.14057   1.79579 
 H                    -0.74286   2.5184    0.82618 
 H                    -2.65042   2.67866  -1.5048 
 H                    -0.89742   2.40964  -1.60098 
 H                    -2.03062   1.27328  -2.40277 
 C                    -3.67479  -0.34497   0.97697 
 H                    -4.47015   0.40899   1.00282 
 H                    -4.15511  -1.32558   0.9088 
 H                    -3.13579  -0.30354   1.92615 
 C                    -1.19743  -2.02065   0.88807 
 H                    -2.01753  -2.72625   1.05471 
 H                    -0.27483  -2.59731   0.75516 
 H                    -1.06963  -1.39903   1.77622 
 C                    -1.5422   -2.04654  -1.61064 
 H                    -0.6057   -2.59855  -1.74666 
 H                    -2.36592  -2.76465  -1.52938 
 H                    -1.69852  -1.42255  -2.49552 
 
                    Distance matrix (angstroms):
                    1          2          3          4          5
     1  O    0.000000
     2  C    1.447960   0.000000
     3  C    2.396995   1.699999   0.000000
     4  C    2.100000   2.399321   1.511285   0.000000
     5  C    2.758356   3.339036   2.584949   1.481111   0.000000
     6  Fe   1.875993   3.094100   4.151415   3.534456   4.053578
     7  Cl   3.157133   4.603388   5.104291   3.928273   3.749904
     8  C    2.823526   3.316894   2.602725   1.480851   2.536553
     9  Cl   3.265089   4.005389   5.527821   5.322455   5.721868
    10  Cl   3.307500   4.036193   4.798541   4.266802   5.252332
    11  H    3.008730   2.275476   1.093602   2.134421   2.618653
    12  H    3.829608   4.110997   3.003428   2.083372   2.944505
    13  H    2.869133   3.179593   2.789425   2.153923   3.453108
    14  H    3.079442   3.958292   3.500139   2.137326   2.679926
    15  H    3.791117   4.216671   3.096891   2.090002   1.102907
    16  H    2.868319   3.848746   3.445057   2.129917   1.093917
    17  H    2.884271   3.257451   2.696477   2.145828   1.090805
    18  C    3.627020   2.742725   1.523487   2.583066   3.822891
    19  H    4.411544   3.692556   2.173981   2.900119   3.928384
    20  H    4.190570   3.003907   2.152452   3.501768   4.649751
    21  H    3.701512   2.985177   2.190251   2.872546   4.292693
    22  C    2.450207   1.516399   2.688697   3.453854   4.657777
    23  H    3.400062   2.165615   2.980924   4.088546   5.304982
    24  H    2.723335   2.135973   3.632071   4.230012   5.292723
    25  H    2.701950   2.177528   2.908724   3.380077   4.740256
    26  C    2.410979   1.517083   2.653985   3.489947   3.965200
    27  H    2.677069   2.141029   3.607186   4.250090   4.681058
    28  H    3.372886   2.167811   2.957639   4.128652   4.696073
    29  H    2.636492   2.163293   2.815987   3.413092   3.468795
                    6          7          8          9         10
     6  Fe   0.000000
     7  Cl   2.216106   0.000000
     8  C    3.589528   3.860213   0.000000
     9  Cl   2.192197   3.772391   5.662243   0.000000
    10  Cl   2.216421   3.636620   3.595222   3.674701   0.000000
    11  H    4.867532   5.636517   3.454503   6.053529   5.793451
    12  H    4.691120   4.795238   1.102663   6.759340   4.520980
    13  H    3.416862   4.197859   1.090307   5.396585   2.885187
    14  H    3.361799   3.092837   1.092104   5.537890   3.459719
    15  H    5.055747   4.565114   2.845105   6.808455   6.031638
    16  H    3.669588   2.847031   2.740280   5.401437   4.989176
    17  H    4.365057   4.223245   3.468642   5.680673   5.848946
    18  C    5.154674   6.252320   3.023804   6.563932   5.198356
    19  H    5.940148   6.748898   3.224704   7.499552   5.949607
    20  H    5.765095   7.069000   4.077744   6.884291   5.846418
    21  H    4.908042   6.132650   2.805186   6.397840   4.512958
    22  C    3.405238   5.334418   3.873011   4.069430   3.604235
    23  H    4.494958   6.394377   4.580372   4.988428   4.578925
    24  H    3.191833   5.320054   4.623012   3.296006   3.516349
    25  H    3.332047   5.187257   3.364053   4.385602   2.904034
    26  C    3.941971   5.337521   4.670343   4.178446   5.289327
    27  H    3.743588   5.301262   5.297811   3.419620   5.219527
    28  H    4.926760   6.399338   5.301368   5.074039   6.038078
    29  H    4.236751   5.198292   4.770778   4.586721   5.844004
                   11         12         13         14         15
    11  H    0.000000
    12  H    3.724142   0.000000
    13  H    3.820354   1.771920   0.000000
    14  H    4.264559   1.778274   1.783863   0.000000
    15  H    3.007188   2.833284   3.873714   3.016285   0.000000
    16  H    3.621088   3.299713   3.651698   2.434509   1.776131
    17  H    2.350831   3.909216   4.258842   3.692528   1.779210
    18  C    2.158421   3.044267   2.894787   4.100955   4.043619
    19  H    2.515829   2.867869   3.321223   4.286431   3.840696
    20  H    2.473752   4.136802   3.854249   5.140661   4.911561
    21  H    3.085462   2.877608   2.316628   3.859970   4.571703
    22  C    3.457985   4.636151   3.291598   4.562174   5.469969
    23  H    3.585444   5.173511   3.996939   5.402161   6.013713
    24  H    4.316756   5.499623   4.020703   5.137563   6.211821
    25  H    3.884626   4.090540   2.552892   4.044204   5.467314
    26  C    2.596888   5.415747   4.669786   5.236001   4.854576
    27  H    3.666120   6.161344   5.201273   5.729003   5.664658
    28  H    2.743039   5.914172   5.232842   6.007796   5.450798
    29  H    2.433363   5.462045   5.012133   5.241954   4.325227
                   16         17         18         19         20
    16  H    0.000000
    17  H    1.793963   0.000000
    18  C    4.684814   4.092030   0.000000
    19  H    4.852498   4.277423   1.096231   0.000000
    20  H    5.555478   4.715296   1.094048   1.765451   0.000000
    21  H    4.981189   4.737857   1.092319   1.772212   1.765943
    22  C    5.090466   4.730100   2.992179   4.077626   3.038326
    23  H    5.889373   5.286837   2.902252   3.980930   2.559772
    24  H    5.568531   5.294978   4.084356   5.167193   4.086253
    25  H    5.093238   5.052591   2.921758   3.928179   3.205924
    26  C    4.502597   3.447793   3.760192   4.629549   3.700631
    27  H    5.018792   4.177557   4.681469   5.615955   4.611970
    28  H    5.379119   4.144899   3.721530   4.572942   3.349153
    29  H    4.015925   2.717798   4.138241   4.824402   4.199240
                   21         22         23         24         25
    21  H    0.000000
    22  C    2.789864   0.000000
    23  H    2.807037   1.094624   0.000000
    24  H    3.849378   1.096078   1.772949   0.000000
    25  H    2.343415   1.091581   1.783419   1.763561   0.000000
    26  C    4.252818   2.522514   2.791423   2.739809   3.480427
    27  H    5.015774   2.761507   3.139630   2.523603   3.750300
    28  H    4.311661   2.786209   2.607752   3.101575   3.804238
    29  H    4.782162   3.472391   3.795465   3.738162   4.317845
                   26         27         28         29
    26  C    0.000000
    27  H    1.095558   0.000000
    28  H    1.095816   1.781350   0.000000
    29  H    1.093991   1.771448   1.783282   0.000000
 Framework group  C1[X(C8H16Cl3FeO)]
 Deg. of freedom    81
                         Standard orientation:                         
 ---------------------------------------------------------------------
 Center     Atomic      Atomic             Coordinates (Angstroms)
 Number     Number       Type             X           Y           Z
 ---------------------------------------------------------------------
      1          8           0       -0.389238   -0.211819   -0.553617
      2          6           0       -1.435730   -1.193725   -0.360476
      3          6           0       -2.762617   -0.139570   -0.225843
      4          6           0       -1.965970    1.144191   -0.261804
      5          6           0       -1.865107    1.904638   -1.528783
      6         26           0        1.377399    0.034838    0.027333
      7         17           0        1.818320    2.027395   -0.836630
      8          6           0       -1.576622    1.832395    0.990276
      9         17           0        2.523941   -1.676651   -0.722315
     10         17           0        1.343450    0.148487    2.240578
     11          1           0       -3.337872   -0.227533   -1.151753
     12          1           0       -2.451406    2.422715    1.309872
     13          1           0       -1.329047    1.140571    1.795792
     14          1           0       -0.742855    2.518396    0.826181
     15          1           0       -2.650423    2.678659   -1.504801
     16          1           0       -0.897420    2.409637   -1.600981
     17          1           0       -2.030617    1.273283   -2.402770
     18          6           0       -3.674788   -0.344969    0.976974
     19          1           0       -4.470147    0.408992    1.002820
     20          1           0       -4.155106   -1.325576    0.908801
     21          1           0       -3.135791   -0.303537    1.926146
     22          6           0       -1.197428   -2.020653    0.888070
     23          1           0       -2.017526   -2.726252    1.054714
     24          1           0       -0.274830   -2.597311    0.755158
     25          1           0       -1.069633   -1.399031    1.776216
     26          6           0       -1.542196   -2.046544   -1.610638
     27          1           0       -0.605695   -2.598551   -1.746661
     28          1           0       -2.365924   -2.764654   -1.529375
     29          1           0       -1.698521   -1.422554   -2.495520
 ---------------------------------------------------------------------
 Rotational constants (GHZ):           0.5728380           0.3618288           0.3233087
   427 basis functions,  1056 primitive gaussians,   461 cartesian basis functions
    77 alpha electrons       72 beta electrons
       nuclear repulsion energy      1659.4725971550 Hartrees.
 NAtoms=   29 NActive=   29 NUniq=   29 SFac= 1.00D+00 NAtFMM=   60 NAOKFM=F Big=F
 Initial guess from the checkpoint file:  "checkpoint.chk"
 B after Tr=     0.000000    0.000000    0.000000
         Rot=    1.000000    0.000000    0.000000    0.000000 Ang=   0.00 deg.
 Initial guess <Sx>= 0.0000 <Sy>= 0.0000 <Sz>= 2.5000 <S**2>= 8.7627 S= 2.5021
 SCF Done:  E(UB3LYP) =  -3034.32876415     A.U. after   13 cycles
            NFock= 13  Conv=0.63D-08     -V/T= 2.0025
 <Sx>= 0.0000 <Sy>= 0.0000 <Sz>= 2.5000 <S**2>= 8.7621 S= 2.5020
 <L.S>= 0.000000000000E+00
 Annihilation of the first spin contaminant:
 S**2 before annihilation     8.7621,   after     8.7500
 1\1\GINC-HOLY7C04309\SP\UB3LYP\Jul-CC-pVDZ\C8H16Cl3Fe1O1(6)\EKWAN\11-F
 eb-2020\0\\#t pop=none jul-cc-pvdz guess=read ub3lyp\\theory_abbreviat
 ion b3lyp\\0,6\O,0,-0.389238,-0.211819,-0.553617\C,0,-1.43573,-1.19372
 5,-0.360476\C,0,-2.762617,-0.13957,-0.225843\C,0,-1.96597,1.144191,-0.
 261804\C,0,-1.865107,1.904638,-1.528783\Fe,0,1.377399,0.034838,0.02733
 3\Cl,0,1.81832,2.027395,-0.83663\C,0,-1.576622,1.832395,0.990276\Cl,0,
 2.523941,-1.676652,-0.722315\Cl,0,1.34345,0.148487,2.240578\H,0,-3.337
 872,-0.227533,-1.151753\H,0,-2.451406,2.422715,1.309872\H,0,-1.329047,
 1.140571,1.795792\H,0,-0.742855,2.518396,0.826181\H,0,-2.650423,2.6786
 59,-1.504801\H,0,-0.89742,2.409637,-1.600981\H,0,-2.030617,1.273283,-2
 .40277\C,0,-3.674788,-0.344969,0.976974\H,0,-4.470147,0.408993,1.00282
 \H,0,-4.155106,-1.325575,0.908801\H,0,-3.135791,-0.303537,1.926146\C,0
 ,-1.197428,-2.020653,0.88807\H,0,-2.017526,-2.726252,1.054714\H,0,-0.2
 7483,-2.597311,0.755158\H,0,-1.069633,-1.399031,1.776216\C,0,-1.542196
 ,-2.046544,-1.610638\H,0,-0.605695,-2.598551,-1.746661\H,0,-2.365924,-
 2.764654,-1.529375\H,0,-1.698521,-1.422554,-2.49552\\Version=ES64L-G16
 RevA.03\HF=-3034.3287642\S2=8.762081\S2-1=0.\S2A=8.750046\RMSD=6.288e-
 09\PG=C01 [X(C8H16Cl3Fe1O1)]\\@


 Statistics are no substitute for judgment.
                            -- Henry Clay
 Job cpu time:       0 days  0 hours 54 minutes 39.9 seconds.
 Elapsed time:       0 days  0 hours 13 minutes 43.5 seconds.
 File lengths (MBytes):  RWF=    174 Int=      0 D2E=      0 Chk=     13 Scr=      1
 Normal termination of Gaussian 16 at Tue Feb 11 14:11:16 2020.
 Initial command:
 /n/sw/g16_nehalem/g16/l1.exe "/scratch/Gau-27629.inp" -scrdir="/scratch/"
 Entering Link 1 = /n/sw/g16_nehalem/g16/l1.exe PID=     31158.
  
 Copyright (c) 1988,1990,1992,1993,1995,1998,2003,2009,2016,
            Gaussian, Inc.  All Rights Reserved.
  
 This is part of the Gaussian(R) 16 program.  It is based on
 the Gaussian(R) 09 system (copyright 2009, Gaussian, Inc.),
 the Gaussian(R) 03 system (copyright 2003, Gaussian, Inc.),
 the Gaussian(R) 98 system (copyright 1998, Gaussian, Inc.),
 the Gaussian(R) 94 system (copyright 1995, Gaussian, Inc.),
 the Gaussian 92(TM) system (copyright 1992, Gaussian, Inc.),
 the Gaussian 90(TM) system (copyright 1990, Gaussian, Inc.),
 the Gaussian 88(TM) system (copyright 1988, Gaussian, Inc.),
 the Gaussian 86(TM) system (copyright 1986, Carnegie Mellon
 University), and the Gaussian 82(TM) system (copyright 1983,
 Carnegie Mellon University). Gaussian is a federally registered
 trademark of Gaussian, Inc.
  
 This software contains proprietary and confidential information,
 including trade secrets, belonging to Gaussian, Inc.
  
 This software is provided under written license and may be
 used, copied, transmitted, or stored only in accord with that
 written license.
  
 The following legend is applicable only to US Government
 contracts under FAR:
  
                    RESTRICTED RIGHTS LEGEND
  
 Use, reproduction and disclosure by the US Government is
 subject to restrictions as set forth in subparagraphs (a)
 and (c) of the Commercial Computer Software - Restricted
 Rights clause in FAR 52.227-19.
  
 Gaussian, Inc.
 340 Quinnipiac St., Bldg. 40, Wallingford CT 06492
  
  
 ---------------------------------------------------------------
 Warning -- This program may not be used in any manner that
 competes with the business of Gaussian, Inc. or will provide
 assistance to any competitor of Gaussian, Inc.  The licensee
 of this program is prohibited from giving any competitor of
 Gaussian, Inc. access to this program.  By using this program,
 the user acknowledges that Gaussian, Inc. is engaged in the
 business of creating and licensing software in the field of
 computational chemistry and represents and warrants to the
 licensee that it is not a competitor of Gaussian, Inc. and that
 it will not use this program in any manner prohibited above.
 ---------------------------------------------------------------
  

 Cite this work as:
 Gaussian 16, Revision A.03,
 M. J. Frisch, G. W. Trucks, H. B. Schlegel, G. E. Scuseria, 
 M. A. Robb, J. R. Cheeseman, G. Scalmani, V. Barone, 
 G. A. Petersson, H. Nakatsuji, X. Li, M. Caricato, A. V. Marenich, 
 J. Bloino, B. G. Janesko, R. Gomperts, B. Mennucci, H. P. Hratchian, 
 J. V. Ortiz, A. F. Izmaylov, J. L. Sonnenberg, D. Williams-Young, 
 F. Ding, F. Lipparini, F. Egidi, J. Goings, B. Peng, A. Petrone, 
 T. Henderson, D. Ranasinghe, V. G. Zakrzewski, J. Gao, N. Rega, 
 G. Zheng, W. Liang, M. Hada, M. Ehara, K. Toyota, R. Fukuda, 
 J. Hasegawa, M. Ishida, T. Nakajima, Y. Honda, O. Kitao, H. Nakai, 
 T. Vreven, K. Throssell, J. A. Montgomery, Jr., J. E. Peralta, 
 F. Ogliaro, M. J. Bearpark, J. J. Heyd, E. N. Brothers, K. N. Kudin, 
 V. N. Staroverov, T. A. Keith, R. Kobayashi, J. Normand, 
 K. Raghavachari, A. P. Rendell, J. C. Burant, S. S. Iyengar, 
 J. Tomasi, M. Cossi, J. M. Millam, M. Klene, C. Adamo, R. Cammi, 
 J. W. Ochterski, R. L. Martin, K. Morokuma, O. Farkas, 
 J. B. Foresman, and D. J. Fox, Gaussian, Inc., Wallingford CT, 2016.
 
 ******************************************
 Gaussian 16:  ES64L-G16RevA.03 25-Dec-2016
                11-Feb-2020 
 ******************************************
 %chk=checkpoint.chk
 %mem=3GB
 %nprocshared=4
 Will use up to    4 processors via shared memory.
 -------------------------------------------------------------------
 #t pop=none jul-cc-pvdz guess=read ub3lyp empiricaldispersion=gd3bj
 -------------------------------------------------------------------
 ------------------------------
 theory_abbreviation b3lyp_d3bj
 ------------------------------
 Symbolic Z-matrix:
 Charge =  0 Multiplicity = 6
 O                    -0.38924  -0.21182  -0.55362 
 C                    -1.43573  -1.19373  -0.36048 
 C                    -2.76262  -0.13957  -0.22584 
 C                    -1.96597   1.14419  -0.2618 
 C                    -1.86511   1.90464  -1.52878 
 Fe                    1.3774    0.03484   0.02733 
 Cl                    1.81832   2.02739  -0.83663 
 C                    -1.57662   1.8324    0.99028 
 Cl                    2.52394  -1.67665  -0.72232 
 Cl                    1.34345   0.14849   2.24058 
 H                    -3.33787  -0.22753  -1.15175 
 H                    -2.45141   2.42272   1.30987 
 H                    -1.32905   1.14057   1.79579 
 H                    -0.74286   2.5184    0.82618 
 H                    -2.65042   2.67866  -1.5048 
 H                    -0.89742   2.40964  -1.60098 
 H                    -2.03062   1.27328  -2.40277 
 C                    -3.67479  -0.34497   0.97697 
 H                    -4.47015   0.40899   1.00282 
 H                    -4.15511  -1.32558   0.9088 
 H                    -3.13579  -0.30354   1.92615 
 C                    -1.19743  -2.02065   0.88807 
 H                    -2.01753  -2.72625   1.05471 
 H                    -0.27483  -2.59731   0.75516 
 H                    -1.06963  -1.39903   1.77622 
 C                    -1.5422   -2.04654  -1.61064 
 H                    -0.6057   -2.59855  -1.74666 
 H                    -2.36592  -2.76465  -1.52938 
 H                    -1.69852  -1.42255  -2.49552 
 
                    Distance matrix (angstroms):
                    1          2          3          4          5
     1  O    0.000000
     2  C    1.447960   0.000000
     3  C    2.396995   1.699999   0.000000
     4  C    2.100000   2.399321   1.511285   0.000000
     5  C    2.758356   3.339036   2.584949   1.481111   0.000000
     6  Fe   1.875993   3.094100   4.151415   3.534456   4.053578
     7  Cl   3.157133   4.603388   5.104291   3.928273   3.749904
     8  C    2.823526   3.316894   2.602725   1.480851   2.536553
     9  Cl   3.265089   4.005389   5.527821   5.322455   5.721868
    10  Cl   3.307500   4.036193   4.798541   4.266802   5.252332
    11  H    3.008730   2.275476   1.093602   2.134421   2.618653
    12  H    3.829608   4.110997   3.003428   2.083372   2.944505
    13  H    2.869133   3.179593   2.789425   2.153923   3.453108
    14  H    3.079442   3.958292   3.500139   2.137326   2.679926
    15  H    3.791117   4.216671   3.096891   2.090002   1.102907
    16  H    2.868319   3.848746   3.445057   2.129917   1.093917
    17  H    2.884271   3.257451   2.696477   2.145828   1.090805
    18  C    3.627020   2.742725   1.523487   2.583066   3.822891
    19  H    4.411544   3.692556   2.173981   2.900119   3.928384
    20  H    4.190570   3.003907   2.152452   3.501768   4.649751
    21  H    3.701512   2.985177   2.190251   2.872546   4.292693
    22  C    2.450207   1.516399   2.688697   3.453854   4.657777
    23  H    3.400062   2.165615   2.980924   4.088546   5.304982
    24  H    2.723335   2.135973   3.632071   4.230012   5.292723
    25  H    2.701950   2.177528   2.908724   3.380077   4.740256
    26  C    2.410979   1.517083   2.653985   3.489947   3.965200
    27  H    2.677069   2.141029   3.607186   4.250090   4.681058
    28  H    3.372886   2.167811   2.957639   4.128652   4.696073
    29  H    2.636492   2.163293   2.815987   3.413092   3.468795
                    6          7          8          9         10
     6  Fe   0.000000
     7  Cl   2.216106   0.000000
     8  C    3.589528   3.860213   0.000000
     9  Cl   2.192197   3.772391   5.662243   0.000000
    10  Cl   2.216421   3.636620   3.595222   3.674701   0.000000
    11  H    4.867532   5.636517   3.454503   6.053529   5.793451
    12  H    4.691120   4.795238   1.102663   6.759340   4.520980
    13  H    3.416862   4.197859   1.090307   5.396585   2.885187
    14  H    3.361799   3.092837   1.092104   5.537890   3.459719
    15  H    5.055747   4.565114   2.845105   6.808455   6.031638
    16  H    3.669588   2.847031   2.740280   5.401437   4.989176
    17  H    4.365057   4.223245   3.468642   5.680673   5.848946
    18  C    5.154674   6.252320   3.023804   6.563932   5.198356
    19  H    5.940148   6.748898   3.224704   7.499552   5.949607
    20  H    5.765095   7.069000   4.077744   6.884291   5.846418
    21  H    4.908042   6.132650   2.805186   6.397840   4.512958
    22  C    3.405238   5.334418   3.873011   4.069430   3.604235
    23  H    4.494958   6.394377   4.580372   4.988428   4.578925
    24  H    3.191833   5.320054   4.623012   3.296006   3.516349
    25  H    3.332047   5.187257   3.364053   4.385602   2.904034
    26  C    3.941971   5.337521   4.670343   4.178446   5.289327
    27  H    3.743588   5.301262   5.297811   3.419620   5.219527
    28  H    4.926760   6.399338   5.301368   5.074039   6.038078
    29  H    4.236751   5.198292   4.770778   4.586721   5.844004
                   11         12         13         14         15
    11  H    0.000000
    12  H    3.724142   0.000000
    13  H    3.820354   1.771920   0.000000
    14  H    4.264559   1.778274   1.783863   0.000000
    15  H    3.007188   2.833284   3.873714   3.016285   0.000000
    16  H    3.621088   3.299713   3.651698   2.434509   1.776131
    17  H    2.350831   3.909216   4.258842   3.692528   1.779210
    18  C    2.158421   3.044267   2.894787   4.100955   4.043619
    19  H    2.515829   2.867869   3.321223   4.286431   3.840696
    20  H    2.473752   4.136802   3.854249   5.140661   4.911561
    21  H    3.085462   2.877608   2.316628   3.859970   4.571703
    22  C    3.457985   4.636151   3.291598   4.562174   5.469969
    23  H    3.585444   5.173511   3.996939   5.402161   6.013713
    24  H    4.316756   5.499623   4.020703   5.137563   6.211821
    25  H    3.884626   4.090540   2.552892   4.044204   5.467314
    26  C    2.596888   5.415747   4.669786   5.236001   4.854576
    27  H    3.666120   6.161344   5.201273   5.729003   5.664658
    28  H    2.743039   5.914172   5.232842   6.007796   5.450798
    29  H    2.433363   5.462045   5.012133   5.241954   4.325227
                   16         17         18         19         20
    16  H    0.000000
    17  H    1.793963   0.000000
    18  C    4.684814   4.092030   0.000000
    19  H    4.852498   4.277423   1.096231   0.000000
    20  H    5.555478   4.715296   1.094048   1.765451   0.000000
    21  H    4.981189   4.737857   1.092319   1.772212   1.765943
    22  C    5.090466   4.730100   2.992179   4.077626   3.038326
    23  H    5.889373   5.286837   2.902252   3.980930   2.559772
    24  H    5.568531   5.294978   4.084356   5.167193   4.086253
    25  H    5.093238   5.052591   2.921758   3.928179   3.205924
    26  C    4.502597   3.447793   3.760192   4.629549   3.700631
    27  H    5.018792   4.177557   4.681469   5.615955   4.611970
    28  H    5.379119   4.144899   3.721530   4.572942   3.349153
    29  H    4.015925   2.717798   4.138241   4.824402   4.199240
                   21         22         23         24         25
    21  H    0.000000
    22  C    2.789864   0.000000
    23  H    2.807037   1.094624   0.000000
    24  H    3.849378   1.096078   1.772949   0.000000
    25  H    2.343415   1.091581   1.783419   1.763561   0.000000
    26  C    4.252818   2.522514   2.791423   2.739809   3.480427
    27  H    5.015774   2.761507   3.139630   2.523603   3.750300
    28  H    4.311661   2.786209   2.607752   3.101575   3.804238
    29  H    4.782162   3.472391   3.795465   3.738162   4.317845
                   26         27         28         29
    26  C    0.000000
    27  H    1.095558   0.000000
    28  H    1.095816   1.781350   0.000000
    29  H    1.093991   1.771448   1.783282   0.000000
 Framework group  C1[X(C8H16Cl3FeO)]
 Deg. of freedom    81
                         Standard orientation:                         
 ---------------------------------------------------------------------
 Center     Atomic      Atomic             Coordinates (Angstroms)
 Number     Number       Type             X           Y           Z
 ---------------------------------------------------------------------
      1          8           0       -0.389238   -0.211819   -0.553617
      2          6           0       -1.435730   -1.193725   -0.360476
      3          6           0       -2.762617   -0.139570   -0.225843
      4          6           0       -1.965970    1.144191   -0.261804
      5          6           0       -1.865107    1.904638   -1.528783
      6         26           0        1.377399    0.034838    0.027333
      7         17           0        1.818320    2.027395   -0.836630
      8          6           0       -1.576622    1.832395    0.990276
      9         17           0        2.523941   -1.676651   -0.722315
     10         17           0        1.343450    0.148487    2.240578
     11          1           0       -3.337872   -0.227533   -1.151753
     12          1           0       -2.451406    2.422715    1.309872
     13          1           0       -1.329047    1.140571    1.795792
     14          1           0       -0.742855    2.518396    0.826181
     15          1           0       -2.650423    2.678659   -1.504801
     16          1           0       -0.897420    2.409637   -1.600981
     17          1           0       -2.030617    1.273283   -2.402770
     18          6           0       -3.674788   -0.344969    0.976974
     19          1           0       -4.470147    0.408992    1.002820
     20          1           0       -4.155106   -1.325576    0.908801
     21          1           0       -3.135791   -0.303537    1.926146
     22          6           0       -1.197428   -2.020653    0.888070
     23          1           0       -2.017526   -2.726252    1.054714
     24          1           0       -0.274830   -2.597311    0.755158
     25          1           0       -1.069633   -1.399031    1.776216
     26          6           0       -1.542196   -2.046544   -1.610638
     27          1           0       -0.605695   -2.598551   -1.746661
     28          1           0       -2.365924   -2.764654   -1.529375
     29          1           0       -1.698521   -1.422554   -2.495520
 ---------------------------------------------------------------------
 Rotational constants (GHZ):           0.5728380           0.3618288           0.3233087
   427 basis functions,  1056 primitive gaussians,   461 cartesian basis functions
    77 alpha electrons       72 beta electrons
       nuclear repulsion energy      1659.4725971550 Hartrees.
 NAtoms=   29 NActive=   29 NUniq=   29 SFac= 1.00D+00 NAtFMM=   60 NAOKFM=F Big=F
 Nuclear repulsion after empirical dispersion term =     1659.4038475713 Hartrees.
 Initial guess from the checkpoint file:  "checkpoint.chk"
 B after Tr=     0.000000    0.000000    0.000000
         Rot=    1.000000    0.000000    0.000000    0.000000 Ang=   0.00 deg.
 Initial guess <Sx>= 0.0000 <Sy>= 0.0000 <Sz>= 2.5000 <S**2>= 8.7621 S= 2.5020
 SCF Done:  E(UB3LYP) =  -3034.39751374     A.U. after    1 cycles
            NFock=  1  Conv=0.44D-08     -V/T= 2.0025
 <Sx>= 0.0000 <Sy>= 0.0000 <Sz>= 2.5000 <S**2>= 8.7621 S= 2.5020
 <L.S>= 0.000000000000E+00
 Annihilation of the first spin contaminant:
 S**2 before annihilation     8.7621,   after     8.7500
 1\1\GINC-HOLY7C04309\SP\UB3LYP\Jul-CC-pVDZ\C8H16Cl3Fe1O1(6)\EKWAN\11-F
 eb-2020\0\\#t pop=none jul-cc-pvdz guess=read ub3lyp empiricaldispersi
 on=gd3bj\\theory_abbreviation b3lyp_d3bj\\0,6\O,0,-0.389238,-0.211819,
 -0.553617\C,0,-1.43573,-1.193725,-0.360476\C,0,-2.762617,-0.13957,-0.2
 25843\C,0,-1.96597,1.144191,-0.261804\C,0,-1.865107,1.904638,-1.528783
 \Fe,0,1.377399,0.034838,0.027333\Cl,0,1.81832,2.027395,-0.83663\C,0,-1
 .576622,1.832395,0.990276\Cl,0,2.523941,-1.676652,-0.722315\Cl,0,1.343
 45,0.148487,2.240578\H,0,-3.337872,-0.227533,-1.151753\H,0,-2.451406,2
 .422715,1.309872\H,0,-1.329047,1.140571,1.795792\H,0,-0.742855,2.51839
 6,0.826181\H,0,-2.650423,2.678659,-1.504801\H,0,-0.89742,2.409637,-1.6
 00981\H,0,-2.030617,1.273283,-2.40277\C,0,-3.674788,-0.344969,0.976974
 \H,0,-4.470147,0.408993,1.00282\H,0,-4.155106,-1.325575,0.908801\H,0,-
 3.135791,-0.303537,1.926146\C,0,-1.197428,-2.020653,0.88807\H,0,-2.017
 526,-2.726252,1.054714\H,0,-0.27483,-2.597311,0.755158\H,0,-1.069633,-
 1.399031,1.776216\C,0,-1.542196,-2.046544,-1.610638\H,0,-0.605695,-2.5
 98551,-1.746661\H,0,-2.365924,-2.764654,-1.529375\H,0,-1.698521,-1.422
 554,-2.49552\\Version=ES64L-G16RevA.03\HF=-3034.3975137\S2=8.762081\S2
 -1=0.\S2A=8.750046\RMSD=4.399e-09\PG=C01 [X(C8H16Cl3Fe1O1)]\\@


 A successful marriage requires falling in love
 many times, always with the same person.
                           -- Mignon McLaughlin
 Job cpu time:       0 days  0 hours  4 minutes 36.5 seconds.
 Elapsed time:       0 days  0 hours  1 minutes  9.6 seconds.
 File lengths (MBytes):  RWF=    170 Int=      0 D2E=      0 Chk=     13 Scr=      1
 Normal termination of Gaussian 16 at Tue Feb 11 14:12:27 2020.
 Initial command:
 /n/sw/g16_nehalem/g16/l1.exe "/scratch/Gau-27629.inp" -scrdir="/scratch/"
 Entering Link 1 = /n/sw/g16_nehalem/g16/l1.exe PID=     31271.
  
 Copyright (c) 1988,1990,1992,1993,1995,1998,2003,2009,2016,
            Gaussian, Inc.  All Rights Reserved.
  
 This is part of the Gaussian(R) 16 program.  It is based on
 the Gaussian(R) 09 system (copyright 2009, Gaussian, Inc.),
 the Gaussian(R) 03 system (copyright 2003, Gaussian, Inc.),
 the Gaussian(R) 98 system (copyright 1998, Gaussian, Inc.),
 the Gaussian(R) 94 system (copyright 1995, Gaussian, Inc.),
 the Gaussian 92(TM) system (copyright 1992, Gaussian, Inc.),
 the Gaussian 90(TM) system (copyright 1990, Gaussian, Inc.),
 the Gaussian 88(TM) system (copyright 1988, Gaussian, Inc.),
 the Gaussian 86(TM) system (copyright 1986, Carnegie Mellon
 University), and the Gaussian 82(TM) system (copyright 1983,
 Carnegie Mellon University). Gaussian is a federally registered
 trademark of Gaussian, Inc.
  
 This software contains proprietary and confidential information,
 including trade secrets, belonging to Gaussian, Inc.
  
 This software is provided under written license and may be
 used, copied, transmitted, or stored only in accord with that
 written license.
  
 The following legend is applicable only to US Government
 contracts under FAR:
  
                    RESTRICTED RIGHTS LEGEND
  
 Use, reproduction and disclosure by the US Government is
 subject to restrictions as set forth in subparagraphs (a)
 and (c) of the Commercial Computer Software - Restricted
 Rights clause in FAR 52.227-19.
  
 Gaussian, Inc.
 340 Quinnipiac St., Bldg. 40, Wallingford CT 06492
  
  
 ---------------------------------------------------------------
 Warning -- This program may not be used in any manner that
 competes with the business of Gaussian, Inc. or will provide
 assistance to any competitor of Gaussian, Inc.  The licensee
 of this program is prohibited from giving any competitor of
 Gaussian, Inc. access to this program.  By using this program,
 the user acknowledges that Gaussian, Inc. is engaged in the
 business of creating and licensing software in the field of
 computational chemistry and represents and warrants to the
 licensee that it is not a competitor of Gaussian, Inc. and that
 it will not use this program in any manner prohibited above.
 ---------------------------------------------------------------
  

 Cite this work as:
 Gaussian 16, Revision A.03,
 M. J. Frisch, G. W. Trucks, H. B. Schlegel, G. E. Scuseria, 
 M. A. Robb, J. R. Cheeseman, G. Scalmani, V. Barone, 
 G. A. Petersson, H. Nakatsuji, X. Li, M. Caricato, A. V. Marenich, 
 J. Bloino, B. G. Janesko, R. Gomperts, B. Mennucci, H. P. Hratchian, 
 J. V. Ortiz, A. F. Izmaylov, J. L. Sonnenberg, D. Williams-Young, 
 F. Ding, F. Lipparini, F. Egidi, J. Goings, B. Peng, A. Petrone, 
 T. Henderson, D. Ranasinghe, V. G. Zakrzewski, J. Gao, N. Rega, 
 G. Zheng, W. Liang, M. Hada, M. Ehara, K. Toyota, R. Fukuda, 
 J. Hasegawa, M. Ishida, T. Nakajima, Y. Honda, O. Kitao, H. Nakai, 
 T. Vreven, K. Throssell, J. A. Montgomery, Jr., J. E. Peralta, 
 F. Ogliaro, M. J. Bearpark, J. J. Heyd, E. N. Brothers, K. N. Kudin, 
 V. N. Staroverov, T. A. Keith, R. Kobayashi, J. Normand, 
 K. Raghavachari, A. P. Rendell, J. C. Burant, S. S. Iyengar, 
 J. Tomasi, M. Cossi, J. M. Millam, M. Klene, C. Adamo, R. Cammi, 
 J. W. Ochterski, R. L. Martin, K. Morokuma, O. Farkas, 
 J. B. Foresman, and D. J. Fox, Gaussian, Inc., Wallingford CT, 2016.
 
 ******************************************
 Gaussian 16:  ES64L-G16RevA.03 25-Dec-2016
                11-Feb-2020 
 ******************************************
 %chk=checkpoint.chk
 %mem=3GB
 %nprocshared=4
 Will use up to    4 processors via shared memory.
 ----------------------------------------
 #t pop=none jul-cc-pvdz guess=read ub97d
 ----------------------------------------
 ------------------------
 theory_abbreviation b97d
 ------------------------
 Symbolic Z-matrix:
 Charge =  0 Multiplicity = 6
 O                    -0.38924  -0.21182  -0.55362 
 C                    -1.43573  -1.19373  -0.36048 
 C                    -2.76262  -0.13957  -0.22584 
 C                    -1.96597   1.14419  -0.2618 
 C                    -1.86511   1.90464  -1.52878 
 Fe                    1.3774    0.03484   0.02733 
 Cl                    1.81832   2.02739  -0.83663 
 C                    -1.57662   1.8324    0.99028 
 Cl                    2.52394  -1.67665  -0.72232 
 Cl                    1.34345   0.14849   2.24058 
 H                    -3.33787  -0.22753  -1.15175 
 H                    -2.45141   2.42272   1.30987 
 H                    -1.32905   1.14057   1.79579 
 H                    -0.74286   2.5184    0.82618 
 H                    -2.65042   2.67866  -1.5048 
 H                    -0.89742   2.40964  -1.60098 
 H                    -2.03062   1.27328  -2.40277 
 C                    -3.67479  -0.34497   0.97697 
 H                    -4.47015   0.40899   1.00282 
 H                    -4.15511  -1.32558   0.9088 
 H                    -3.13579  -0.30354   1.92615 
 C                    -1.19743  -2.02065   0.88807 
 H                    -2.01753  -2.72625   1.05471 
 H                    -0.27483  -2.59731   0.75516 
 H                    -1.06963  -1.39903   1.77622 
 C                    -1.5422   -2.04654  -1.61064 
 H                    -0.6057   -2.59855  -1.74666 
 H                    -2.36592  -2.76465  -1.52938 
 H                    -1.69852  -1.42255  -2.49552 
 
                    Distance matrix (angstroms):
                    1          2          3          4          5
     1  O    0.000000
     2  C    1.447960   0.000000
     3  C    2.396995   1.699999   0.000000
     4  C    2.100000   2.399321   1.511285   0.000000
     5  C    2.758356   3.339036   2.584949   1.481111   0.000000
     6  Fe   1.875993   3.094100   4.151415   3.534456   4.053578
     7  Cl   3.157133   4.603388   5.104291   3.928273   3.749904
     8  C    2.823526   3.316894   2.602725   1.480851   2.536553
     9  Cl   3.265089   4.005389   5.527821   5.322455   5.721868
    10  Cl   3.307500   4.036193   4.798541   4.266802   5.252332
    11  H    3.008730   2.275476   1.093602   2.134421   2.618653
    12  H    3.829608   4.110997   3.003428   2.083372   2.944505
    13  H    2.869133   3.179593   2.789425   2.153923   3.453108
    14  H    3.079442   3.958292   3.500139   2.137326   2.679926
    15  H    3.791117   4.216671   3.096891   2.090002   1.102907
    16  H    2.868319   3.848746   3.445057   2.129917   1.093917
    17  H    2.884271   3.257451   2.696477   2.145828   1.090805
    18  C    3.627020   2.742725   1.523487   2.583066   3.822891
    19  H    4.411544   3.692556   2.173981   2.900119   3.928384
    20  H    4.190570   3.003907   2.152452   3.501768   4.649751
    21  H    3.701512   2.985177   2.190251   2.872546   4.292693
    22  C    2.450207   1.516399   2.688697   3.453854   4.657777
    23  H    3.400062   2.165615   2.980924   4.088546   5.304982
    24  H    2.723335   2.135973   3.632071   4.230012   5.292723
    25  H    2.701950   2.177528   2.908724   3.380077   4.740256
    26  C    2.410979   1.517083   2.653985   3.489947   3.965200
    27  H    2.677069   2.141029   3.607186   4.250090   4.681058
    28  H    3.372886   2.167811   2.957639   4.128652   4.696073
    29  H    2.636492   2.163293   2.815987   3.413092   3.468795
                    6          7          8          9         10
     6  Fe   0.000000
     7  Cl   2.216106   0.000000
     8  C    3.589528   3.860213   0.000000
     9  Cl   2.192197   3.772391   5.662243   0.000000
    10  Cl   2.216421   3.636620   3.595222   3.674701   0.000000
    11  H    4.867532   5.636517   3.454503   6.053529   5.793451
    12  H    4.691120   4.795238   1.102663   6.759340   4.520980
    13  H    3.416862   4.197859   1.090307   5.396585   2.885187
    14  H    3.361799   3.092837   1.092104   5.537890   3.459719
    15  H    5.055747   4.565114   2.845105   6.808455   6.031638
    16  H    3.669588   2.847031   2.740280   5.401437   4.989176
    17  H    4.365057   4.223245   3.468642   5.680673   5.848946
    18  C    5.154674   6.252320   3.023804   6.563932   5.198356
    19  H    5.940148   6.748898   3.224704   7.499552   5.949607
    20  H    5.765095   7.069000   4.077744   6.884291   5.846418
    21  H    4.908042   6.132650   2.805186   6.397840   4.512958
    22  C    3.405238   5.334418   3.873011   4.069430   3.604235
    23  H    4.494958   6.394377   4.580372   4.988428   4.578925
    24  H    3.191833   5.320054   4.623012   3.296006   3.516349
    25  H    3.332047   5.187257   3.364053   4.385602   2.904034
    26  C    3.941971   5.337521   4.670343   4.178446   5.289327
    27  H    3.743588   5.301262   5.297811   3.419620   5.219527
    28  H    4.926760   6.399338   5.301368   5.074039   6.038078
    29  H    4.236751   5.198292   4.770778   4.586721   5.844004
                   11         12         13         14         15
    11  H    0.000000
    12  H    3.724142   0.000000
    13  H    3.820354   1.771920   0.000000
    14  H    4.264559   1.778274   1.783863   0.000000
    15  H    3.007188   2.833284   3.873714   3.016285   0.000000
    16  H    3.621088   3.299713   3.651698   2.434509   1.776131
    17  H    2.350831   3.909216   4.258842   3.692528   1.779210
    18  C    2.158421   3.044267   2.894787   4.100955   4.043619
    19  H    2.515829   2.867869   3.321223   4.286431   3.840696
    20  H    2.473752   4.136802   3.854249   5.140661   4.911561
    21  H    3.085462   2.877608   2.316628   3.859970   4.571703
    22  C    3.457985   4.636151   3.291598   4.562174   5.469969
    23  H    3.585444   5.173511   3.996939   5.402161   6.013713
    24  H    4.316756   5.499623   4.020703   5.137563   6.211821
    25  H    3.884626   4.090540   2.552892   4.044204   5.467314
    26  C    2.596888   5.415747   4.669786   5.236001   4.854576
    27  H    3.666120   6.161344   5.201273   5.729003   5.664658
    28  H    2.743039   5.914172   5.232842   6.007796   5.450798
    29  H    2.433363   5.462045   5.012133   5.241954   4.325227
                   16         17         18         19         20
    16  H    0.000000
    17  H    1.793963   0.000000
    18  C    4.684814   4.092030   0.000000
    19  H    4.852498   4.277423   1.096231   0.000000
    20  H    5.555478   4.715296   1.094048   1.765451   0.000000
    21  H    4.981189   4.737857   1.092319   1.772212   1.765943
    22  C    5.090466   4.730100   2.992179   4.077626   3.038326
    23  H    5.889373   5.286837   2.902252   3.980930   2.559772
    24  H    5.568531   5.294978   4.084356   5.167193   4.086253
    25  H    5.093238   5.052591   2.921758   3.928179   3.205924
    26  C    4.502597   3.447793   3.760192   4.629549   3.700631
    27  H    5.018792   4.177557   4.681469   5.615955   4.611970
    28  H    5.379119   4.144899   3.721530   4.572942   3.349153
[...]
 ---------------------------------------------------------------------
 Rotational constants (GHZ):           0.5728380           0.3618288           0.3233087
   427 basis functions,  1056 primitive gaussians,   461 cartesian basis functions
    77 alpha electrons       72 beta electrons
       nuclear repulsion energy      1659.4725971550 Hartrees.
 NAtoms=   29 NActive=   29 NUniq=   29 SFac= 1.00D+00 NAtFMM=   60 NAOKFM=F Big=F
 Nuclear repulsion after empirical dispersion term =     1659.4701798165 Hartrees.
 Initial guess from the checkpoint file:  "checkpoint.chk"
 B after Tr=     0.000000    0.000000    0.000000
         Rot=    1.000000    0.000000    0.000000    0.000000 Ang=   0.00 deg.
 Initial guess <Sx>= 0.0000 <Sy>= 0.0000 <Sz>= 2.5000 <S**2>= 8.7618 S= 2.5020
 SCF Done:  E(UM06L) =  -3034.19274768     A.U. after   18 cycles
            NFock= 18  Conv=0.36D-08     -V/T= 2.0021
 <Sx>= 0.0000 <Sy>= 0.0000 <Sz>= 2.5000 <S**2>= 8.7622 S= 2.5020
 <L.S>= 0.000000000000E+00
 Annihilation of the first spin contaminant:
 S**2 before annihilation     8.7622,   after     8.7500
 1\1\GINC-HOLY7C04309\SP\UM06L\Jul-CC-pVDZ\C8H16Cl3Fe1O1(6)\EKWAN\11-Fe
 b-2020\0\\#t pop=none jul-cc-pvdz guess=read um06l empiricaldispersion
 =gd3\\theory_abbreviation m06l_d3\\0,6\O,0,-0.389238,-0.211819,-0.5536
 17\C,0,-1.43573,-1.193725,-0.360476\C,0,-2.762617,-0.13957,-0.225843\C
 ,0,-1.96597,1.144191,-0.261804\C,0,-1.865107,1.904638,-1.528783\Fe,0,1
 .377399,0.034838,0.027333\Cl,0,1.81832,2.027395,-0.83663\C,0,-1.576622
 ,1.832395,0.990276\Cl,0,2.523941,-1.676652,-0.722315\Cl,0,1.34345,0.14
 8487,2.240578\H,0,-3.337872,-0.227533,-1.151753\H,0,-2.451406,2.422715
 ,1.309872\H,0,-1.329047,1.140571,1.795792\H,0,-0.742855,2.518396,0.826
 181\H,0,-2.650423,2.678659,-1.504801\H,0,-0.89742,2.409637,-1.600981\H
 ,0,-2.030617,1.273283,-2.40277\C,0,-3.674788,-0.344969,0.976974\H,0,-4
 .470147,0.408993,1.00282\H,0,-4.155106,-1.325575,0.908801\H,0,-3.13579
 1,-0.303537,1.926146\C,0,-1.197428,-2.020653,0.88807\H,0,-2.017526,-2.
 726252,1.054714\H,0,-0.27483,-2.597311,0.755158\H,0,-1.069633,-1.39903
 1,1.776216\C,0,-1.542196,-2.046544,-1.610638\H,0,-0.605695,-2.598551,-
 1.746661\H,0,-2.365924,-2.764654,-1.529375\H,0,-1.698521,-1.422554,-2.
 49552\\Version=ES64L-G16RevA.03\HF=-3034.1927477\S2=8.762249\S2-1=0.\S
 2A=8.750048\RMSD=3.586e-09\PG=C01 [X(C8H16Cl3Fe1O1)]\\@


 WHERE THERE IS MUCH DESIRE TO LEARN, THERE OF NECESSITY WILL BE
 MUCH ARGUING, MUCH WRITING, MANY OPINIONS; FOR OPINION IN GOOD MEN
 IS BUT KNOWLEDGE IN THE MAKING. -- JOHN MILTON.
 Job cpu time:       0 days  1 hours 25 minutes  4.8 seconds.
 Elapsed time:       0 days  0 hours 21 minutes 41.6 seconds.
 File lengths (MBytes):  RWF=    174 Int=      0 D2E=      0 Chk=     13 Scr=      1
 Normal termination of Gaussian 16 at Tue Feb 11 23:09:52 2020.
 Initial command:
 /n/sw/g16_nehalem/g16/l1.exe "/scratch/Gau-27629.inp" -scrdir="/scratch/"
 Entering Link 1 = /n/sw/g16_nehalem/g16/l1.exe PID=     86640.
  
 Copyright (c) 1988,1990,1992,1993,1995,1998,2003,2009,2016,
            Gaussian, Inc.  All Rights Reserved.
  
 This is part of the Gaussian(R) 16 program.  It is based on
 the Gaussian(R) 09 system (copyright 2009, Gaussian, Inc.),
 the Gaussian(R) 03 system (copyright 2003, Gaussian, Inc.),
 the Gaussian(R) 98 system (copyright 1998, Gaussian, Inc.),
 the Gaussian(R) 94 system (copyright 1995, Gaussian, Inc.),
 the Gaussian 92(TM) system (copyright 1992, Gaussian, Inc.),
 the Gaussian 90(TM) system (copyright 1990, Gaussian, Inc.),
 the Gaussian 88(TM) system (copyright 1988, Gaussian, Inc.),
 the Gaussian 86(TM) system (copyright 1986, Carnegie Mellon
 University), and the Gaussian 82(TM) system (copyright 1983,
 Carnegie Mellon University). Gaussian is a federally registered
 trademark of Gaussian, Inc.
  
 This software contains proprietary and confidential information,
 including trade secrets, belonging to Gaussian, Inc.
  
 This software is provided under written license and may be
 used, copied, transmitted, or stored only in accord with that
 written license.
  
 The following legend is applicable only to US Government
 contracts under FAR:
  
                    RESTRICTED RIGHTS LEGEND
  
 Use, reproduction and disclosure by the US Government is
 subject to restrictions as set forth in subparagraphs (a)
 and (c) of the Commercial Computer Software - Restricted
 Rights clause in FAR 52.227-19.
  
 Gaussian, Inc.
 340 Quinnipiac St., Bldg. 40, Wallingford CT 06492
  
  
 ---------------------------------------------------------------
 Warning -- This program may not be used in any manner that
 competes with the business of Gaussian, Inc. or will provide
 assistance to any competitor of Gaussian, Inc.  The licensee
 of this program is prohibited from giving any competitor of
 Gaussian, Inc. access to this program.  By using this program,
 the user acknowledges that Gaussian, Inc. is engaged in the
 business of creating and licensing software in the field of
 computational chemistry and represents and warrants to the
 licensee that it is not a competitor of Gaussian, Inc. and that
 it will not use this program in any manner prohibited above.
 ---------------------------------------------------------------
  

 Cite this work as:
 Gaussian 16, Revision A.03,
 M. J. Frisch, G. W. Trucks, H. B. Schlegel, G. E. Scuseria, 
 M. A. Robb, J. R. Cheeseman, G. Scalmani, V. Barone, 
 G. A. Petersson, H. Nakatsuji, X. Li, M. Caricato, A. V. Marenich, 
 J. Bloino, B. G. Janesko, R. Gomperts, B. Mennucci, H. P. Hratchian, 
 J. V. Ortiz, A. F. Izmaylov, J. L. Sonnenberg, D. Williams-Young, 
 F. Ding, F. Lipparini, F. Egidi, J. Goings, B. Peng, A. Petrone, 
 T. Henderson, D. Ranasinghe, V. G. Zakrzewski, J. Gao, N. Rega, 
 G. Zheng, W. Liang, M. Hada, M. Ehara, K. Toyota, R. Fukuda, 
 J. Hasegawa, M. Ishida, T. Nakajima, Y. Honda, O. Kitao, H. Nakai, 
 T. Vreven, K. Throssell, J. A. Montgomery, Jr., J. E. Peralta, 
 F. Ogliaro, M. J. Bearpark, J. J. Heyd, E. N. Brothers, K. N. Kudin, 
 V. N. Staroverov, T. A. Keith, R. Kobayashi, J. Normand, 
 K. Raghavachari, A. P. Rendell, J. C. Burant, S. S. Iyengar, 
 J. Tomasi, M. Cossi, J. M. Millam, M. Klene, C. Adamo, R. Cammi, 
 J. W. Ochterski, R. L. Martin, K. Morokuma, O. Farkas, 
 J. B. Foresman, and D. J. Fox, Gaussian, Inc., Wallingford CT, 2016.
 
 ******************************************
 Gaussian 16:  ES64L-G16RevA.03 25-Dec-2016
                11-Feb-2020 
 ******************************************
 %chk=checkpoint.chk
 %mem=3GB
 %nprocshared=4
 Will use up to    4 processors via shared memory.
 -------------------------------------------------------------------
 #t pop=none jul-cc-pvdz guess=read ub97d3 empiricaldispersion=gd3bj
 -------------------------------------------------------------------
 ------------------------------
 theory_abbreviation b97d3_d3bj
 ------------------------------
 Symbolic Z-matrix:
 Charge =  0 Multiplicity = 6
 O                    -0.38924  -0.21182  -0.55362 
 C                    -1.43573  -1.19373  -0.36048 
 C                    -2.76262  -0.13957  -0.22584 
 C                    -1.96597   1.14419  -0.2618 
 C                    -1.86511   1.90464  -1.52878 
 Fe                    1.3774    0.03484   0.02733 
 Cl                    1.81832   2.02739  -0.83663 
 C                    -1.57662   1.8324    0.99028 
 Cl                    2.52394  -1.67665  -0.72232 
 Cl                    1.34345   0.14849   2.24058 
 H                    -3.33787  -0.22753  -1.15175 
 H                    -2.45141   2.42272   1.30987 
 H                    -1.32905   1.14057   1.79579 
 H                    -0.74286   2.5184    0.82618 
 H                    -2.65042   2.67866  -1.5048 
 H                    -0.89742   2.40964  -1.60098 
 H                    -2.03062   1.27328  -2.40277 
 C                    -3.67479  -0.34497   0.97697 
 H                    -4.47015   0.40899   1.00282 
 H                    -4.15511  -1.32558   0.9088 
 H                    -3.13579  -0.30354   1.92615 
 C                    -1.19743  -2.02065   0.88807 
 H                    -2.01753  -2.72625   1.05471 
 H                    -0.27483  -2.59731   0.75516 
 H                    -1.06963  -1.39903   1.77622 
 C                    -1.5422   -2.04654  -1.61064 
 H                    -0.6057   -2.59855  -1.74666 
 H                    -2.36592  -2.76465  -1.52938 
 H                    -1.69852  -1.42255  -2.49552 
 
                    Distance matrix (angstroms):
                    1          2          3          4          5
     1  O    0.000000
     2  C    1.447960   0.000000
     3  C    2.396995   1.699999   0.000000
     4  C    2.100000   2.399321   1.511285   0.000000
     5  C    2.758356   3.339036   2.584949   1.481111   0.000000
     6  Fe   1.875993   3.094100   4.151415   3.534456   4.053578
     7  Cl   3.157133   4.603388   5.104291   3.928273   3.749904
     8  C    2.823526   3.316894   2.602725   1.480851   2.536553
     9  Cl   3.265089   4.005389   5.527821   5.322455   5.721868
    10  Cl   3.307500   4.036193   4.798541   4.266802   5.252332
    11  H    3.008730   2.275476   1.093602   2.134421   2.618653
    12  H    3.829608   4.110997   3.003428   2.083372   2.944505
    13  H    2.869133   3.179593   2.789425   2.153923   3.453108
    14  H    3.079442   3.958292   3.500139   2.137326   2.679926
    15  H    3.791117   4.216671   3.096891   2.090002   1.102907
    16  H    2.868319   3.848746   3.445057   2.129917   1.093917
    17  H    2.884271   3.257451   2.696477   2.145828   1.090805
    18  C    3.627020   2.742725   1.523487   2.583066   3.822891
    19  H    4.411544   3.692556   2.173981   2.900119   3.928384
    20  H    4.190570   3.003907   2.152452   3.501768   4.649751
    21  H    3.701512   2.985177   2.190251   2.872546   4.292693
    22  C    2.450207   1.516399   2.688697   3.453854   4.657777
    23  H    3.400062   2.165615   2.980924   4.088546   5.304982
    24  H    2.723335   2.135973   3.632071   4.230012   5.292723
    25  H    2.701950   2.177528   2.908724   3.380077   4.740256
    26  C    2.410979   1.517083   2.653985   3.489947   3.965200
    27  H    2.677069   2.141029   3.607186   4.250090   4.681058
    28  H    3.372886   2.167811   2.957639   4.128652   4.696073
    29  H    2.636492   2.163293   2.815987   3.413092   3.468795
                    6          7          8          9         10
     6  Fe   0.000000
     7  Cl   2.216106   0.000000
     8  C    3.589528   3.860213   0.000000
     9  Cl   2.192197   3.772391   5.662243   0.000000
    10  Cl   2.216421   3.636620   3.595222   3.674701   0.000000
    11  H    4.867532   5.636517   3.454503   6.053529   5.793451
    12  H    4.691120   4.795238   1.102663   6.759340   4.520980
    13  H    3.416862   4.197859   1.090307   5.396585   2.885187
    14  H    3.361799   3.092837   1.092104   5.537890   3.459719
    15  H    5.055747   4.565114   2.845105   6.808455   6.031638
    16  H    3.669588   2.847031   2.740280   5.401437   4.989176
    17  H    4.365057   4.223245   3.468642   5.680673   5.848946
    18  C    5.154674   6.252320   3.023804   6.563932   5.198356
    19  H    5.940148   6.748898   3.224704   7.499552   5.949607
    20  H    5.765095   7.069000   4.077744   6.884291   5.846418
    21  H    4.908042   6.132650   2.805186   6.397840   4.512958
    22  C    3.405238   5.334418   3.873011   4.069430   3.604235
    23  H    4.494958   6.394377   4.580372   4.988428   4.578925
    24  H    3.191833   5.320054   4.623012   3.296006   3.516349
    25  H    3.332047   5.187257   3.364053   4.385602   2.904034
    26  C    3.941971   5.337521   4.670343   4.178446   5.289327
    27  H    3.743588   5.301262   5.297811   3.419620   5.219527
    28  H    4.926760   6.399338   5.301368   5.074039   6.038078
    29  H    4.236751   5.198292   4.770778   4.586721   5.844004
                   11         12         13         14         15
    11  H    0.000000
    12  H    3.724142   0.000000
    13  H    3.820354   1.771920   0.000000
    14  H    4.264559   1.778274   1.783863   0.000000
    15  H    3.007188   2.833284   3.873714   3.016285   0.000000
    16  H    3.621088   3.299713   3.651698   2.434509   1.776131
    17  H    2.350831   3.909216   4.258842   3.692528   1.779210
    18  C    2.158421   3.044267   2.894787   4.100955   4.043619
    19  H    2.515829   2.867869   3.321223   4.286431   3.840696
    20  H    2.473752   4.136802   3.854249   5.140661   4.911561
    21  H    3.085462   2.877608   2.316628   3.859970   4.571703
    22  C    3.457985   4.636151   3.291598   4.562174   5.469969
    23  H    3.585444   5.173511   3.996939   5.402161   6.013713
    24  H    4.316756   5.499623   4.020703   5.137563   6.211821
    25  H    3.884626   4.090540   2.552892   4.044204   5.467314
    26  C    2.596888   5.415747   4.669786   5.236001   4.854576
    27  H    3.666120   6.161344   5.201273   5.729003   5.664658
    28  H    2.743039   5.914172   5.232842   6.007796   5.450798
    29  H    2.433363   5.462045   5.012133   5.241954   4.325227
                   16         17         18         19         20
    16  H    0.000000
    17  H    1.793963   0.000000
    18  C    4.684814   4.092030   0.000000
    19  H    4.852498   4.277423   1.096231   0.000000
    20  H    5.555478   4.715296   1.094048   1.765451   0.000000
    21  H    4.981189   4.737857   1.092319   1.772212   1.765943
    22  C    5.090466   4.730100   2.992179   4.077626   3.038326
    23  H    5.889373   5.286837   2.902252   3.980930   2.559772
    24  H    5.568531   5.294978   4.084356   5.167193   4.086253
    25  H    5.093238   5.052591   2.921758   3.928179   3.205924
    26  C    4.502597   3.447793   3.760192   4.629549   3.700631
    27  H    5.018792   4.177557   4.681469   5.615955   4.611970
    28  H    5.379119   4.144899   3.721530   4.572942   3.349153
    29  H    4.015925   2.717798   4.138241   4.824402   4.199240
                   21         22         23         24         25
    21  H    0.000000
    22  C    2.789864   0.000000
    23  H    2.807037   1.094624   0.000000
    24  H    3.849378   1.096078   1.772949   0.000000
    25  H    2.343415   1.091581   1.783419   1.763561   0.000000
    26  C    4.252818   2.522514   2.791423   2.739809   3.480427
    27  H    5.015774   2.761507   3.139630   2.523603   3.750300
    28  H    4.311661   2.786209   2.607752   3.101575   3.804238
    29  H    4.782162   3.472391   3.795465   3.738162   4.317845
                   26         27         28         29
    26  C    0.000000
    27  H    1.095558   0.000000
    28  H    1.095816   1.781350   0.000000
    29  H    1.093991   1.771448   1.783282   0.000000
 Framework group  C1[X(C8H16Cl3FeO)]
 Deg. of freedom    81
                         Standard orientation:                         
 ---------------------------------------------------------------------
 Center     Atomic      Atomic             Coordinates (Angstroms)
 Number     Number       Type             X           Y           Z
 ---------------------------------------------------------------------
      1          8           0       -0.389238   -0.211819   -0.553617
      2          6           0       -1.435730   -1.193725   -0.360476
      3          6           0       -2.762617   -0.139570   -0.225843
      4          6           0       -1.965970    1.144191   -0.261804
      5          6           0       -1.865107    1.904638   -1.528783
      6         26           0        1.377399    0.034838    0.027333
      7         17           0        1.818320    2.027395   -0.836630
      8          6           0       -1.576622    1.832395    0.990276
      9         17           0        2.523941   -1.676651   -0.722315
     10         17           0        1.343450    0.148487    2.240578
     11          1           0       -3.337872   -0.227533   -1.151753
     12          1           0       -2.451406    2.422715    1.309872
     13          1           0       -1.329047    1.140571    1.795792
     14          1           0       -0.742855    2.518396    0.826181
     15          1           0       -2.650423    2.678659   -1.504801
     16          1           0       -0.897420    2.409637   -1.600981
     17          1           0       -2.030617    1.273283   -2.402770
     18          6           0       -3.674788   -0.344969    0.976974
     19          1           0       -4.470147    0.408992    1.002820
     20          1           0       -4.155106   -1.325576    0.908801
     21          1           0       -3.135791   -0.303537    1.926146
     22          6           0       -1.197428   -2.020653    0.888070
     23          1           0       -2.017526   -2.726252    1.054714
     24          1           0       -0.274830   -2.597311    0.755158
     25          1           0       -1.069633   -1.399031    1.776216
     26          6           0       -1.542196   -2.046544   -1.610638
     27          1           0       -0.605695   -2.598551   -1.746661
     28          1           0       -2.365924   -2.764654   -1.529375
     29          1           0       -1.698521   -1.422554   -2.495520
 ---------------------------------------------------------------------
 Rotational constants (GHZ):           0.5728380           0.3618288           0.3233087
   427 basis functions,  1056 primitive gaussians,   461 cartesian basis functions
    77 alpha electrons       72 beta electrons
       nuclear repulsion energy      1659.4725971550 Hartrees.
 NAtoms=   29 NActive=   29 NUniq=   29 SFac= 1.00D+00 NAtFMM=   60 NAOKFM=F Big=F
 Nuclear repulsion after empirical dispersion term =     1659.3721446504 Hartrees.
 Initial guess from the checkpoint file:  "checkpoint.chk"
 B after Tr=     0.000000    0.000000    0.000000
         Rot=    1.000000    0.000000    0.000000    0.000000 Ang=   0.00 deg.
 Initial guess <Sx>= 0.0000 <Sy>= 0.0000 <Sz>= 2.5000 <S**2>= 8.7622 S= 2.5020
 SCF Done:  E(UB97D3) =  -3034.61511812     A.U. after   15 cycles
            NFock= 15  Conv=0.92D-08     -V/T= 2.0020
 <Sx>= 0.0000 <Sy>= 0.0000 <Sz>= 2.5000 <S**2>= 8.7606 S= 2.5018
 <L.S>= 0.000000000000E+00
 Annihilation of the first spin contaminant:
 S**2 before annihilation     8.7606,   after     8.7500
 1\1\GINC-HOLY7C04309\SP\UB97D3\Jul-CC-pVDZ\C8H16Cl3Fe1O1(6)\EKWAN\11-F
 eb-2020\0\\#t pop=none jul-cc-pvdz guess=read ub97d3 empiricaldispersi
 on=gd3bj\\theory_abbreviation b97d3_d3bj\\0,6\O,0,-0.389238,-0.211819,
 -0.553617\C,0,-1.43573,-1.193725,-0.360476\C,0,-2.762617,-0.13957,-0.2
 25843\C,0,-1.96597,1.144191,-0.261804\C,0,-1.865107,1.904638,-1.528783
 \Fe,0,1.377399,0.034838,0.027333\Cl,0,1.81832,2.027395,-0.83663\C,0,-1
 .576622,1.832395,0.990276\Cl,0,2.523941,-1.676652,-0.722315\Cl,0,1.343
 45,0.148487,2.240578\H,0,-3.337872,-0.227533,-1.151753\H,0,-2.451406,2
 .422715,1.309872\H,0,-1.329047,1.140571,1.795792\H,0,-0.742855,2.51839
 6,0.826181\H,0,-2.650423,2.678659,-1.504801\H,0,-0.89742,2.409637,-1.6
 00981\H,0,-2.030617,1.273283,-2.40277\C,0,-3.674788,-0.344969,0.976974
 \H,0,-4.470147,0.408993,1.00282\H,0,-4.155106,-1.325575,0.908801\H,0,-
 3.135791,-0.303537,1.926146\C,0,-1.197428,-2.020653,0.88807\H,0,-2.017
 526,-2.726252,1.054714\H,0,-0.27483,-2.597311,0.755158\H,0,-1.069633,-
 1.399031,1.776216\C,0,-1.542196,-2.046544,-1.610638\H,0,-0.605695,-2.5
 98551,-1.746661\H,0,-2.365924,-2.764654,-1.529375\H,0,-1.698521,-1.422
 554,-2.49552\\Version=ES64L-G16RevA.03\HF=-3034.6151181\S2=8.760586\S2
 -1=0.\S2A=8.750035\RMSD=9.185e-09\PG=C01 [X(C8H16Cl3Fe1O1)]\\@


 FESTINA LENTE!
     - IMPERATOR AUGUSTUS 
 Job cpu time:       0 days  0 hours 49 minutes  0.5 seconds.
 Elapsed time:       0 days  0 hours 12 minutes 17.3 seconds.
 File lengths (MBytes):  RWF=    174 Int=      0 D2E=      0 Chk=     13 Scr=      1
 Normal termination of Gaussian 16 at Tue Feb 11 23:22:10 2020.
