 Entering Gaussian System, Link 0=g16
 Input=simple-grid-290-275-b3lyp_d3bj-631gd-gas-singlepoint-DFT-juldz2-gas.gjf
 Output=simple-grid-290-275-b3lyp_d3bj-631gd-gas-singlepoint-DFT-juldz2-gas.out
 Initial command:
 /n/sw/g16_nehalem/g16/l1.exe "/scratch/Gau-190007.inp" -scrdir="/scratch/"
 Entering Link 1 = /n/sw/g16_nehalem/g16/l1.exe PID=    190009.
  
 Copyright (c) 1988,1990,1992,1993,1995,1998,2003,2009,2016,
            Gaussian, Inc.  All Rights Reserved.
  
 This is part of the Gaussian(R) 16 program.  It is based on
 the Gaussian(R) 09 system (copyright 2009, Gaussian, Inc.),
 the Gaussian(R) 03 system (copyright 2003, Gaussian, Inc.),
 the Gaussian(R) 98 system (copyright 1998, Gaussian, Inc.),
 the Gaussian(R) 94 system (copyright 1995, Gaussian, Inc.),
 the Gaussian 92(TM) system (copyright 1992, Gaussian, Inc.),
 the Gaussian 90(TM) system (copyright 1990, Gaussian, Inc.),
 the Gaussian 88(TM) system (copyright 1988, Gaussian, Inc.),
 the Gaussian 86(TM) system (copyright 1986, Carnegie Mellon
 University), and the Gaussian 82(TM) system (copyright 1983,
 Carnegie Mellon University). Gaussian is a federally registered
 trademark of Gaussian, Inc.
  
 This software contains proprietary and confidential information,
 including trade secrets, belonging to Gaussian, Inc.
  
 This software is provided under written license and may be
 used, copied, transmitted, or stored only in accord with that
 written license.
  
 The following legend is applicable only to US Government
 contracts under FAR:
  
                    RESTRICTED RIGHTS LEGEND
  
 Use, reproduction and disclosure by the US Government is
 subject to restrictions as set forth in subparagraphs (a)
 and (c) of the Commercial Computer Software - Restricted
 Rights clause in FAR 52.227-19.
  
 Gaussian, Inc.
 340 Quinnipiac St., Bldg. 40, Wallingford CT 06492
  
  
 ---------------------------------------------------------------
 Warning -- This program may not be used in any manner that
 competes with the business of Gaussian, Inc. or will provide
 assistance to any competitor of Gaussian, Inc.  The licensee
 of this program is prohibited from giving any competitor of
 Gaussian, Inc. access to this program.  By using this program,
 the user acknowledges that Gaussian, Inc. is engaged in the
 business of creating and licensing software in the field of
 computational chemistry and represents and warrants to the
 licensee that it is not a competitor of Gaussian, Inc. and that
 it will not use this program in any manner prohibited above.
 ---------------------------------------------------------------
  

 Cite this work as:
 Gaussian 16, Revision A.03,
 M. J. Frisch, G. W. Trucks, H. B. Schlegel, G. E. Scuseria, 
 M. A. Robb, J. R. Cheeseman, G. Scalmani, V. Barone, 
 G. A. Petersson, H. Nakatsuji, X. Li, M. Caricato, A. V. Marenich, 
 J. Bloino, B. G. Janesko, R. Gomperts, B. Mennucci, H. P. Hratchian, 
 J. V. Ortiz, A. F. Izmaylov, J. L. Sonnenberg, D. Williams-Young, 
 F. Ding, F. Lipparini, F. Egidi, J. Goings, B. Peng, A. Petrone, 
 T. Henderson, D. Ranasinghe, V. G. Zakrzewski, J. Gao, N. Rega, 
 G. Zheng, W. Liang, M. Hada, M. Ehara, K. Toyota, R. Fukuda, 
 J. Hasegawa, M. Ishida, T. Nakajima, Y. Honda, O. Kitao, H. Nakai, 
 T. Vreven, K. Throssell, J. A. Montgomery, Jr., J. E. Peralta, 
 F. Ogliaro, M. J. Bearpark, J. J. Heyd, E. N. Brothers, K. N. Kudin, 
 V. N. Staroverov, T. A. Keith, R. Kobayashi, J. Normand, 
 K. Raghavachari, A. P. Rendell, J. C. Burant, S. S. Iyengar, 
 J. Tomasi, M. Cossi, J. M. Millam, M. Klene, C. Adamo, R. Cammi, 
 J. W. Ochterski, R. L. Martin, K. Morokuma, O. Farkas, 
 J. B. Foresman, and D. J. Fox, Gaussian, Inc., Wallingford CT, 2016.
 
 ******************************************
 Gaussian 16:  ES64L-G16RevA.03 25-Dec-2016
                12-Feb-2020 
 ******************************************
 %chk=checkpoint.chk
 %mem=3GB
 %nprocshared=4
 Will use up to    4 processors via shared memory.
 --------------------------------
 #t pop=none jul-cc-pvdz upbe1pbe
 --------------------------------
 ------------------------
 theory_abbreviation pbe0
 ------------------------
 Symbolic Z-matrix:
 Charge =  0 Multiplicity = 6
 O                     0.23769   0.39994  -0.81991 
 C                     0.94414   1.40918  -0.61396 
 C                     3.21801  -0.04085   0.45232 
 C                     2.5676   -0.95982  -0.28594 
 C                     2.86106  -1.13516  -1.75268 
 Fe                   -1.46525  -0.16235   0.03758 
 Cl                   -2.0877   -1.93169  -1.05749 
 C                     1.62099  -1.98242   0.27604 
 Cl                   -2.66513   1.6333   -0.32699 
 Cl                   -1.10898  -0.47371   2.17694 
 H                     3.9517    0.58396  -0.05947 
 H                     2.12017  -2.96092   0.30556 
 H                     1.27372  -1.75589   1.284 
 H                     0.74713  -2.10935  -0.37246 
 H                     3.26455  -2.13937  -1.93828 
 H                     1.94162  -1.05817  -2.34681 
 H                     3.5897   -0.40773  -2.12326 
 C                     3.13698   0.15475   1.94088 
 H                     4.00063  -0.30728   2.4388 
 H                     3.15957   1.21844   2.20572 
 H                     2.23506  -0.28132   2.37825 
 C                     0.83294   2.19349   0.65355 
 H                     1.70787   2.8238    0.8194 
 H                    -0.0508    2.84047   0.54955 
 H                     0.65814   1.54014   1.50957 
 C                     1.73724   1.97927  -1.74652 
 H                     1.19164   2.86793  -2.09656 
 H                     2.72385   2.31042  -1.41593 
 H                     1.81747   1.27154  -2.56977 
 
                    Distance matrix (angstroms):
                    1          2          3          4          5
     1  O    0.000000
     2  C    1.249022   0.000000
     3  C    3.270351   2.900000   0.000000
     4  C    2.750010   2.890564   1.346320   0.000000
     5  C    3.179410   3.383033   2.487360   1.506053   0.000000
     6  Fe   1.987822   2.949463   4.703154   4.123644   4.782079
     7  Cl   3.301566   4.533226   5.831414   4.817843   5.060429
     8  C    2.964836   3.571153   2.520172   1.502527   2.524144
     9  Cl   3.192253   3.627589   6.166150   5.840150   6.343158
    10  Cl   3.399693   3.943310   4.678089   4.451884   5.624999
    11  H    3.795526   3.167624   1.091151   2.085735   2.647988
    12  H    4.013202   4.618038   3.123074   2.134112   2.849324
    13  H    3.185497   3.705197   2.722739   2.184611   3.482289
    14  H    2.599282   3.532301   3.326289   2.154760   2.706056
    15  H    4.106186   4.441886   3.181344   2.146469   1.098042
    16  H    2.713095   3.175773   3.240252   2.156086   1.097395
    17  H    3.686058   3.546564   2.628000   2.173768   1.094262
    18  C    4.010981   3.592953   1.503540   2.554442   3.922037
    19  H    5.027840   4.648412   2.151653   3.147004   4.421829
    20  H    4.285064   3.590969   2.159543   3.362084   4.614917
    21  H    3.831696   3.671183   2.175600   2.769272   4.264450
    22  C    2.396299   1.494689   3.274345   3.719552   4.580736
    23  H    3.274731   2.153819   3.259053   4.034432   4.859912
    24  H    2.813337   2.095772   4.358501   4.690015   5.439192
    25  H    2.627416   2.146696   3.189082   3.622111   4.759448
    26  C    2.366758   1.495560   3.332933   3.385419   3.310997
    27  H    2.937830   2.094596   4.366228   4.452336   4.350855
    28  H    3.191583   2.150064   3.043515   3.463491   3.464715
    29  H    2.513447   2.146358   3.580069   3.279872   2.747531
                    6          7          8          9         10
     6  Fe   0.000000
     7  Cl   2.171907   0.000000
     8  C    3.590871   3.941478   0.000000
     9  Cl   2.190200   3.684580   5.639844   0.000000
    10  Cl   2.191062   3.680374   3.652718   3.623645   0.000000
    11  H    5.468974   6.618072   3.482971   6.704854   5.632996
    12  H    4.556206   4.541305   1.098869   6.663785   4.485048
    13  H    3.405124   4.100324   1.089908   5.440258   2.849311
    14  H    2.975490   2.921834   1.095572   5.064876   3.552446
    15  H    5.493965   5.428220   2.762091   7.210437   6.231955
    16  H    4.253768   4.319817   2.799349   5.704892   5.487447
    17  H    5.502899   5.974209   3.480245   6.820206   6.369747
    18  C    4.990346   6.375006   3.104419   6.402639   4.298700
    19  H    5.971829   7.206291   3.625795   7.473144   5.119024
    20  H    5.291154   6.935825   4.041834   6.365046   4.591807
    21  H    4.380091   5.763191   2.773115   5.915741   3.355614
    22  C    3.348290   5.336185   4.266353   3.675833   3.633969
    23  H    4.426847   6.367392   4.837611   4.674895   4.544351
    24  H    3.358530   5.431856   5.111746   3.010042   3.840829
    25  H    3.094184   5.116932   3.854493   3.798122   2.761104
    26  C    4.245637   5.513665   4.449633   4.638488   5.432458
    27  H    4.560285   5.905087   5.416590   4.419317   5.892561
    28  H    5.076989   6.424562   4.744208   5.539441   5.945646
    29  H    4.430638   5.272384   4.327295   5.025398   5.843056
                   11         12         13         14         15
    11  H    0.000000
    12  H    4.006730   0.000000
    13  H    3.801493   1.768025   0.000000
    14  H    4.197753   1.752176   1.773718   0.000000
    15  H    3.379148   2.649412   3.807041   2.964816   0.000000
    16  H    3.459611   3.269159   3.757081   2.535716   1.756713
    17  H    2.318133   3.818045   4.334825   3.747135   1.771588
    18  C    2.202133   3.662720   2.748406   4.023558   4.508564
    19  H    2.652938   3.889556   3.296679   4.662181   4.801799
    20  H    2.482158   4.707225   3.640414   4.851909   5.334666
    21  H    3.104520   3.389617   2.072662   3.622437   4.810895
    22  C    3.581293   5.324094   4.023597   4.424305   5.603932
    23  H    3.289987   5.822104   4.623615   5.165214   5.887365
    24  H    4.634942   6.199090   4.839448   5.097793   6.479174
    25  H    3.771432   4.883308   3.360599   4.107153   5.676256
    26  C    3.113976   5.363126   4.832212   4.425514   4.396896
    27  H    4.121185   6.372426   5.728403   5.286154   5.421723
    28  H    2.515597   5.578075   5.091887   4.952839   4.512853
    29  H    3.365901   5.125706   4.930772   4.171839   3.758610
                   16         17         18         19         20
    16  H    0.000000
    17  H    1.785831   0.000000
    18  C    4.613491   4.127783   0.000000
    19  H    5.263598   4.581641   1.098774   0.000000
    20  H    5.233721   4.644300   1.096401   1.757712   0.000000
    21  H    4.797481   4.702625   1.093115   1.766801   1.770242
    22  C    4.561210   4.698593   3.335009   4.413082   2.961950
    23  H    5.014891   4.758493   3.228601   4.205099   2.570302
    24  H    5.249575   5.563087   4.394403   5.467328   3.959833
    25  H    4.823917   5.058231   2.872280   3.930488   2.616347
    26  C    3.102930   3.044884   4.345691   5.279033   4.268726
    27  H    4.004915   4.059719   5.238952   6.208216   5.010304
    28  H    3.581314   2.939104   4.010701   4.831300   3.807697
    29  H    2.343646   2.481954   4.830556   5.687239   4.960777
                   21         22         23         24         25
    21  H    0.000000
    22  C    3.326445   0.000000
    23  H    3.514211   1.091009   0.000000
    24  H    4.279585   1.100172   1.779327   0.000000
    25  H    2.561060   1.090954   1.796119   1.764954   0.000000
    26  C    4.729886   2.573708   2.701479   3.034907   3.458231
    27  H    5.570500   2.854236   2.961632   2.923411   3.879667
    28  H    4.620803   2.805705   2.508475   3.441329   3.663199
    29  H    5.202758   3.494152   3.729337   3.960068   4.249375
                   26         27         28         29
    26  C    0.000000
    27  H    1.099964   0.000000
    28  H    1.091953   1.766851   0.000000
    29  H    1.088608   1.778775   1.797817   0.000000
 Framework group  C1[X(C8H16Cl3FeO)]
 Deg. of freedom    81
                         Standard orientation:                         
 ---------------------------------------------------------------------
 Center     Atomic      Atomic             Coordinates (Angstroms)
 Number     Number       Type             X           Y           Z
 ---------------------------------------------------------------------
      1          8           0        0.237686    0.399938   -0.819913
      2          6           0        0.944139    1.409177   -0.613958
      3          6           0        3.218010   -0.040845    0.452319
      4          6           0        2.567596   -0.959821   -0.285938
      5          6           0        2.861056   -1.135160   -1.752680
      6         26           0       -1.465246   -0.162350    0.037579
      7         17           0       -2.087702   -1.931685   -1.057492
      8          6           0        1.620988   -1.982419    0.276035
      9         17           0       -2.665130    1.633295   -0.326994
     10         17           0       -1.108977   -0.473714    2.176943
     11          1           0        3.951697    0.583963   -0.059471
     12          1           0        2.120174   -2.960915    0.305562
     13          1           0        1.273723   -1.755886    1.283998
     14          1           0        0.747131   -2.109348   -0.372456
     15          1           0        3.264554   -2.139370   -1.938283
     16          1           0        1.941622   -1.058168   -2.346809
     17          1           0        3.589696   -0.407727   -2.123265
     18          6           0        3.136977    0.154750    1.940878
     19          1           0        4.000635   -0.307277    2.438804
     20          1           0        3.159567    1.218444    2.205716
     21          1           0        2.235063   -0.281316    2.378254
     22          6           0        0.832935    2.193491    0.653551
     23          1           0        1.707871    2.823795    0.819397
     24          1           0       -0.050796    2.840471    0.549554
     25          1           0        0.658136    1.540142    1.509566
     26          6           0        1.737236    1.979273   -1.746516
     27          1           0        1.191639    2.867930   -2.096563
     28          1           0        2.723853    2.310420   -1.415927
     29          1           0        1.817471    1.271543   -2.569770
 ---------------------------------------------------------------------
 Rotational constants (GHZ):           0.5633571           0.3236022           0.3049509
   427 basis functions,  1056 primitive gaussians,   461 cartesian basis functions
    77 alpha electrons       72 beta electrons
       nuclear repulsion energy      1622.6944152783 Hartrees.
 NAtoms=   29 NActive=   29 NUniq=   29 SFac= 1.00D+00 NAtFMM=   60 NAOKFM=F Big=F
 ExpMin= 1.40D-02 ExpMax= 4.32D+06 ExpMxC= 4.91D+03 IAcc=3 IRadAn=         5 AccDes= 0.00D+00
 Harris functional with IExCor= 1009 and IRadAn=       5 diagonalized for initial guess.
 HarFok:  IExCor= 1009 AccDes= 0.00D+00 IRadAn=         5 IDoV= 1 UseB2=F ITyADJ=14
 ICtDFT=  3500011 ScaDFX=  1.000000  1.000000  1.000000  1.000000
 FoFCou: FMM=F IPFlag=           0 FMFlag=      100000 FMFlg1=           0
         NFxFlg=           0 DoJE=T BraDBF=F KetDBF=T FulRan=T
         wScrn=  0.000000 ICntrl=       500 IOpCl=  0 I1Cent=   200000004 NGrid=           0
         NMat0=    1 NMatS0=      1 NMatT0=    0 NMatD0=    1 NMtDS0=    0 NMtDT0=    0
 Petite list used in FoFCou.
 Initial guess <Sx>= 0.0000 <Sy>= 0.0000 <Sz>= 2.5000 <S**2>= 8.7500 S= 2.5000
 EnCoef did     3 forward-backward iterations
 SCF Done:  E(UPBE1PBE) =  -3033.13638403     A.U. after   20 cycles
            NFock= 20  Conv=0.95D-08     -V/T= 2.0021
 <Sx>= 0.0000 <Sy>= 0.0000 <Sz>= 2.5000 <S**2>= 8.7630 S= 2.5022
 <L.S>= 0.000000000000E+00
 Annihilation of the first spin contaminant:
 S**2 before annihilation     8.7630,   after     8.7501
 1\1\GINC-HOLY7C16301\SP\UPBE1PBE\Jul-CC-pVDZ\C8H16Cl3Fe1O1(6)\EKWAN\12
 -Feb-2020\0\\#t pop=none jul-cc-pvdz upbe1pbe\\theory_abbreviation pbe
 0\\0,6\O,0,0.237686,0.399938,-0.819913\C,0,0.944139,1.409177,-0.613958
 \C,0,3.21801,-0.040845,0.452319\C,0,2.567596,-0.959821,-0.285938\C,0,2
 .861056,-1.13516,-1.75268\Fe,0,-1.465246,-0.16235,0.037579\Cl,0,-2.087
 702,-1.931685,-1.057492\C,0,1.620988,-1.982419,0.276035\Cl,0,-2.66513,
 1.633295,-0.326994\Cl,0,-1.108977,-0.473714,2.176943\H,0,3.951697,0.58
 3963,-0.059471\H,0,2.120174,-2.960915,0.305562\H,0,1.273723,-1.755886,
 1.283998\H,0,0.747131,-2.109348,-0.372456\H,0,3.264554,-2.13937,-1.938
 283\H,0,1.941622,-1.058168,-2.346809\H,0,3.589696,-0.407727,-2.123265\
 C,0,3.136977,0.15475,1.940878\H,0,4.000635,-0.307277,2.438804\H,0,3.15
 9567,1.218444,2.205716\H,0,2.235063,-0.281316,2.378254\C,0,0.832935,2.
 193491,0.653551\H,0,1.707871,2.823795,0.819397\H,0,-0.050796,2.840471,
 0.549554\H,0,0.658136,1.540142,1.509566\C,0,1.737236,1.979273,-1.74651
 6\H,0,1.191639,2.86793,-2.096563\H,0,2.723853,2.31042,-1.415927\H,0,1.
 817471,1.271543,-2.56977\\Version=ES64L-G16RevA.03\HF=-3033.136384\S2=
 8.762967\S2-1=0.\S2A=8.750052\RMSD=9.521e-09\PG=C01 [X(C8H16Cl3Fe1O1)]
 \\@


 TIMES HAVE CHANGED. IN THE BIBLE WHEN AN ASS
 SPOKE IT WAS CONSIDERED A MIRACLE.
 Job cpu time:       0 days  1 hours 19 minutes 35.8 seconds.
 Elapsed time:       0 days  0 hours 19 minutes 57.6 seconds.
 File lengths (MBytes):  RWF=    173 Int=      0 D2E=      0 Chk=     13 Scr=      1
 Normal termination of Gaussian 16 at Wed Feb 12 14:10:50 2020.
 Initial command:
 /n/sw/g16_nehalem/g16/l1.exe "/scratch/Gau-190007.inp" -scrdir="/scratch/"
 Entering Link 1 = /n/sw/g16_nehalem/g16/l1.exe PID=    191374.
  
 Copyright (c) 1988,1990,1992,1993,1995,1998,2003,2009,2016,
            Gaussian, Inc.  All Rights Reserved.
  
 This is part of the Gaussian(R) 16 program.  It is based on
 the Gaussian(R) 09 system (copyright 2009, Gaussian, Inc.),
 the Gaussian(R) 03 system (copyright 2003, Gaussian, Inc.),
 the Gaussian(R) 98 system (copyright 1998, Gaussian, Inc.),
 the Gaussian(R) 94 system (copyright 1995, Gaussian, Inc.),
 the Gaussian 92(TM) system (copyright 1992, Gaussian, Inc.),
 the Gaussian 90(TM) system (copyright 1990, Gaussian, Inc.),
 the Gaussian 88(TM) system (copyright 1988, Gaussian, Inc.),
 the Gaussian 86(TM) system (copyright 1986, Carnegie Mellon
 University), and the Gaussian 82(TM) system (copyright 1983,
 Carnegie Mellon University). Gaussian is a federally registered
 trademark of Gaussian, Inc.
  
 This software contains proprietary and confidential information,
 including trade secrets, belonging to Gaussian, Inc.
  
 This software is provided under written license and may be
 used, copied, transmitted, or stored only in accord with that
 written license.
  
 The following legend is applicable only to US Government
 contracts under FAR:
  
                    RESTRICTED RIGHTS LEGEND
  
 Use, reproduction and disclosure by the US Government is
 subject to restrictions as set forth in subparagraphs (a)
 and (c) of the Commercial Computer Software - Restricted
 Rights clause in FAR 52.227-19.
  
 Gaussian, Inc.
 340 Quinnipiac St., Bldg. 40, Wallingford CT 06492
  
  
 ---------------------------------------------------------------
 Warning -- This program may not be used in any manner that
 competes with the business of Gaussian, Inc. or will provide
 assistance to any competitor of Gaussian, Inc.  The licensee
 of this program is prohibited from giving any competitor of
 Gaussian, Inc. access to this program.  By using this program,
 the user acknowledges that Gaussian, Inc. is engaged in the
 business of creating and licensing software in the field of
 computational chemistry and represents and warrants to the
 licensee that it is not a competitor of Gaussian, Inc. and that
 it will not use this program in any manner prohibited above.
 ---------------------------------------------------------------
  

 Cite this work as:
 Gaussian 16, Revision A.03,
 M. J. Frisch, G. W. Trucks, H. B. Schlegel, G. E. Scuseria, 
 M. A. Robb, J. R. Cheeseman, G. Scalmani, V. Barone, 
 G. A. Petersson, H. Nakatsuji, X. Li, M. Caricato, A. V. Marenich, 
 J. Bloino, B. G. Janesko, R. Gomperts, B. Mennucci, H. P. Hratchian, 
 J. V. Ortiz, A. F. Izmaylov, J. L. Sonnenberg, D. Williams-Young, 
 F. Ding, F. Lipparini, F. Egidi, J. Goings, B. Peng, A. Petrone, 
 T. Henderson, D. Ranasinghe, V. G. Zakrzewski, J. Gao, N. Rega, 
 G. Zheng, W. Liang, M. Hada, M. Ehara, K. Toyota, R. Fukuda, 
 J. Hasegawa, M. Ishida, T. Nakajima, Y. Honda, O. Kitao, H. Nakai, 
 T. Vreven, K. Throssell, J. A. Montgomery, Jr., J. E. Peralta, 
 F. Ogliaro, M. J. Bearpark, J. J. Heyd, E. N. Brothers, K. N. Kudin, 
 V. N. Staroverov, T. A. Keith, R. Kobayashi, J. Normand, 
 K. Raghavachari, A. P. Rendell, J. C. Burant, S. S. Iyengar, 
 J. Tomasi, M. Cossi, J. M. Millam, M. Klene, C. Adamo, R. Cammi, 
 J. W. Ochterski, R. L. Martin, K. Morokuma, O. Farkas, 
 J. B. Foresman, and D. J. Fox, Gaussian, Inc., Wallingford CT, 2016.
 
 ******************************************
 Gaussian 16:  ES64L-G16RevA.03 25-Dec-2016
                12-Feb-2020 
 ******************************************
 %chk=checkpoint.chk
 %mem=3GB
 %nprocshared=4
 Will use up to    4 processors via shared memory.
 ---------------------------------------------------------------------
 #t pop=none jul-cc-pvdz guess=read upbe1pbe empiricaldispersion=gd3bj
 ---------------------------------------------------------------------
 -----------------------------
 theory_abbreviation pbe0_d3bj
 -----------------------------
 Symbolic Z-matrix:
 Charge =  0 Multiplicity = 6
 O                     0.23769   0.39994  -0.81991 
 C                     0.94414   1.40918  -0.61396 
 C                     3.21801  -0.04085   0.45232 
 C                     2.5676   -0.95982  -0.28594 
 C                     2.86106  -1.13516  -1.75268 
 Fe                   -1.46525  -0.16235   0.03758 
 Cl                   -2.0877   -1.93169  -1.05749 
 C                     1.62099  -1.98242   0.27604 
 Cl                   -2.66513   1.6333   -0.32699 
 Cl                   -1.10898  -0.47371   2.17694 
 H                     3.9517    0.58396  -0.05947 
 H                     2.12017  -2.96092   0.30556 
 H                     1.27372  -1.75589   1.284 
 H                     0.74713  -2.10935  -0.37246 
 H                     3.26455  -2.13937  -1.93828 
 H                     1.94162  -1.05817  -2.34681 
 H                     3.5897   -0.40773  -2.12326 
 C                     3.13698   0.15475   1.94088 
 H                     4.00063  -0.30728   2.4388 
 H                     3.15957   1.21844   2.20572 
 H                     2.23506  -0.28132   2.37825 
 C                     0.83294   2.19349   0.65355 
 H                     1.70787   2.8238    0.8194 
 H                    -0.0508    2.84047   0.54955 
 H                     0.65814   1.54014   1.50957 
 C                     1.73724   1.97927  -1.74652 
 H                     1.19164   2.86793  -2.09656 
 H                     2.72385   2.31042  -1.41593 
 H                     1.81747   1.27154  -2.56977 
 
                    Distance matrix (angstroms):
                    1          2          3          4          5
     1  O    0.000000
     2  C    1.249022   0.000000
     3  C    3.270351   2.900000   0.000000
     4  C    2.750010   2.890564   1.346320   0.000000
     5  C    3.179410   3.383033   2.487360   1.506053   0.000000
     6  Fe   1.987822   2.949463   4.703154   4.123644   4.782079
     7  Cl   3.301566   4.533226   5.831414   4.817843   5.060429
     8  C    2.964836   3.571153   2.520172   1.502527   2.524144
     9  Cl   3.192253   3.627589   6.166150   5.840150   6.343158
    10  Cl   3.399693   3.943310   4.678089   4.451884   5.624999
    11  H    3.795526   3.167624   1.091151   2.085735   2.647988
    12  H    4.013202   4.618038   3.123074   2.134112   2.849324
    13  H    3.185497   3.705197   2.722739   2.184611   3.482289
    14  H    2.599282   3.532301   3.326289   2.154760   2.706056
    15  H    4.106186   4.441886   3.181344   2.146469   1.098042
    16  H    2.713095   3.175773   3.240252   2.156086   1.097395
    17  H    3.686058   3.546564   2.628000   2.173768   1.094262
    18  C    4.010981   3.592953   1.503540   2.554442   3.922037
    19  H    5.027840   4.648412   2.151653   3.147004   4.421829
    20  H    4.285064   3.590969   2.159543   3.362084   4.614917
    21  H    3.831696   3.671183   2.175600   2.769272   4.264450
    22  C    2.396299   1.494689   3.274345   3.719552   4.580736
    23  H    3.274731   2.153819   3.259053   4.034432   4.859912
    24  H    2.813337   2.095772   4.358501   4.690015   5.439192
    25  H    2.627416   2.146696   3.189082   3.622111   4.759448
    26  C    2.366758   1.495560   3.332933   3.385419   3.310997
    27  H    2.937830   2.094596   4.366228   4.452336   4.350855
    28  H    3.191583   2.150064   3.043515   3.463491   3.464715
    29  H    2.513447   2.146358   3.580069   3.279872   2.747531
                    6          7          8          9         10
     6  Fe   0.000000
     7  Cl   2.171907   0.000000
     8  C    3.590871   3.941478   0.000000
     9  Cl   2.190200   3.684580   5.639844   0.000000
    10  Cl   2.191062   3.680374   3.652718   3.623645   0.000000
    11  H    5.468974   6.618072   3.482971   6.704854   5.632996
    12  H    4.556206   4.541305   1.098869   6.663785   4.485048
    13  H    3.405124   4.100324   1.089908   5.440258   2.849311
    14  H    2.975490   2.921834   1.095572   5.064876   3.552446
    15  H    5.493965   5.428220   2.762091   7.210437   6.231955
    16  H    4.253768   4.319817   2.799349   5.704892   5.487447
    17  H    5.502899   5.974209   3.480245   6.820206   6.369747
    18  C    4.990346   6.375006   3.104419   6.402639   4.298700
    19  H    5.971829   7.206291   3.625795   7.473144   5.119024
    20  H    5.291154   6.935825   4.041834   6.365046   4.591807
    21  H    4.380091   5.763191   2.773115   5.915741   3.355614
    22  C    3.348290   5.336185   4.266353   3.675833   3.633969
    23  H    4.426847   6.367392   4.837611   4.674895   4.544351
    24  H    3.358530   5.431856   5.111746   3.010042   3.840829
    25  H    3.094184   5.116932   3.854493   3.798122   2.761104
    26  C    4.245637   5.513665   4.449633   4.638488   5.432458
    27  H    4.560285   5.905087   5.416590   4.419317   5.892561
    28  H    5.076989   6.424562   4.744208   5.539441   5.945646
    29  H    4.430638   5.272384   4.327295   5.025398   5.843056
                   11         12         13         14         15
    11  H    0.000000
    12  H    4.006730   0.000000
    13  H    3.801493   1.768025   0.000000
    14  H    4.197753   1.752176   1.773718   0.000000
    15  H    3.379148   2.649412   3.807041   2.964816   0.000000
    16  H    3.459611   3.269159   3.757081   2.535716   1.756713
    17  H    2.318133   3.818045   4.334825   3.747135   1.771588
    18  C    2.202133   3.662720   2.748406   4.023558   4.508564
    19  H    2.652938   3.889556   3.296679   4.662181   4.801799
    20  H    2.482158   4.707225   3.640414   4.851909   5.334666
    21  H    3.104520   3.389617   2.072662   3.622437   4.810895
    22  C    3.581293   5.324094   4.023597   4.424305   5.603932
    23  H    3.289987   5.822104   4.623615   5.165214   5.887365
    24  H    4.634942   6.199090   4.839448   5.097793   6.479174
    25  H    3.771432   4.883308   3.360599   4.107153   5.676256
    26  C    3.113976   5.363126   4.832212   4.425514   4.396896
    27  H    4.121185   6.372426   5.728403   5.286154   5.421723
    28  H    2.515597   5.578075   5.091887   4.952839   4.512853
    29  H    3.365901   5.125706   4.930772   4.171839   3.758610
                   16         17         18         19         20
    16  H    0.000000
    17  H    1.785831   0.000000
    18  C    4.613491   4.127783   0.000000
    19  H    5.263598   4.581641   1.098774   0.000000
    20  H    5.233721   4.644300   1.096401   1.757712   0.000000
    21  H    4.797481   4.702625   1.093115   1.766801   1.770242
    22  C    4.561210   4.698593   3.335009   4.413082   2.961950
    23  H    5.014891   4.758493   3.228601   4.205099   2.570302
    24  H    5.249575   5.563087   4.394403   5.467328   3.959833
    25  H    4.823917   5.058231   2.872280   3.930488   2.616347
    26  C    3.102930   3.044884   4.345691   5.279033   4.268726
    27  H    4.004915   4.059719   5.238952   6.208216   5.010304
    28  H    3.581314   2.939104   4.010701   4.831300   3.807697
    29  H    2.343646   2.481954   4.830556   5.687239   4.960777
                   21         22         23         24         25
    21  H    0.000000
    22  C    3.326445   0.000000
    23  H    3.514211   1.091009   0.000000
    24  H    4.279585   1.100172   1.779327   0.000000
    25  H    2.561060   1.090954   1.796119   1.764954   0.000000
    26  C    4.729886   2.573708   2.701479   3.034907   3.458231
    27  H    5.570500   2.854236   2.961632   2.923411   3.879667
    28  H    4.620803   2.805705   2.508475   3.441329   3.663199
    29  H    5.202758   3.494152   3.729337   3.960068   4.249375
                   26         27         28         29
    26  C    0.000000
    27  H    1.099964   0.000000
    28  H    1.091953   1.766851   0.000000
    29  H    1.088608   1.778775   1.797817   0.000000
 Framework group  C1[X(C8H16Cl3FeO)]
 Deg. of freedom    81
                         Standard orientation:                         
 ---------------------------------------------------------------------
 Center     Atomic      Atomic             Coordinates (Angstroms)
 Number     Number       Type             X           Y           Z
 ---------------------------------------------------------------------
      1          8           0        0.237686    0.399938   -0.819913
      2          6           0        0.944139    1.409177   -0.613958
      3          6           0        3.218010   -0.040845    0.452319
      4          6           0        2.567596   -0.959821   -0.285938
      5          6           0        2.861056   -1.135160   -1.752680
      6         26           0       -1.465246   -0.162350    0.037579
      7         17           0       -2.087702   -1.931685   -1.057492
      8          6           0        1.620988   -1.982419    0.276035
      9         17           0       -2.665130    1.633295   -0.326994
     10         17           0       -1.108977   -0.473714    2.176943
     11          1           0        3.951697    0.583963   -0.059471
     12          1           0        2.120174   -2.960915    0.305562
     13          1           0        1.273723   -1.755886    1.283998
     14          1           0        0.747131   -2.109348   -0.372456
     15          1           0        3.264554   -2.139370   -1.938283
     16          1           0        1.941622   -1.058168   -2.346809
     17          1           0        3.589696   -0.407727   -2.123265
     18          6           0        3.136977    0.154750    1.940878
     19          1           0        4.000635   -0.307277    2.438804
     20          1           0        3.159567    1.218444    2.205716
     21          1           0        2.235063   -0.281316    2.378254
     22          6           0        0.832935    2.193491    0.653551
     23          1           0        1.707871    2.823795    0.819397
     24          1           0       -0.050796    2.840471    0.549554
     25          1           0        0.658136    1.540142    1.509566
     26          6           0        1.737236    1.979273   -1.746516
     27          1           0        1.191639    2.867930   -2.096563
     28          1           0        2.723853    2.310420   -1.415927
     29          1           0        1.817471    1.271543   -2.569770
 ---------------------------------------------------------------------
 Rotational constants (GHZ):           0.5633571           0.3236022           0.3049509
   427 basis functions,  1056 primitive gaussians,   461 cartesian basis functions
    77 alpha electrons       72 beta electrons
       nuclear repulsion energy      1622.6944152783 Hartrees.
 NAtoms=   29 NActive=   29 NUniq=   29 SFac= 1.00D+00 NAtFMM=   60 NAOKFM=F Big=F
 Nuclear repulsion after empirical dispersion term =     1622.6581346399 Hartrees.
 Initial guess from the checkpoint file:  "checkpoint.chk"
 B after Tr=     0.000000    0.000000    0.000000
         Rot=    1.000000    0.000000    0.000000    0.000000 Ang=   0.00 deg.
 Initial guess <Sx>= 0.0000 <Sy>= 0.0000 <Sz>= 2.5000 <S**2>= 8.7630 S= 2.5022
 SCF Done:  E(UPBE1PBE) =  -3033.17266467     A.U. after    1 cycles
            NFock=  1  Conv=0.44D-08     -V/T= 2.0021
 <Sx>= 0.0000 <Sy>= 0.0000 <Sz>= 2.5000 <S**2>= 8.7630 S= 2.5022
 <L.S>= 0.000000000000E+00
 Annihilation of the first spin contaminant:
 S**2 before annihilation     8.7630,   after     8.7501
 1\1\GINC-HOLY7C16301\SP\UPBE1PBE\Jul-CC-pVDZ\C8H16Cl3Fe1O1(6)\EKWAN\12
 -Feb-2020\0\\#t pop=none jul-cc-pvdz guess=read upbe1pbe empiricaldisp
 ersion=gd3bj\\theory_abbreviation pbe0_d3bj\\0,6\O,0,0.237686,0.399938
 ,-0.819913\C,0,0.944139,1.409177,-0.613958\C,0,3.21801,-0.040845,0.452
 319\C,0,2.567596,-0.959821,-0.285938\C,0,2.861056,-1.13516,-1.75268\Fe
 ,0,-1.465246,-0.16235,0.037579\Cl,0,-2.087702,-1.931685,-1.057492\C,0,
 1.620988,-1.982419,0.276035\Cl,0,-2.66513,1.633295,-0.326994\Cl,0,-1.1
 08977,-0.473714,2.176943\H,0,3.951697,0.583963,-0.059471\H,0,2.120174,
 -2.960915,0.305562\H,0,1.273723,-1.755886,1.283998\H,0,0.747131,-2.109
 348,-0.372456\H,0,3.264554,-2.13937,-1.938283\H,0,1.941622,-1.058168,-
 2.346809\H,0,3.589696,-0.407727,-2.123265\C,0,3.136977,0.15475,1.94087
 8\H,0,4.000635,-0.307277,2.438804\H,0,3.159567,1.218444,2.205716\H,0,2
 .235063,-0.281316,2.378254\C,0,0.832935,2.193491,0.653551\H,0,1.707871
 ,2.823795,0.819397\H,0,-0.050796,2.840471,0.549554\H,0,0.658136,1.5401
 42,1.509566\C,0,1.737236,1.979273,-1.746516\H,0,1.191639,2.86793,-2.09
 6563\H,0,2.723853,2.31042,-1.415927\H,0,1.817471,1.271543,-2.56977\\Ve
 rsion=ES64L-G16RevA.03\HF=-3033.1726647\S2=8.762967\S2-1=0.\S2A=8.7500
 52\RMSD=4.387e-09\PG=C01 [X(C8H16Cl3Fe1O1)]\\@


 ... THE UNIVERSE IS NOT ONLY QUEERER THAN WE SUPPOSE,
 BUT QUEERER THAN WE CAN SUPPOSE ... 

                                   -- J. B. S. HALDANE
 Job cpu time:       0 days  0 hours  4 minutes 18.2 seconds.
 Elapsed time:       0 days  0 hours  1 minutes  4.9 seconds.
 File lengths (MBytes):  RWF=    170 Int=      0 D2E=      0 Chk=     13 Scr=      1
 Normal termination of Gaussian 16 at Wed Feb 12 14:11:56 2020.
 Initial command:
 /n/sw/g16_nehalem/g16/l1.exe "/scratch/Gau-190007.inp" -scrdir="/scratch/"
 Entering Link 1 = /n/sw/g16_nehalem/g16/l1.exe PID=    191483.
  
 Copyright (c) 1988,1990,1992,1993,1995,1998,2003,2009,2016,
            Gaussian, Inc.  All Rights Reserved.
  
 This is part of the Gaussian(R) 16 program.  It is based on
 the Gaussian(R) 09 system (copyright 2009, Gaussian, Inc.),
 the Gaussian(R) 03 system (copyright 2003, Gaussian, Inc.),
 the Gaussian(R) 98 system (copyright 1998, Gaussian, Inc.),
 the Gaussian(R) 94 system (copyright 1995, Gaussian, Inc.),
 the Gaussian 92(TM) system (copyright 1992, Gaussian, Inc.),
 the Gaussian 90(TM) system (copyright 1990, Gaussian, Inc.),
 the Gaussian 88(TM) system (copyright 1988, Gaussian, Inc.),
 the Gaussian 86(TM) system (copyright 1986, Carnegie Mellon
 University), and the Gaussian 82(TM) system (copyright 1983,
 Carnegie Mellon University). Gaussian is a federally registered
 trademark of Gaussian, Inc.
  
 This software contains proprietary and confidential information,
 including trade secrets, belonging to Gaussian, Inc.
  
 This software is provided under written license and may be
 used, copied, transmitted, or stored only in accord with that
 written license.
  
 The following legend is applicable only to US Government
 contracts under FAR:
  
                    RESTRICTED RIGHTS LEGEND
  
 Use, reproduction and disclosure by the US Government is
 subject to restrictions as set forth in subparagraphs (a)
 and (c) of the Commercial Computer Software - Restricted
 Rights clause in FAR 52.227-19.
  
 Gaussian, Inc.
 340 Quinnipiac St., Bldg. 40, Wallingford CT 06492
  
  
 ---------------------------------------------------------------
 Warning -- This program may not be used in any manner that
 competes with the business of Gaussian, Inc. or will provide
 assistance to any competitor of Gaussian, Inc.  The licensee
 of this program is prohibited from giving any competitor of
 Gaussian, Inc. access to this program.  By using this program,
 the user acknowledges that Gaussian, Inc. is engaged in the
 business of creating and licensing software in the field of
 computational chemistry and represents and warrants to the
 licensee that it is not a competitor of Gaussian, Inc. and that
 it will not use this program in any manner prohibited above.
 ---------------------------------------------------------------
  

 Cite this work as:
 Gaussian 16, Revision A.03,
 M. J. Frisch, G. W. Trucks, H. B. Schlegel, G. E. Scuseria, 
 M. A. Robb, J. R. Cheeseman, G. Scalmani, V. Barone, 
 G. A. Petersson, H. Nakatsuji, X. Li, M. Caricato, A. V. Marenich, 
 J. Bloino, B. G. Janesko, R. Gomperts, B. Mennucci, H. P. Hratchian, 
 J. V. Ortiz, A. F. Izmaylov, J. L. Sonnenberg, D. Williams-Young, 
 F. Ding, F. Lipparini, F. Egidi, J. Goings, B. Peng, A. Petrone, 
 T. Henderson, D. Ranasinghe, V. G. Zakrzewski, J. Gao, N. Rega, 
 G. Zheng, W. Liang, M. Hada, M. Ehara, K. Toyota, R. Fukuda, 
 J. Hasegawa, M. Ishida, T. Nakajima, Y. Honda, O. Kitao, H. Nakai, 
 T. Vreven, K. Throssell, J. A. Montgomery, Jr., J. E. Peralta, 
 F. Ogliaro, M. J. Bearpark, J. J. Heyd, E. N. Brothers, K. N. Kudin, 
 V. N. Staroverov, T. A. Keith, R. Kobayashi, J. Normand, 
 K. Raghavachari, A. P. Rendell, J. C. Burant, S. S. Iyengar, 
 J. Tomasi, M. Cossi, J. M. Millam, M. Klene, C. Adamo, R. Cammi, 
 J. W. Ochterski, R. L. Martin, K. Morokuma, O. Farkas, 
 J. B. Foresman, and D. J. Fox, Gaussian, Inc., Wallingford CT, 2016.
 
 ******************************************
 Gaussian 16:  ES64L-G16RevA.03 25-Dec-2016
                12-Feb-2020 
 ******************************************
 %chk=checkpoint.chk
 %mem=3GB
 %nprocshared=4
 Will use up to    4 processors via shared memory.
 -----------------------------------------
 #t pop=none jul-cc-pvdz guess=read ub3lyp
 -----------------------------------------
 -------------------------
 theory_abbreviation b3lyp
 -------------------------
 Symbolic Z-matrix:
 Charge =  0 Multiplicity = 6
 O                     0.23769   0.39994  -0.81991 
 C                     0.94414   1.40918  -0.61396 
 C                     3.21801  -0.04085   0.45232 
 C                     2.5676   -0.95982  -0.28594 
 C                     2.86106  -1.13516  -1.75268 
 Fe                   -1.46525  -0.16235   0.03758 
 Cl                   -2.0877   -1.93169  -1.05749 
 C                     1.62099  -1.98242   0.27604 
 Cl                   -2.66513   1.6333   -0.32699 
 Cl                   -1.10898  -0.47371   2.17694 
 H                     3.9517    0.58396  -0.05947 
 H                     2.12017  -2.96092   0.30556 
 H                     1.27372  -1.75589   1.284 
 H                     0.74713  -2.10935  -0.37246 
 H                     3.26455  -2.13937  -1.93828 
 H                     1.94162  -1.05817  -2.34681 
 H                     3.5897   -0.40773  -2.12326 
 C                     3.13698   0.15475   1.94088 
 H                     4.00063  -0.30728   2.4388 
 H                     3.15957   1.21844   2.20572 
 H                     2.23506  -0.28132   2.37825 
 C                     0.83294   2.19349   0.65355 
 H                     1.70787   2.8238    0.8194 
 H                    -0.0508    2.84047   0.54955 
 H                     0.65814   1.54014   1.50957 
 C                     1.73724   1.97927  -1.74652 
 H                     1.19164   2.86793  -2.09656 
 H                     2.72385   2.31042  -1.41593 
 H                     1.81747   1.27154  -2.56977 
 
                    Distance matrix (angstroms):
                    1          2          3          4          5
     1  O    0.000000
     2  C    1.249022   0.000000
     3  C    3.270351   2.900000   0.000000
     4  C    2.750010   2.890564   1.346320   0.000000
     5  C    3.179410   3.383033   2.487360   1.506053   0.000000
     6  Fe   1.987822   2.949463   4.703154   4.123644   4.782079
     7  Cl   3.301566   4.533226   5.831414   4.817843   5.060429
     8  C    2.964836   3.571153   2.520172   1.502527   2.524144
     9  Cl   3.192253   3.627589   6.166150   5.840150   6.343158
    10  Cl   3.399693   3.943310   4.678089   4.451884   5.624999
    11  H    3.795526   3.167624   1.091151   2.085735   2.647988
    12  H    4.013202   4.618038   3.123074   2.134112   2.849324
    13  H    3.185497   3.705197   2.722739   2.184611   3.482289
    14  H    2.599282   3.532301   3.326289   2.154760   2.706056
    15  H    4.106186   4.441886   3.181344   2.146469   1.098042
    16  H    2.713095   3.175773   3.240252   2.156086   1.097395
    17  H    3.686058   3.546564   2.628000   2.173768   1.094262
    18  C    4.010981   3.592953   1.503540   2.554442   3.922037
    19  H    5.027840   4.648412   2.151653   3.147004   4.421829
    20  H    4.285064   3.590969   2.159543   3.362084   4.614917
    21  H    3.831696   3.671183   2.175600   2.769272   4.264450
    22  C    2.396299   1.494689   3.274345   3.719552   4.580736
    23  H    3.274731   2.153819   3.259053   4.034432   4.859912
    24  H    2.813337   2.095772   4.358501   4.690015   5.439192
    25  H    2.627416   2.146696   3.189082   3.622111   4.759448
    26  C    2.366758   1.495560   3.332933   3.385419   3.310997
    27  H    2.937830   2.094596   4.366228   4.452336   4.350855
    28  H    3.191583   2.150064   3.043515   3.463491   3.464715
    29  H    2.513447   2.146358   3.580069   3.279872   2.747531
                    6          7          8          9         10
     6  Fe   0.000000
     7  Cl   2.171907   0.000000
     8  C    3.590871   3.941478   0.000000
     9  Cl   2.190200   3.684580   5.639844   0.000000
    10  Cl   2.191062   3.680374   3.652718   3.623645   0.000000
    11  H    5.468974   6.618072   3.482971   6.704854   5.632996
    12  H    4.556206   4.541305   1.098869   6.663785   4.485048
    13  H    3.405124   4.100324   1.089908   5.440258   2.849311
    14  H    2.975490   2.921834   1.095572   5.064876   3.552446
    15  H    5.493965   5.428220   2.762091   7.210437   6.231955
    16  H    4.253768   4.319817   2.799349   5.704892   5.487447
    17  H    5.502899   5.974209   3.480245   6.820206   6.369747
    18  C    4.990346   6.375006   3.104419   6.402639   4.298700
    19  H    5.971829   7.206291   3.625795   7.473144   5.119024
    20  H    5.291154   6.935825   4.041834   6.365046   4.591807
    21  H    4.380091   5.763191   2.773115   5.915741   3.355614
    22  C    3.348290   5.336185   4.266353   3.675833   3.633969
    23  H    4.426847   6.367392   4.837611   4.674895   4.544351
    24  H    3.358530   5.431856   5.111746   3.010042   3.840829
    25  H    3.094184   5.116932   3.854493   3.798122   2.761104
    26  C    4.245637   5.513665   4.449633   4.638488   5.432458
    27  H    4.560285   5.905087   5.416590   4.419317   5.892561
    28  H    5.076989   6.424562   4.744208   5.539441   5.945646
    29  H    4.430638   5.272384   4.327295   5.025398   5.843056
                   11         12         13         14         15
    11  H    0.000000
    12  H    4.006730   0.000000
    13  H    3.801493   1.768025   0.000000
    14  H    4.197753   1.752176   1.773718   0.000000
    15  H    3.379148   2.649412   3.807041   2.964816   0.000000
    16  H    3.459611   3.269159   3.757081   2.535716   1.756713
    17  H    2.318133   3.818045   4.334825   3.747135   1.771588
    18  C    2.202133   3.662720   2.748406   4.023558   4.508564
    19  H    2.652938   3.889556   3.296679   4.662181   4.801799
    20  H    2.482158   4.707225   3.640414   4.851909   5.334666
    21  H    3.104520   3.389617   2.072662   3.622437   4.810895
    22  C    3.581293   5.324094   4.023597   4.424305   5.603932
    23  H    3.289987   5.822104   4.623615   5.165214   5.887365
    24  H    4.634942   6.199090   4.839448   5.097793   6.479174
    25  H    3.771432   4.883308   3.360599   4.107153   5.676256
    26  C    3.113976   5.363126   4.832212   4.425514   4.396896
    27  H    4.121185   6.372426   5.728403   5.286154   5.421723
    28  H    2.515597   5.578075   5.091887   4.952839   4.512853
    29  H    3.365901   5.125706   4.930772   4.171839   3.758610
                   16         17         18         19         20
    16  H    0.000000
    17  H    1.785831   0.000000
    18  C    4.613491   4.127783   0.000000
    19  H    5.263598   4.581641   1.098774   0.000000
    20  H    5.233721   4.644300   1.096401   1.757712   0.000000
    21  H    4.797481   4.702625   1.093115   1.766801   1.770242
    22  C    4.561210   4.698593   3.335009   4.413082   2.961950
    23  H    5.014891   4.758493   3.228601   4.205099   2.570302
    24  H    5.249575   5.563087   4.394403   5.467328   3.959833
    25  H    4.823917   5.058231   2.872280   3.930488   2.616347
    26  C    3.102930   3.044884   4.345691   5.279033   4.268726
    27  H    4.004915   4.059719   5.238952   6.208216   5.010304
    28  H    3.581314   2.939104   4.010701   4.831300   3.807697
    29  H    2.343646   2.481954   4.830556   5.687239   4.960777
                   21         22         23         24         25
    21  H    0.000000
    22  C    3.326445   0.000000
    23  H    3.514211   1.091009   0.000000
    24  H    4.279585   1.100172   1.779327   0.000000
    25  H    2.561060   1.090954   1.796119   1.764954   0.000000
    26  C    4.729886   2.573708   2.701479   3.034907   3.458231
    27  H    5.570500   2.854236   2.961632   2.923411   3.879667
    28  H    4.620803   2.805705   2.508475   3.441329   3.663199
    29  H    5.202758   3.494152   3.729337   3.960068   4.249375
                   26         27         28         29
    26  C    0.000000
    27  H    1.099964   0.000000
    28  H    1.091953   1.766851   0.000000
    29  H    1.088608   1.778775   1.797817   0.000000
 Framework group  C1[X(C8H16Cl3FeO)]
 Deg. of freedom    81
                         Standard orientation:                         
 ---------------------------------------------------------------------
 Center     Atomic      Atomic             Coordinates (Angstroms)
 Number     Number       Type             X           Y           Z
 ---------------------------------------------------------------------
      1          8           0        0.237686    0.399938   -0.819913
      2          6           0        0.944139    1.409177   -0.613958
      3          6           0        3.218010   -0.040845    0.452319
      4          6           0        2.567596   -0.959821   -0.285938
      5          6           0        2.861056   -1.135160   -1.752680
      6         26           0       -1.465246   -0.162350    0.037579
      7         17           0       -2.087702   -1.931685   -1.057492
      8          6           0        1.620988   -1.982419    0.276035
      9         17           0       -2.665130    1.633295   -0.326994
     10         17           0       -1.108977   -0.473714    2.176943
     11          1           0        3.951697    0.583963   -0.059471
     12          1           0        2.120174   -2.960915    0.305562
     13          1           0        1.273723   -1.755886    1.283998
     14          1           0        0.747131   -2.109348   -0.372456
     15          1           0        3.264554   -2.139370   -1.938283
     16          1           0        1.941622   -1.058168   -2.346809
     17          1           0        3.589696   -0.407727   -2.123265
     18          6           0        3.136977    0.154750    1.940878
     19          1           0        4.000635   -0.307277    2.438804
     20          1           0        3.159567    1.218444    2.205716
     21          1           0        2.235063   -0.281316    2.378254
     22          6           0        0.832935    2.193491    0.653551
     23          1           0        1.707871    2.823795    0.819397
     24          1           0       -0.050796    2.840471    0.549554
     25          1           0        0.658136    1.540142    1.509566
     26          6           0        1.737236    1.979273   -1.746516
     27          1           0        1.191639    2.867930   -2.096563
     28          1           0        2.723853    2.310420   -1.415927
     29          1           0        1.817471    1.271543   -2.569770
 ---------------------------------------------------------------------
 Rotational constants (GHZ):           0.5633571           0.3236022           0.3049509
   427 basis functions,  1056 primitive gaussians,   461 cartesian basis functions
    77 alpha electrons       72 beta electrons
       nuclear repulsion energy      1622.6944152783 Hartrees.
 NAtoms=   29 NActive=   29 NUniq=   29 SFac= 1.00D+00 NAtFMM=   60 NAOKFM=F Big=F
 Initial guess from the checkpoint file:  "checkpoint.chk"
 B after Tr=     0.000000    0.000000    0.000000
         Rot=    1.000000    0.000000    0.000000    0.000000 Ang=   0.00 deg.
 Initial guess <Sx>= 0.0000 <Sy>= 0.0000 <Sz>= 2.5000 <S**2>= 8.7630 S= 2.5022
 SCF Done:  E(UB3LYP) =  -3034.35481309     A.U. after   13 cycles
            NFock= 13  Conv=0.91D-08     -V/T= 2.0024
 <Sx>= 0.0000 <Sy>= 0.0000 <Sz>= 2.5000 <S**2>= 8.7622 S= 2.5020
 <L.S>= 0.000000000000E+00
 Annihilation of the first spin contaminant:
 S**2 before annihilation     8.7622,   after     8.7500
 1\1\GINC-HOLY7C16301\SP\UB3LYP\Jul-CC-pVDZ\C8H16Cl3Fe1O1(6)\EKWAN\12-F
 eb-2020\0\\#t pop=none jul-cc-pvdz guess=read ub3lyp\\theory_abbreviat
 ion b3lyp\\0,6\O,0,0.237686,0.399938,-0.819913\C,0,0.944139,1.409177,-
 0.613958\C,0,3.21801,-0.040845,0.452319\C,0,2.567596,-0.959821,-0.2859
 38\C,0,2.861056,-1.13516,-1.75268\Fe,0,-1.465246,-0.16235,0.037579\Cl,
 0,-2.087702,-1.931685,-1.057492\C,0,1.620988,-1.982419,0.276035\Cl,0,-
 2.66513,1.633295,-0.326994\Cl,0,-1.108977,-0.473714,2.176943\H,0,3.951
 697,0.583963,-0.059471\H,0,2.120174,-2.960915,0.305562\H,0,1.273723,-1
 .755886,1.283998\H,0,0.747131,-2.109348,-0.372456\H,0,3.264554,-2.1393
 7,-1.938283\H,0,1.941622,-1.058168,-2.346809\H,0,3.589696,-0.407727,-2
 .123265\C,0,3.136977,0.15475,1.940878\H,0,4.000635,-0.307277,2.438804\
 H,0,3.159567,1.218444,2.205716\H,0,2.235063,-0.281316,2.378254\C,0,0.8
 32935,2.193491,0.653551\H,0,1.707871,2.823795,0.819397\H,0,-0.050796,2
 .840471,0.549554\H,0,0.658136,1.540142,1.509566\C,0,1.737236,1.979273,
 -1.746516\H,0,1.191639,2.86793,-2.096563\H,0,2.723853,2.31042,-1.41592
 7\H,0,1.817471,1.271543,-2.56977\\Version=ES64L-G16RevA.03\HF=-3034.35
 48131\S2=8.76224\S2-1=0.\S2A=8.750046\RMSD=9.050e-09\PG=C01 [X(C8H16Cl
 3Fe1O1)]\\@


 ALMOST ANYTHING IS EASIER TO GET INTO THAN OUT OF.

                         -- AGNES ALLEN'S LAW FROM
                PAUL DICKSON'S "THE OFFICIAL RULES"
 Job cpu time:       0 days  0 hours 50 minutes 51.5 seconds.
 Elapsed time:       0 days  0 hours 12 minutes 44.9 seconds.
 File lengths (MBytes):  RWF=    174 Int=      0 D2E=      0 Chk=     13 Scr=      1
 Normal termination of Gaussian 16 at Wed Feb 12 14:24:41 2020.
 Initial command:
 /n/sw/g16_nehalem/g16/l1.exe "/scratch/Gau-190007.inp" -scrdir="/scratch/"
 Entering Link 1 = /n/sw/g16_nehalem/g16/l1.exe PID=    192310.
  
 Copyright (c) 1988,1990,1992,1993,1995,1998,2003,2009,2016,
            Gaussian, Inc.  All Rights Reserved.
  
 This is part of the Gaussian(R) 16 program.  It is based on
 the Gaussian(R) 09 system (copyright 2009, Gaussian, Inc.),
 the Gaussian(R) 03 system (copyright 2003, Gaussian, Inc.),
 the Gaussian(R) 98 system (copyright 1998, Gaussian, Inc.),
 the Gaussian(R) 94 system (copyright 1995, Gaussian, Inc.),
 the Gaussian 92(TM) system (copyright 1992, Gaussian, Inc.),
 the Gaussian 90(TM) system (copyright 1990, Gaussian, Inc.),
 the Gaussian 88(TM) system (copyright 1988, Gaussian, Inc.),
 the Gaussian 86(TM) system (copyright 1986, Carnegie Mellon
 University), and the Gaussian 82(TM) system (copyright 1983,
 Carnegie Mellon University). Gaussian is a federally registered
 trademark of Gaussian, Inc.
  
 This software contains proprietary and confidential information,
 including trade secrets, belonging to Gaussian, Inc.
  
 This software is provided under written license and may be
 used, copied, transmitted, or stored only in accord with that
 written license.
  
 The following legend is applicable only to US Government
 contracts under FAR:
  
                    RESTRICTED RIGHTS LEGEND
  
 Use, reproduction and disclosure by the US Government is
 subject to restrictions as set forth in subparagraphs (a)
 and (c) of the Commercial Computer Software - Restricted
 Rights clause in FAR 52.227-19.
  
 Gaussian, Inc.
 340 Quinnipiac St., Bldg. 40, Wallingford CT 06492
  
  
 ---------------------------------------------------------------
 Warning -- This program may not be used in any manner that
 competes with the business of Gaussian, Inc. or will provide
 assistance to any competitor of Gaussian, Inc.  The licensee
 of this program is prohibited from giving any competitor of
 Gaussian, Inc. access to this program.  By using this program,
 the user acknowledges that Gaussian, Inc. is engaged in the
 business of creating and licensing software in the field of
 computational chemistry and represents and warrants to the
 licensee that it is not a competitor of Gaussian, Inc. and that
 it will not use this program in any manner prohibited above.
 ---------------------------------------------------------------
  

 Cite this work as:
 Gaussian 16, Revision A.03,
 M. J. Frisch, G. W. Trucks, H. B. Schlegel, G. E. Scuseria, 
 M. A. Robb, J. R. Cheeseman, G. Scalmani, V. Barone, 
 G. A. Petersson, H. Nakatsuji, X. Li, M. Caricato, A. V. Marenich, 
 J. Bloino, B. G. Janesko, R. Gomperts, B. Mennucci, H. P. Hratchian, 
 J. V. Ortiz, A. F. Izmaylov, J. L. Sonnenberg, D. Williams-Young, 
 F. Ding, F. Lipparini, F. Egidi, J. Goings, B. Peng, A. Petrone, 
 T. Henderson, D. Ranasinghe, V. G. Zakrzewski, J. Gao, N. Rega, 
 G. Zheng, W. Liang, M. Hada, M. Ehara, K. Toyota, R. Fukuda, 
 J. Hasegawa, M. Ishida, T. Nakajima, Y. Honda, O. Kitao, H. Nakai, 
 T. Vreven, K. Throssell, J. A. Montgomery, Jr., J. E. Peralta, 
 F. Ogliaro, M. J. Bearpark, J. J. Heyd, E. N. Brothers, K. N. Kudin, 
 V. N. Staroverov, T. A. Keith, R. Kobayashi, J. Normand, 
 K. Raghavachari, A. P. Rendell, J. C. Burant, S. S. Iyengar, 
 J. Tomasi, M. Cossi, J. M. Millam, M. Klene, C. Adamo, R. Cammi, 
 J. W. Ochterski, R. L. Martin, K. Morokuma, O. Farkas, 
 J. B. Foresman, and D. J. Fox, Gaussian, Inc., Wallingford CT, 2016.
 
 ******************************************
 Gaussian 16:  ES64L-G16RevA.03 25-Dec-2016
                12-Feb-2020 
 ******************************************
 %chk=checkpoint.chk
 %mem=3GB
 %nprocshared=4
 Will use up to    4 processors via shared memory.
 -------------------------------------------------------------------
 #t pop=none jul-cc-pvdz guess=read ub3lyp empiricaldispersion=gd3bj
 -------------------------------------------------------------------
 ------------------------------
 theory_abbreviation b3lyp_d3bj
 ------------------------------
 Symbolic Z-matrix:
 Charge =  0 Multiplicity = 6
 O                     0.23769   0.39994  -0.81991 
 C                     0.94414   1.40918  -0.61396 
 C                     3.21801  -0.04085   0.45232 
 C                     2.5676   -0.95982  -0.28594 
 C                     2.86106  -1.13516  -1.75268 
 Fe                   -1.46525  -0.16235   0.03758 
 Cl                   -2.0877   -1.93169  -1.05749 
 C                     1.62099  -1.98242   0.27604 
 Cl                   -2.66513   1.6333   -0.32699 
 Cl                   -1.10898  -0.47371   2.17694 
 H                     3.9517    0.58396  -0.05947 
 H                     2.12017  -2.96092   0.30556 
 H                     1.27372  -1.75589   1.284 
 H                     0.74713  -2.10935  -0.37246 
 H                     3.26455  -2.13937  -1.93828 
 H                     1.94162  -1.05817  -2.34681 
 H                     3.5897   -0.40773  -2.12326 
 C                     3.13698   0.15475   1.94088 
 H                     4.00063  -0.30728   2.4388 
 H                     3.15957   1.21844   2.20572 
 H                     2.23506  -0.28132   2.37825 
 C                     0.83294   2.19349   0.65355 
 H                     1.70787   2.8238    0.8194 
 H                    -0.0508    2.84047   0.54955 
 H                     0.65814   1.54014   1.50957 
 C                     1.73724   1.97927  -1.74652 
 H                     1.19164   2.86793  -2.09656 
 H                     2.72385   2.31042  -1.41593 
 H                     1.81747   1.27154  -2.56977 
 
                    Distance matrix (angstroms):
                    1          2          3          4          5
     1  O    0.000000
     2  C    1.249022   0.000000
     3  C    3.270351   2.900000   0.000000
     4  C    2.750010   2.890564   1.346320   0.000000
     5  C    3.179410   3.383033   2.487360   1.506053   0.000000
     6  Fe   1.987822   2.949463   4.703154   4.123644   4.782079
     7  Cl   3.301566   4.533226   5.831414   4.817843   5.060429
     8  C    2.964836   3.571153   2.520172   1.502527   2.524144
     9  Cl   3.192253   3.627589   6.166150   5.840150   6.343158
    10  Cl   3.399693   3.943310   4.678089   4.451884   5.624999
    11  H    3.795526   3.167624   1.091151   2.085735   2.647988
    12  H    4.013202   4.618038   3.123074   2.134112   2.849324
    13  H    3.185497   3.705197   2.722739   2.184611   3.482289
    14  H    2.599282   3.532301   3.326289   2.154760   2.706056
    15  H    4.106186   4.441886   3.181344   2.146469   1.098042
    16  H    2.713095   3.175773   3.240252   2.156086   1.097395
    17  H    3.686058   3.546564   2.628000   2.173768   1.094262
    18  C    4.010981   3.592953   1.503540   2.554442   3.922037
    19  H    5.027840   4.648412   2.151653   3.147004   4.421829
    20  H    4.285064   3.590969   2.159543   3.362084   4.614917
    21  H    3.831696   3.671183   2.175600   2.769272   4.264450
    22  C    2.396299   1.494689   3.274345   3.719552   4.580736
    23  H    3.274731   2.153819   3.259053   4.034432   4.859912
    24  H    2.813337   2.095772   4.358501   4.690015   5.439192
    25  H    2.627416   2.146696   3.189082   3.622111   4.759448
    26  C    2.366758   1.495560   3.332933   3.385419   3.310997
    27  H    2.937830   2.094596   4.366228   4.452336   4.350855
    28  H    3.191583   2.150064   3.043515   3.463491   3.464715
    29  H    2.513447   2.146358   3.580069   3.279872   2.747531
                    6          7          8          9         10
     6  Fe   0.000000
     7  Cl   2.171907   0.000000
     8  C    3.590871   3.941478   0.000000
     9  Cl   2.190200   3.684580   5.639844   0.000000
    10  Cl   2.191062   3.680374   3.652718   3.623645   0.000000
    11  H    5.468974   6.618072   3.482971   6.704854   5.632996
    12  H    4.556206   4.541305   1.098869   6.663785   4.485048
    13  H    3.405124   4.100324   1.089908   5.440258   2.849311
    14  H    2.975490   2.921834   1.095572   5.064876   3.552446
    15  H    5.493965   5.428220   2.762091   7.210437   6.231955
    16  H    4.253768   4.319817   2.799349   5.704892   5.487447
    17  H    5.502899   5.974209   3.480245   6.820206   6.369747
    18  C    4.990346   6.375006   3.104419   6.402639   4.298700
    19  H    5.971829   7.206291   3.625795   7.473144   5.119024
    20  H    5.291154   6.935825   4.041834   6.365046   4.591807
    21  H    4.380091   5.763191   2.773115   5.915741   3.355614
    22  C    3.348290   5.336185   4.266353   3.675833   3.633969
    23  H    4.426847   6.367392   4.837611   4.674895   4.544351
    24  H    3.358530   5.431856   5.111746   3.010042   3.840829
    25  H    3.094184   5.116932   3.854493   3.798122   2.761104
    26  C    4.245637   5.513665   4.449633   4.638488   5.432458
    27  H    4.560285   5.905087   5.416590   4.419317   5.892561
    28  H    5.076989   6.424562   4.744208   5.539441   5.945646
    29  H    4.430638   5.272384   4.327295   5.025398   5.843056
                   11         12         13         14         15
    11  H    0.000000
    12  H    4.006730   0.000000
    13  H    3.801493   1.768025   0.000000
    14  H    4.197753   1.752176   1.773718   0.000000
    15  H    3.379148   2.649412   3.807041   2.964816   0.000000
    16  H    3.459611   3.269159   3.757081   2.535716   1.756713
    17  H    2.318133   3.818045   4.334825   3.747135   1.771588
    18  C    2.202133   3.662720   2.748406   4.023558   4.508564
    19  H    2.652938   3.889556   3.296679   4.662181   4.801799
    20  H    2.482158   4.707225   3.640414   4.851909   5.334666
    21  H    3.104520   3.389617   2.072662   3.622437   4.810895
    22  C    3.581293   5.324094   4.023597   4.424305   5.603932
    23  H    3.289987   5.822104   4.623615   5.165214   5.887365
    24  H    4.634942   6.199090   4.839448   5.097793   6.479174
    25  H    3.771432   4.883308   3.360599   4.107153   5.676256
    26  C    3.113976   5.363126   4.832212   4.425514   4.396896
    27  H    4.121185   6.372426   5.728403   5.286154   5.421723
    28  H    2.515597   5.578075   5.091887   4.952839   4.512853
    29  H    3.365901   5.125706   4.930772   4.171839   3.758610
                   16         17         18         19         20
    16  H    0.000000
    17  H    1.785831   0.000000
    18  C    4.613491   4.127783   0.000000
    19  H    5.263598   4.581641   1.098774   0.000000
    20  H    5.233721   4.644300   1.096401   1.757712   0.000000
    21  H    4.797481   4.702625   1.093115   1.766801   1.770242
    22  C    4.561210   4.698593   3.335009   4.413082   2.961950
    23  H    5.014891   4.758493   3.228601   4.205099   2.570302
    24  H    5.249575   5.563087   4.394403   5.467328   3.959833
    25  H    4.823917   5.058231   2.872280   3.930488   2.616347
    26  C    3.102930   3.044884   4.345691   5.279033   4.268726
    27  H    4.004915   4.059719   5.238952   6.208216   5.010304
    28  H    3.581314   2.939104   4.010701   4.831300   3.807697
    29  H    2.343646   2.481954   4.830556   5.687239   4.960777
                   21         22         23         24         25
    21  H    0.000000
    22  C    3.326445   0.000000
    23  H    3.514211   1.091009   0.000000
    24  H    4.279585   1.100172   1.779327   0.000000
    25  H    2.561060   1.090954   1.796119   1.764954   0.000000
    26  C    4.729886   2.573708   2.701479   3.034907   3.458231
    27  H    5.570500   2.854236   2.961632   2.923411   3.879667
    28  H    4.620803   2.805705   2.508475   3.441329   3.663199
    29  H    5.202758   3.494152   3.729337   3.960068   4.249375
                   26         27         28         29
    26  C    0.000000
    27  H    1.099964   0.000000
    28  H    1.091953   1.766851   0.000000
    29  H    1.088608   1.778775   1.797817   0.000000
 Framework group  C1[X(C8H16Cl3FeO)]
 Deg. of freedom    81
                         Standard orientation:                         
 ---------------------------------------------------------------------
 Center     Atomic      Atomic             Coordinates (Angstroms)
 Number     Number       Type             X           Y           Z
 ---------------------------------------------------------------------
      1          8           0        0.237686    0.399938   -0.819913
      2          6           0        0.944139    1.409177   -0.613958
      3          6           0        3.218010   -0.040845    0.452319
      4          6           0        2.567596   -0.959821   -0.285938
      5          6           0        2.861056   -1.135160   -1.752680
      6         26           0       -1.465246   -0.162350    0.037579
      7         17           0       -2.087702   -1.931685   -1.057492
      8          6           0        1.620988   -1.982419    0.276035
      9         17           0       -2.665130    1.633295   -0.326994
     10         17           0       -1.108977   -0.473714    2.176943
     11          1           0        3.951697    0.583963   -0.059471
     12          1           0        2.120174   -2.960915    0.305562
     13          1           0        1.273723   -1.755886    1.283998
     14          1           0        0.747131   -2.109348   -0.372456
     15          1           0        3.264554   -2.139370   -1.938283
     16          1           0        1.941622   -1.058168   -2.346809
     17          1           0        3.589696   -0.407727   -2.123265
     18          6           0        3.136977    0.154750    1.940878
     19          1           0        4.000635   -0.307277    2.438804
     20          1           0        3.159567    1.218444    2.205716
     21          1           0        2.235063   -0.281316    2.378254
     22          6           0        0.832935    2.193491    0.653551
     23          1           0        1.707871    2.823795    0.819397
     24          1           0       -0.050796    2.840471    0.549554
     25          1           0        0.658136    1.540142    1.509566
     26          6           0        1.737236    1.979273   -1.746516
     27          1           0        1.191639    2.867930   -2.096563
     28          1           0        2.723853    2.310420   -1.415927
     29          1           0        1.817471    1.271543   -2.569770
 ---------------------------------------------------------------------
 Rotational constants (GHZ):           0.5633571           0.3236022           0.3049509
   427 basis functions,  1056 primitive gaussians,   461 cartesian basis functions
    77 alpha electrons       72 beta electrons
       nuclear repulsion energy      1622.6944152783 Hartrees.
 NAtoms=   29 NActive=   29 NUniq=   29 SFac= 1.00D+00 NAtFMM=   60 NAOKFM=F Big=F
 Nuclear repulsion after empirical dispersion term =     1622.6272852478 Hartrees.
 Initial guess from the checkpoint file:  "checkpoint.chk"
 B after Tr=     0.000000    0.000000    0.000000
         Rot=    1.000000    0.000000    0.000000    0.000000 Ang=   0.00 deg.
 Initial guess <Sx>= 0.0000 <Sy>= 0.0000 <Sz>= 2.5000 <S**2>= 8.7622 S= 2.5020
 SCF Done:  E(UB3LYP) =  -3034.42194312     A.U. after    1 cycles
            NFock=  1  Conv=0.81D-08     -V/T= 2.0024
 <Sx>= 0.0000 <Sy>= 0.0000 <Sz>= 2.5000 <S**2>= 8.7622 S= 2.5020
 <L.S>= 0.000000000000E+00
 Annihilation of the first spin contaminant:
 S**2 before annihilation     8.7622,   after     8.7500
 1\1\GINC-HOLY7C16301\SP\UB3LYP\Jul-CC-pVDZ\C8H16Cl3Fe1O1(6)\EKWAN\12-F
 eb-2020\0\\#t pop=none jul-cc-pvdz guess=read ub3lyp empiricaldispersi
 on=gd3bj\\theory_abbreviation b3lyp_d3bj\\0,6\O,0,0.237686,0.399938,-0
 .819913\C,0,0.944139,1.409177,-0.613958\C,0,3.21801,-0.040845,0.452319
 \C,0,2.567596,-0.959821,-0.285938\C,0,2.861056,-1.13516,-1.75268\Fe,0,
 -1.465246,-0.16235,0.037579\Cl,0,-2.087702,-1.931685,-1.057492\C,0,1.6
 20988,-1.982419,0.276035\Cl,0,-2.66513,1.633295,-0.326994\Cl,0,-1.1089
 77,-0.473714,2.176943\H,0,3.951697,0.583963,-0.059471\H,0,2.120174,-2.
 960915,0.305562\H,0,1.273723,-1.755886,1.283998\H,0,0.747131,-2.109348
 ,-0.372456\H,0,3.264554,-2.13937,-1.938283\H,0,1.941622,-1.058168,-2.3
 46809\H,0,3.589696,-0.407727,-2.123265\C,0,3.136977,0.15475,1.940878\H
 ,0,4.000635,-0.307277,2.438804\H,0,3.159567,1.218444,2.205716\H,0,2.23
 5063,-0.281316,2.378254\C,0,0.832935,2.193491,0.653551\H,0,1.707871,2.
 823795,0.819397\H,0,-0.050796,2.840471,0.549554\H,0,0.658136,1.540142,
 1.509566\C,0,1.737236,1.979273,-1.746516\H,0,1.191639,2.86793,-2.09656
 3\H,0,2.723853,2.31042,-1.415927\H,0,1.817471,1.271543,-2.56977\\Versi
 on=ES64L-G16RevA.03\HF=-3034.4219431\S2=8.76224\S2-1=0.\S2A=8.750046\R
 MSD=8.093e-09\PG=C01 [X(C8H16Cl3Fe1O1)]\\@


 Experience is what you get when you don't get what you want.
 -- Dan Stanford
 Job cpu time:       0 days  0 hours  4 minutes 18.1 seconds.
 Elapsed time:       0 days  0 hours  1 minutes  4.9 seconds.
 File lengths (MBytes):  RWF=    170 Int=      0 D2E=      0 Chk=     13 Scr=      1
 Normal termination of Gaussian 16 at Wed Feb 12 14:25:46 2020.
 Initial command:
 /n/sw/g16_nehalem/g16/l1.exe "/scratch/Gau-190007.inp" -scrdir="/scratch/"
 Entering Link 1 = /n/sw/g16_nehalem/g16/l1.exe PID=    192426.
  
 Copyright (c) 1988,1990,1992,1993,1995,1998,2003,2009,2016,
            Gaussian, Inc.  All Rights Reserved.
  
 This is part of the Gaussian(R) 16 program.  It is based on
 the Gaussian(R) 09 system (copyright 2009, Gaussian, Inc.),
 the Gaussian(R) 03 system (copyright 2003, Gaussian, Inc.),
 the Gaussian(R) 98 system (copyright 1998, Gaussian, Inc.),
 the Gaussian(R) 94 system (copyright 1995, Gaussian, Inc.),
 the Gaussian 92(TM) system (copyright 1992, Gaussian, Inc.),
 the Gaussian 90(TM) system (copyright 1990, Gaussian, Inc.),
 the Gaussian 88(TM) system (copyright 1988, Gaussian, Inc.),
 the Gaussian 86(TM) system (copyright 1986, Carnegie Mellon
 University), and the Gaussian 82(TM) system (copyright 1983,
 Carnegie Mellon University). Gaussian is a federally registered
 trademark of Gaussian, Inc.
  
 This software contains proprietary and confidential information,
 including trade secrets, belonging to Gaussian, Inc.
  
 This software is provided under written license and may be
 used, copied, transmitted, or stored only in accord with that
 written license.
  
 The following legend is applicable only to US Government
 contracts under FAR:
  
                    RESTRICTED RIGHTS LEGEND
  
 Use, reproduction and disclosure by the US Government is
 subject to restrictions as set forth in subparagraphs (a)
 and (c) of the Commercial Computer Software - Restricted
 Rights clause in FAR 52.227-19.
  
 Gaussian, Inc.
 340 Quinnipiac St., Bldg. 40, Wallingford CT 06492
  
  
 ---------------------------------------------------------------
 Warning -- This program may not be used in any manner that
 competes with the business of Gaussian, Inc. or will provide
 assistance to any competitor of Gaussian, Inc.  The licensee
 of this program is prohibited from giving any competitor of
 Gaussian, Inc. access to this program.  By using this program,
 the user acknowledges that Gaussian, Inc. is engaged in the
 business of creating and licensing software in the field of
 computational chemistry and represents and warrants to the
 licensee that it is not a competitor of Gaussian, Inc. and that
 it will not use this program in any manner prohibited above.
 ---------------------------------------------------------------
  

 Cite this work as:
 Gaussian 16, Revision A.03,
 M. J. Frisch, G. W. Trucks, H. B. Schlegel, G. E. Scuseria, 
 M. A. Robb, J. R. Cheeseman, G. Scalmani, V. Barone, 
 G. A. Petersson, H. Nakatsuji, X. Li, M. Caricato, A. V. Marenich, 
 J. Bloino, B. G. Janesko, R. Gomperts, B. Mennucci, H. P. Hratchian, 
 J. V. Ortiz, A. F. Izmaylov, J. L. Sonnenberg, D. Williams-Young, 
 F. Ding, F. Lipparini, F. Egidi, J. Goings, B. Peng, A. Petrone, 
 T. Henderson, D. Ranasinghe, V. G. Zakrzewski, J. Gao, N. Rega, 
 G. Zheng, W. Liang, M. Hada, M. Ehara, K. Toyota, R. Fukuda, 
 J. Hasegawa, M. Ishida, T. Nakajima, Y. Honda, O. Kitao, H. Nakai, 
 T. Vreven, K. Throssell, J. A. Montgomery, Jr., J. E. Peralta, 
 F. Ogliaro, M. J. Bearpark, J. J. Heyd, E. N. Brothers, K. N. Kudin, 
 V. N. Staroverov, T. A. Keith, R. Kobayashi, J. Normand, 
 K. Raghavachari, A. P. Rendell, J. C. Burant, S. S. Iyengar, 
 J. Tomasi, M. Cossi, J. M. Millam, M. Klene, C. Adamo, R. Cammi, 
 J. W. Ochterski, R. L. Martin, K. Morokuma, O. Farkas, 
 J. B. Foresman, and D. J. Fox, Gaussian, Inc., Wallingford CT, 2016.
 
 ******************************************
 Gaussian 16:  ES64L-G16RevA.03 25-Dec-2016
                12-Feb-2020 
 ******************************************
 %chk=checkpoint.chk
 %mem=3GB
 %nprocshared=4
 Will use up to    4 processors via shared memory.
 ----------------------------------------
 #t pop=none jul-cc-pvdz guess=read ub97d
 ----------------------------------------
 ------------------------
 theory_abbreviation b97d
 ------------------------
 Symbolic Z-matrix:
 Charge =  0 Multiplicity = 6
 O                     0.23769   0.39994  -0.81991 
 C                     0.94414   1.40918  -0.61396 
 C                     3.21801  -0.04085   0.45232 
 C                     2.5676   -0.95982  -0.28594 
 C                     2.86106  -1.13516  -1.75268 
 Fe                   -1.46525  -0.16235   0.03758 
 Cl                   -2.0877   -1.93169  -1.05749 
 C                     1.62099  -1.98242   0.27604 
 Cl                   -2.66513   1.6333   -0.32699 
 Cl                   -1.10898  -0.47371   2.17694 
 H                     3.9517    0.58396  -0.05947 
 H                     2.12017  -2.96092   0.30556 
 H                     1.27372  -1.75589   1.284 
 H                     0.74713  -2.10935  -0.37246 
 H                     3.26455  -2.13937  -1.93828 
 H                     1.94162  -1.05817  -2.34681 
 H                     3.5897   -0.40773  -2.12326 
 C                     3.13698   0.15475   1.94088 
 H                     4.00063  -0.30728   2.4388 
 H                     3.15957   1.21844   2.20572 
 H                     2.23506  -0.28132   2.37825 
 C                     0.83294   2.19349   0.65355 
 H                     1.70787   2.8238    0.8194 
 H                    -0.0508    2.84047   0.54955 
 H                     0.65814   1.54014   1.50957 
 C                     1.73724   1.97927  -1.74652 
 H                     1.19164   2.86793  -2.09656 
 H                     2.72385   2.31042  -1.41593 
 H                     1.81747   1.27154  -2.56977 
 
                    Distance matrix (angstroms):
                    1          2          3          4          5
     1  O    0.000000
     2  C    1.249022   0.000000
     3  C    3.270351   2.900000   0.000000
     4  C    2.750010   2.890564   1.346320   0.000000
     5  C    3.179410   3.383033   2.487360   1.506053   0.000000
     6  Fe   1.987822   2.949463   4.703154   4.123644   4.782079
     7  Cl   3.301566   4.533226   5.831414   4.817843   5.060429
     8  C    2.964836   3.571153   2.520172   1.502527   2.524144
     9  Cl   3.192253   3.627589   6.166150   5.840150   6.343158
    10  Cl   3.399693   3.943310   4.678089   4.451884   5.624999
    11  H    3.795526   3.167624   1.091151   2.085735   2.647988
    12  H    4.013202   4.618038   3.123074   2.134112   2.849324
    13  H    3.185497   3.705197   2.722739   2.184611   3.482289
    14  H    2.599282   3.532301   3.326289   2.154760   2.706056
    15  H    4.106186   4.441886   3.181344   2.146469   1.098042
    16  H    2.713095   3.175773   3.240252   2.156086   1.097395
    17  H    3.686058   3.546564   2.628000   2.173768   1.094262
    18  C    4.010981   3.592953   1.503540   2.554442   3.922037
    19  H    5.027840   4.648412   2.151653   3.147004   4.421829
    20  H    4.285064   3.590969   2.159543   3.362084   4.614917
    21  H    3.831696   3.671183   2.175600   2.769272   4.264450
    22  C    2.396299   1.494689   3.274345   3.719552   4.580736
    23  H    3.274731   2.153819   3.259053   4.034432   4.859912
    24  H    2.813337   2.095772   4.358501   4.690015   5.439192
    25  H    2.627416   2.146696   3.189082   3.622111   4.759448
    26  C    2.366758   1.495560   3.332933   3.385419   3.310997
    27  H    2.937830   2.094596   4.366228   4.452336   4.350855
    28  H    3.191583   2.150064   3.043515   3.463491   3.464715
    29  H    2.513447   2.146358   3.580069   3.279872   2.747531
                    6          7          8          9         10
     6  Fe   0.000000
     7  Cl   2.171907   0.000000
     8  C    3.590871   3.941478   0.000000
     9  Cl   2.190200   3.684580   5.639844   0.000000
    10  Cl   2.191062   3.680374   3.652718   3.623645   0.000000
    11  H    5.468974   6.618072   3.482971   6.704854   5.632996
    12  H    4.556206   4.541305   1.098869   6.663785   4.485048
    13  H    3.405124   4.100324   1.089908   5.440258   2.849311
    14  H    2.975490   2.921834   1.095572   5.064876   3.552446
    15  H    5.493965   5.428220   2.762091   7.210437   6.231955
    16  H    4.253768   4.319817   2.799349   5.704892   5.487447
    17  H    5.502899   5.974209   3.480245   6.820206   6.369747
    18  C    4.990346   6.375006   3.104419   6.402639   4.298700
    19  H    5.971829   7.206291   3.625795   7.473144   5.119024
    20  H    5.291154   6.935825   4.041834   6.365046   4.591807
    21  H    4.380091   5.763191   2.773115   5.915741   3.355614
    22  C    3.348290   5.336185   4.266353   3.675833   3.633969
    23  H    4.426847   6.367392   4.837611   4.674895   4.544351
    24  H    3.358530   5.431856   5.111746   3.010042   3.840829
    25  H    3.094184   5.116932   3.854493   3.798122   2.761104
    26  C    4.245637   5.513665   4.449633   4.638488   5.432458
    27  H    4.560285   5.905087   5.416590   4.419317   5.892561
    28  H    5.076989   6.424562   4.744208   5.539441   5.945646
    29  H    4.430638   5.272384   4.327295   5.025398   5.843056
                   11         12         13         14         15
    11  H    0.000000
    12  H    4.006730   0.000000
    13  H    3.801493   1.768025   0.000000
    14  H    4.197753   1.752176   1.773718   0.000000
    15  H    3.379148   2.649412   3.807041   2.964816   0.000000
    16  H    3.459611   3.269159   3.757081   2.535716   1.756713
    17  H    2.318133   3.818045   4.334825   3.747135   1.771588
    18  C    2.202133   3.662720   2.748406   4.023558   4.508564
    19  H    2.652938   3.889556   3.296679   4.662181   4.801799
    20  H    2.482158   4.707225   3.640414   4.851909   5.334666
    21  H    3.104520   3.389617   2.072662   3.622437   4.810895
    22  C    3.581293   5.324094   4.023597   4.424305   5.603932
    23  H    3.289987   5.822104   4.623615   5.165214   5.887365
    24  H    4.634942   6.199090   4.839448   5.097793   6.479174
    25  H    3.771432   4.883308   3.360599   4.107153   5.676256
    26  C    3.113976   5.363126   4.832212   4.425514   4.396896
    27  H    4.121185   6.372426   5.728403   5.286154   5.421723
    28  H    2.515597   5.578075   5.091887   4.952839   4.512853
    29  H    3.365901   5.125706   4.930772   4.171839   3.758610
                   16         17         18         19         20
    16  H    0.000000
    17  H    1.785831   0.000000
    18  C    4.613491   4.127783   0.000000
    19  H    5.263598   4.581641   1.098774   0.000000
    20  H    5.233721   4.644300   1.096401   1.757712   0.000000
    21  H    4.797481   4.702625   1.093115   1.766801   1.770242
    22  C    4.561210   4.698593   3.335009   4.413082   2.961950
    23  H    5.014891   4.758493   3.228601   4.205099   2.570302
    24  H    5.249575   5.563087   4.394403   5.467328   3.959833
    25  H    4.823917   5.058231   2.872280   3.930488   2.616347
    26  C    3.102930   3.044884   4.345691   5.279033   4.268726
    27  H    4.004915   4.059719   5.238952   6.208216   5.010304
    28  H    3.581314   2.939104   4.010701   4.831300   3.807697
[...]
     29          1           0        1.817471    1.271543   -2.569770
 ---------------------------------------------------------------------
 Rotational constants (GHZ):           0.5633571           0.3236022           0.3049509
   427 basis functions,  1056 primitive gaussians,   461 cartesian basis functions
    77 alpha electrons       72 beta electrons
       nuclear repulsion energy      1622.6944152783 Hartrees.
 NAtoms=   29 NActive=   29 NUniq=   29 SFac= 1.00D+00 NAtFMM=   60 NAOKFM=F Big=F
 Nuclear repulsion after empirical dispersion term =     1622.6919138618 Hartrees.
 Initial guess from the checkpoint file:  "checkpoint.chk"
 B after Tr=     0.000000    0.000000    0.000000
         Rot=    1.000000    0.000000    0.000000    0.000000 Ang=   0.00 deg.
 Initial guess <Sx>= 0.0000 <Sy>= 0.0000 <Sz>= 2.5000 <S**2>= 8.7619 S= 2.5020
 SCF Done:  E(UM06L) =  -3034.22233610     A.U. after   17 cycles
            NFock= 17  Conv=0.87D-08     -V/T= 2.0020
 <Sx>= 0.0000 <Sy>= 0.0000 <Sz>= 2.5000 <S**2>= 8.7617 S= 2.5020
 <L.S>= 0.000000000000E+00
 Annihilation of the first spin contaminant:
 S**2 before annihilation     8.7617,   after     8.7500
 1\1\GINC-HOLY7C16301\SP\UM06L\Jul-CC-pVDZ\C8H16Cl3Fe1O1(6)\EKWAN\12-Fe
 b-2020\0\\#t pop=none jul-cc-pvdz guess=read um06l empiricaldispersion
 =gd3\\theory_abbreviation m06l_d3\\0,6\O,0,0.237686,0.399938,-0.819913
 \C,0,0.944139,1.409177,-0.613958\C,0,3.21801,-0.040845,0.452319\C,0,2.
 567596,-0.959821,-0.285938\C,0,2.861056,-1.13516,-1.75268\Fe,0,-1.4652
 46,-0.16235,0.037579\Cl,0,-2.087702,-1.931685,-1.057492\C,0,1.620988,-
 1.982419,0.276035\Cl,0,-2.66513,1.633295,-0.326994\Cl,0,-1.108977,-0.4
 73714,2.176943\H,0,3.951697,0.583963,-0.059471\H,0,2.120174,-2.960915,
 0.305562\H,0,1.273723,-1.755886,1.283998\H,0,0.747131,-2.109348,-0.372
 456\H,0,3.264554,-2.13937,-1.938283\H,0,1.941622,-1.058168,-2.346809\H
 ,0,3.589696,-0.407727,-2.123265\C,0,3.136977,0.15475,1.940878\H,0,4.00
 0635,-0.307277,2.438804\H,0,3.159567,1.218444,2.205716\H,0,2.235063,-0
 .281316,2.378254\C,0,0.832935,2.193491,0.653551\H,0,1.707871,2.823795,
 0.819397\H,0,-0.050796,2.840471,0.549554\H,0,0.658136,1.540142,1.50956
 6\C,0,1.737236,1.979273,-1.746516\H,0,1.191639,2.86793,-2.096563\H,0,2
 .723853,2.31042,-1.415927\H,0,1.817471,1.271543,-2.56977\\Version=ES64
 L-G16RevA.03\HF=-3034.2223361\S2=8.761739\S2-1=0.\S2A=8.750044\RMSD=8.
 728e-09\PG=C01 [X(C8H16Cl3Fe1O1)]\\@


 LOVE IS BLIND, THAT'S WHY ALL THE WORLD LOVES A LOUVER.
 Job cpu time:       0 days  1 hours 12 minutes 34.4 seconds.
 Elapsed time:       0 days  0 hours 18 minutes 11.5 seconds.
 File lengths (MBytes):  RWF=    174 Int=      0 D2E=      0 Chk=     13 Scr=      1
 Normal termination of Gaussian 16 at Wed Feb 12 22:27:21 2020.
 Initial command:
 /n/sw/g16_nehalem/g16/l1.exe "/scratch/Gau-190007.inp" -scrdir="/scratch/"
 Entering Link 1 = /n/sw/g16_nehalem/g16/l1.exe PID=    234021.
  
 Copyright (c) 1988,1990,1992,1993,1995,1998,2003,2009,2016,
            Gaussian, Inc.  All Rights Reserved.
  
 This is part of the Gaussian(R) 16 program.  It is based on
 the Gaussian(R) 09 system (copyright 2009, Gaussian, Inc.),
 the Gaussian(R) 03 system (copyright 2003, Gaussian, Inc.),
 the Gaussian(R) 98 system (copyright 1998, Gaussian, Inc.),
 the Gaussian(R) 94 system (copyright 1995, Gaussian, Inc.),
 the Gaussian 92(TM) system (copyright 1992, Gaussian, Inc.),
 the Gaussian 90(TM) system (copyright 1990, Gaussian, Inc.),
 the Gaussian 88(TM) system (copyright 1988, Gaussian, Inc.),
 the Gaussian 86(TM) system (copyright 1986, Carnegie Mellon
 University), and the Gaussian 82(TM) system (copyright 1983,
 Carnegie Mellon University). Gaussian is a federally registered
 trademark of Gaussian, Inc.
  
 This software contains proprietary and confidential information,
 including trade secrets, belonging to Gaussian, Inc.
  
 This software is provided under written license and may be
 used, copied, transmitted, or stored only in accord with that
 written license.
  
 The following legend is applicable only to US Government
 contracts under FAR:
  
                    RESTRICTED RIGHTS LEGEND
  
 Use, reproduction and disclosure by the US Government is
 subject to restrictions as set forth in subparagraphs (a)
 and (c) of the Commercial Computer Software - Restricted
 Rights clause in FAR 52.227-19.
  
 Gaussian, Inc.
 340 Quinnipiac St., Bldg. 40, Wallingford CT 06492
  
  
 ---------------------------------------------------------------
 Warning -- This program may not be used in any manner that
 competes with the business of Gaussian, Inc. or will provide
 assistance to any competitor of Gaussian, Inc.  The licensee
 of this program is prohibited from giving any competitor of
 Gaussian, Inc. access to this program.  By using this program,
 the user acknowledges that Gaussian, Inc. is engaged in the
 business of creating and licensing software in the field of
 computational chemistry and represents and warrants to the
 licensee that it is not a competitor of Gaussian, Inc. and that
 it will not use this program in any manner prohibited above.
 ---------------------------------------------------------------
  

 Cite this work as:
 Gaussian 16, Revision A.03,
 M. J. Frisch, G. W. Trucks, H. B. Schlegel, G. E. Scuseria, 
 M. A. Robb, J. R. Cheeseman, G. Scalmani, V. Barone, 
 G. A. Petersson, H. Nakatsuji, X. Li, M. Caricato, A. V. Marenich, 
 J. Bloino, B. G. Janesko, R. Gomperts, B. Mennucci, H. P. Hratchian, 
 J. V. Ortiz, A. F. Izmaylov, J. L. Sonnenberg, D. Williams-Young, 
 F. Ding, F. Lipparini, F. Egidi, J. Goings, B. Peng, A. Petrone, 
 T. Henderson, D. Ranasinghe, V. G. Zakrzewski, J. Gao, N. Rega, 
 G. Zheng, W. Liang, M. Hada, M. Ehara, K. Toyota, R. Fukuda, 
 J. Hasegawa, M. Ishida, T. Nakajima, Y. Honda, O. Kitao, H. Nakai, 
 T. Vreven, K. Throssell, J. A. Montgomery, Jr., J. E. Peralta, 
 F. Ogliaro, M. J. Bearpark, J. J. Heyd, E. N. Brothers, K. N. Kudin, 
 V. N. Staroverov, T. A. Keith, R. Kobayashi, J. Normand, 
 K. Raghavachari, A. P. Rendell, J. C. Burant, S. S. Iyengar, 
 J. Tomasi, M. Cossi, J. M. Millam, M. Klene, C. Adamo, R. Cammi, 
 J. W. Ochterski, R. L. Martin, K. Morokuma, O. Farkas, 
 J. B. Foresman, and D. J. Fox, Gaussian, Inc., Wallingford CT, 2016.
 
 ******************************************
 Gaussian 16:  ES64L-G16RevA.03 25-Dec-2016
                12-Feb-2020 
 ******************************************
 %chk=checkpoint.chk
 %mem=3GB
 %nprocshared=4
 Will use up to    4 processors via shared memory.
 -------------------------------------------------------------------
 #t pop=none jul-cc-pvdz guess=read ub97d3 empiricaldispersion=gd3bj
 -------------------------------------------------------------------
 ------------------------------
 theory_abbreviation b97d3_d3bj
 ------------------------------
 Symbolic Z-matrix:
 Charge =  0 Multiplicity = 6
 O                     0.23769   0.39994  -0.81991 
 C                     0.94414   1.40918  -0.61396 
 C                     3.21801  -0.04085   0.45232 
 C                     2.5676   -0.95982  -0.28594 
 C                     2.86106  -1.13516  -1.75268 
 Fe                   -1.46525  -0.16235   0.03758 
 Cl                   -2.0877   -1.93169  -1.05749 
 C                     1.62099  -1.98242   0.27604 
 Cl                   -2.66513   1.6333   -0.32699 
 Cl                   -1.10898  -0.47371   2.17694 
 H                     3.9517    0.58396  -0.05947 
 H                     2.12017  -2.96092   0.30556 
 H                     1.27372  -1.75589   1.284 
 H                     0.74713  -2.10935  -0.37246 
 H                     3.26455  -2.13937  -1.93828 
 H                     1.94162  -1.05817  -2.34681 
 H                     3.5897   -0.40773  -2.12326 
 C                     3.13698   0.15475   1.94088 
 H                     4.00063  -0.30728   2.4388 
 H                     3.15957   1.21844   2.20572 
 H                     2.23506  -0.28132   2.37825 
 C                     0.83294   2.19349   0.65355 
 H                     1.70787   2.8238    0.8194 
 H                    -0.0508    2.84047   0.54955 
 H                     0.65814   1.54014   1.50957 
 C                     1.73724   1.97927  -1.74652 
 H                     1.19164   2.86793  -2.09656 
 H                     2.72385   2.31042  -1.41593 
 H                     1.81747   1.27154  -2.56977 
 
                    Distance matrix (angstroms):
                    1          2          3          4          5
     1  O    0.000000
     2  C    1.249022   0.000000
     3  C    3.270351   2.900000   0.000000
     4  C    2.750010   2.890564   1.346320   0.000000
     5  C    3.179410   3.383033   2.487360   1.506053   0.000000
     6  Fe   1.987822   2.949463   4.703154   4.123644   4.782079
     7  Cl   3.301566   4.533226   5.831414   4.817843   5.060429
     8  C    2.964836   3.571153   2.520172   1.502527   2.524144
     9  Cl   3.192253   3.627589   6.166150   5.840150   6.343158
    10  Cl   3.399693   3.943310   4.678089   4.451884   5.624999
    11  H    3.795526   3.167624   1.091151   2.085735   2.647988
    12  H    4.013202   4.618038   3.123074   2.134112   2.849324
    13  H    3.185497   3.705197   2.722739   2.184611   3.482289
    14  H    2.599282   3.532301   3.326289   2.154760   2.706056
    15  H    4.106186   4.441886   3.181344   2.146469   1.098042
    16  H    2.713095   3.175773   3.240252   2.156086   1.097395
    17  H    3.686058   3.546564   2.628000   2.173768   1.094262
    18  C    4.010981   3.592953   1.503540   2.554442   3.922037
    19  H    5.027840   4.648412   2.151653   3.147004   4.421829
    20  H    4.285064   3.590969   2.159543   3.362084   4.614917
    21  H    3.831696   3.671183   2.175600   2.769272   4.264450
    22  C    2.396299   1.494689   3.274345   3.719552   4.580736
    23  H    3.274731   2.153819   3.259053   4.034432   4.859912
    24  H    2.813337   2.095772   4.358501   4.690015   5.439192
    25  H    2.627416   2.146696   3.189082   3.622111   4.759448
    26  C    2.366758   1.495560   3.332933   3.385419   3.310997
    27  H    2.937830   2.094596   4.366228   4.452336   4.350855
    28  H    3.191583   2.150064   3.043515   3.463491   3.464715
    29  H    2.513447   2.146358   3.580069   3.279872   2.747531
                    6          7          8          9         10
     6  Fe   0.000000
     7  Cl   2.171907   0.000000
     8  C    3.590871   3.941478   0.000000
     9  Cl   2.190200   3.684580   5.639844   0.000000
    10  Cl   2.191062   3.680374   3.652718   3.623645   0.000000
    11  H    5.468974   6.618072   3.482971   6.704854   5.632996
    12  H    4.556206   4.541305   1.098869   6.663785   4.485048
    13  H    3.405124   4.100324   1.089908   5.440258   2.849311
    14  H    2.975490   2.921834   1.095572   5.064876   3.552446
    15  H    5.493965   5.428220   2.762091   7.210437   6.231955
    16  H    4.253768   4.319817   2.799349   5.704892   5.487447
    17  H    5.502899   5.974209   3.480245   6.820206   6.369747
    18  C    4.990346   6.375006   3.104419   6.402639   4.298700
    19  H    5.971829   7.206291   3.625795   7.473144   5.119024
    20  H    5.291154   6.935825   4.041834   6.365046   4.591807
    21  H    4.380091   5.763191   2.773115   5.915741   3.355614
    22  C    3.348290   5.336185   4.266353   3.675833   3.633969
    23  H    4.426847   6.367392   4.837611   4.674895   4.544351
    24  H    3.358530   5.431856   5.111746   3.010042   3.840829
    25  H    3.094184   5.116932   3.854493   3.798122   2.761104
    26  C    4.245637   5.513665   4.449633   4.638488   5.432458
    27  H    4.560285   5.905087   5.416590   4.419317   5.892561
    28  H    5.076989   6.424562   4.744208   5.539441   5.945646
    29  H    4.430638   5.272384   4.327295   5.025398   5.843056
                   11         12         13         14         15
    11  H    0.000000
    12  H    4.006730   0.000000
    13  H    3.801493   1.768025   0.000000
    14  H    4.197753   1.752176   1.773718   0.000000
    15  H    3.379148   2.649412   3.807041   2.964816   0.000000
    16  H    3.459611   3.269159   3.757081   2.535716   1.756713
    17  H    2.318133   3.818045   4.334825   3.747135   1.771588
    18  C    2.202133   3.662720   2.748406   4.023558   4.508564
    19  H    2.652938   3.889556   3.296679   4.662181   4.801799
    20  H    2.482158   4.707225   3.640414   4.851909   5.334666
    21  H    3.104520   3.389617   2.072662   3.622437   4.810895
    22  C    3.581293   5.324094   4.023597   4.424305   5.603932
    23  H    3.289987   5.822104   4.623615   5.165214   5.887365
    24  H    4.634942   6.199090   4.839448   5.097793   6.479174
    25  H    3.771432   4.883308   3.360599   4.107153   5.676256
    26  C    3.113976   5.363126   4.832212   4.425514   4.396896
    27  H    4.121185   6.372426   5.728403   5.286154   5.421723
    28  H    2.515597   5.578075   5.091887   4.952839   4.512853
    29  H    3.365901   5.125706   4.930772   4.171839   3.758610
                   16         17         18         19         20
    16  H    0.000000
    17  H    1.785831   0.000000
    18  C    4.613491   4.127783   0.000000
    19  H    5.263598   4.581641   1.098774   0.000000
    20  H    5.233721   4.644300   1.096401   1.757712   0.000000
    21  H    4.797481   4.702625   1.093115   1.766801   1.770242
    22  C    4.561210   4.698593   3.335009   4.413082   2.961950
    23  H    5.014891   4.758493   3.228601   4.205099   2.570302
    24  H    5.249575   5.563087   4.394403   5.467328   3.959833
    25  H    4.823917   5.058231   2.872280   3.930488   2.616347
    26  C    3.102930   3.044884   4.345691   5.279033   4.268726
    27  H    4.004915   4.059719   5.238952   6.208216   5.010304
    28  H    3.581314   2.939104   4.010701   4.831300   3.807697
    29  H    2.343646   2.481954   4.830556   5.687239   4.960777
                   21         22         23         24         25
    21  H    0.000000
    22  C    3.326445   0.000000
    23  H    3.514211   1.091009   0.000000
    24  H    4.279585   1.100172   1.779327   0.000000
    25  H    2.561060   1.090954   1.796119   1.764954   0.000000
    26  C    4.729886   2.573708   2.701479   3.034907   3.458231
    27  H    5.570500   2.854236   2.961632   2.923411   3.879667
    28  H    4.620803   2.805705   2.508475   3.441329   3.663199
    29  H    5.202758   3.494152   3.729337   3.960068   4.249375
                   26         27         28         29
    26  C    0.000000
    27  H    1.099964   0.000000
    28  H    1.091953   1.766851   0.000000
    29  H    1.088608   1.778775   1.797817   0.000000
 Framework group  C1[X(C8H16Cl3FeO)]
 Deg. of freedom    81
                         Standard orientation:                         
 ---------------------------------------------------------------------
 Center     Atomic      Atomic             Coordinates (Angstroms)
 Number     Number       Type             X           Y           Z
 ---------------------------------------------------------------------
      1          8           0        0.237686    0.399938   -0.819913
      2          6           0        0.944139    1.409177   -0.613958
      3          6           0        3.218010   -0.040845    0.452319
      4          6           0        2.567596   -0.959821   -0.285938
      5          6           0        2.861056   -1.135160   -1.752680
      6         26           0       -1.465246   -0.162350    0.037579
      7         17           0       -2.087702   -1.931685   -1.057492
      8          6           0        1.620988   -1.982419    0.276035
      9         17           0       -2.665130    1.633295   -0.326994
     10         17           0       -1.108977   -0.473714    2.176943
     11          1           0        3.951697    0.583963   -0.059471
     12          1           0        2.120174   -2.960915    0.305562
     13          1           0        1.273723   -1.755886    1.283998
     14          1           0        0.747131   -2.109348   -0.372456
     15          1           0        3.264554   -2.139370   -1.938283
     16          1           0        1.941622   -1.058168   -2.346809
     17          1           0        3.589696   -0.407727   -2.123265
     18          6           0        3.136977    0.154750    1.940878
     19          1           0        4.000635   -0.307277    2.438804
     20          1           0        3.159567    1.218444    2.205716
     21          1           0        2.235063   -0.281316    2.378254
     22          6           0        0.832935    2.193491    0.653551
     23          1           0        1.707871    2.823795    0.819397
     24          1           0       -0.050796    2.840471    0.549554
     25          1           0        0.658136    1.540142    1.509566
     26          6           0        1.737236    1.979273   -1.746516
     27          1           0        1.191639    2.867930   -2.096563
     28          1           0        2.723853    2.310420   -1.415927
     29          1           0        1.817471    1.271543   -2.569770
 ---------------------------------------------------------------------
 Rotational constants (GHZ):           0.5633571           0.3236022           0.3049509
   427 basis functions,  1056 primitive gaussians,   461 cartesian basis functions
    77 alpha electrons       72 beta electrons
       nuclear repulsion energy      1622.6944152783 Hartrees.
 NAtoms=   29 NActive=   29 NUniq=   29 SFac= 1.00D+00 NAtFMM=   60 NAOKFM=F Big=F
 Nuclear repulsion after empirical dispersion term =     1622.5965649663 Hartrees.
 Initial guess from the checkpoint file:  "checkpoint.chk"
 B after Tr=     0.000000    0.000000    0.000000
         Rot=    1.000000    0.000000    0.000000    0.000000 Ang=   0.00 deg.
 Initial guess <Sx>= 0.0000 <Sy>= 0.0000 <Sz>= 2.5000 <S**2>= 8.7617 S= 2.5020
 SCF Done:  E(UB97D3) =  -3034.64089351     A.U. after   16 cycles
            NFock= 16  Conv=0.79D-08     -V/T= 2.0019
 <Sx>= 0.0000 <Sy>= 0.0000 <Sz>= 2.5000 <S**2>= 8.7600 S= 2.5017
 <L.S>= 0.000000000000E+00
 Annihilation of the first spin contaminant:
 S**2 before annihilation     8.7600,   after     8.7500
 1\1\GINC-HOLY7C16301\SP\UB97D3\Jul-CC-pVDZ\C8H16Cl3Fe1O1(6)\EKWAN\12-F
 eb-2020\0\\#t pop=none jul-cc-pvdz guess=read ub97d3 empiricaldispersi
 on=gd3bj\\theory_abbreviation b97d3_d3bj\\0,6\O,0,0.237686,0.399938,-0
 .819913\C,0,0.944139,1.409177,-0.613958\C,0,3.21801,-0.040845,0.452319
 \C,0,2.567596,-0.959821,-0.285938\C,0,2.861056,-1.13516,-1.75268\Fe,0,
 -1.465246,-0.16235,0.037579\Cl,0,-2.087702,-1.931685,-1.057492\C,0,1.6
 20988,-1.982419,0.276035\Cl,0,-2.66513,1.633295,-0.326994\Cl,0,-1.1089
 77,-0.473714,2.176943\H,0,3.951697,0.583963,-0.059471\H,0,2.120174,-2.
 960915,0.305562\H,0,1.273723,-1.755886,1.283998\H,0,0.747131,-2.109348
 ,-0.372456\H,0,3.264554,-2.13937,-1.938283\H,0,1.941622,-1.058168,-2.3
 46809\H,0,3.589696,-0.407727,-2.123265\C,0,3.136977,0.15475,1.940878\H
 ,0,4.000635,-0.307277,2.438804\H,0,3.159567,1.218444,2.205716\H,0,2.23
 5063,-0.281316,2.378254\C,0,0.832935,2.193491,0.653551\H,0,1.707871,2.
 823795,0.819397\H,0,-0.050796,2.840471,0.549554\H,0,0.658136,1.540142,
 1.509566\C,0,1.737236,1.979273,-1.746516\H,0,1.191639,2.86793,-2.09656
 3\H,0,2.723853,2.31042,-1.415927\H,0,1.817471,1.271543,-2.56977\\Versi
 on=ES64L-G16RevA.03\HF=-3034.6408935\S2=8.759973\S2-1=0.\S2A=8.750031\
 RMSD=7.901e-09\PG=C01 [X(C8H16Cl3Fe1O1)]\\@


 SCIENCE AT ITS BEST PROVIDES US WITH BETTER QUESTIONS, 
 NOT ABSOLUTE ANSWERS

                                    -- NORMAN COUSINS, 1976
 Job cpu time:       0 days  0 hours 49 minutes  6.0 seconds.
 Elapsed time:       0 days  0 hours 12 minutes 18.5 seconds.
 File lengths (MBytes):  RWF=    174 Int=      0 D2E=      0 Chk=     13 Scr=      1
 Normal termination of Gaussian 16 at Wed Feb 12 22:39:40 2020.
