 Entering Gaussian System, Link 0=g16
 Input=simple-grid-235-265-b3lyp_d3bj-631gd-gas-singlepoint-DFT-juldz2-gas.gjf
 Output=simple-grid-235-265-b3lyp_d3bj-631gd-gas-singlepoint-DFT-juldz2-gas.out
 Initial command:
 /n/sw/g16_nehalem/g16/l1.exe "/scratch/Gau-155292.inp" -scrdir="/scratch/"
 Entering Link 1 = /n/sw/g16_nehalem/g16/l1.exe PID=    155294.
  
 Copyright (c) 1988,1990,1992,1993,1995,1998,2003,2009,2016,
            Gaussian, Inc.  All Rights Reserved.
  
 This is part of the Gaussian(R) 16 program.  It is based on
 the Gaussian(R) 09 system (copyright 2009, Gaussian, Inc.),
 the Gaussian(R) 03 system (copyright 2003, Gaussian, Inc.),
 the Gaussian(R) 98 system (copyright 1998, Gaussian, Inc.),
 the Gaussian(R) 94 system (copyright 1995, Gaussian, Inc.),
 the Gaussian 92(TM) system (copyright 1992, Gaussian, Inc.),
 the Gaussian 90(TM) system (copyright 1990, Gaussian, Inc.),
 the Gaussian 88(TM) system (copyright 1988, Gaussian, Inc.),
 the Gaussian 86(TM) system (copyright 1986, Carnegie Mellon
 University), and the Gaussian 82(TM) system (copyright 1983,
 Carnegie Mellon University). Gaussian is a federally registered
 trademark of Gaussian, Inc.
  
 This software contains proprietary and confidential information,
 including trade secrets, belonging to Gaussian, Inc.
  
 This software is provided under written license and may be
 used, copied, transmitted, or stored only in accord with that
 written license.
  
 The following legend is applicable only to US Government
 contracts under FAR:
  
                    RESTRICTED RIGHTS LEGEND
  
 Use, reproduction and disclosure by the US Government is
 subject to restrictions as set forth in subparagraphs (a)
 and (c) of the Commercial Computer Software - Restricted
 Rights clause in FAR 52.227-19.
  
 Gaussian, Inc.
 340 Quinnipiac St., Bldg. 40, Wallingford CT 06492
  
  
 ---------------------------------------------------------------
 Warning -- This program may not be used in any manner that
 competes with the business of Gaussian, Inc. or will provide
 assistance to any competitor of Gaussian, Inc.  The licensee
 of this program is prohibited from giving any competitor of
 Gaussian, Inc. access to this program.  By using this program,
 the user acknowledges that Gaussian, Inc. is engaged in the
 business of creating and licensing software in the field of
 computational chemistry and represents and warrants to the
 licensee that it is not a competitor of Gaussian, Inc. and that
 it will not use this program in any manner prohibited above.
 ---------------------------------------------------------------
  

 Cite this work as:
 Gaussian 16, Revision A.03,
 M. J. Frisch, G. W. Trucks, H. B. Schlegel, G. E. Scuseria, 
 M. A. Robb, J. R. Cheeseman, G. Scalmani, V. Barone, 
 G. A. Petersson, H. Nakatsuji, X. Li, M. Caricato, A. V. Marenich, 
 J. Bloino, B. G. Janesko, R. Gomperts, B. Mennucci, H. P. Hratchian, 
 J. V. Ortiz, A. F. Izmaylov, J. L. Sonnenberg, D. Williams-Young, 
 F. Ding, F. Lipparini, F. Egidi, J. Goings, B. Peng, A. Petrone, 
 T. Henderson, D. Ranasinghe, V. G. Zakrzewski, J. Gao, N. Rega, 
 G. Zheng, W. Liang, M. Hada, M. Ehara, K. Toyota, R. Fukuda, 
 J. Hasegawa, M. Ishida, T. Nakajima, Y. Honda, O. Kitao, H. Nakai, 
 T. Vreven, K. Throssell, J. A. Montgomery, Jr., J. E. Peralta, 
 F. Ogliaro, M. J. Bearpark, J. J. Heyd, E. N. Brothers, K. N. Kudin, 
 V. N. Staroverov, T. A. Keith, R. Kobayashi, J. Normand, 
 K. Raghavachari, A. P. Rendell, J. C. Burant, S. S. Iyengar, 
 J. Tomasi, M. Cossi, J. M. Millam, M. Klene, C. Adamo, R. Cammi, 
 J. W. Ochterski, R. L. Martin, K. Morokuma, O. Farkas, 
 J. B. Foresman, and D. J. Fox, Gaussian, Inc., Wallingford CT, 2016.
 
 ******************************************
 Gaussian 16:  ES64L-G16RevA.03 25-Dec-2016
                11-Feb-2020 
 ******************************************
 %chk=checkpoint.chk
 %mem=3GB
 %nprocshared=4
 Will use up to    4 processors via shared memory.
 --------------------------------
 #t pop=none jul-cc-pvdz upbe1pbe
 --------------------------------
 ------------------------
 theory_abbreviation pbe0
 ------------------------
 Symbolic Z-matrix:
 Charge =  0 Multiplicity = 6
 O                    -0.27653  -0.24076  -0.80407 
 C                    -1.12581  -1.1729   -0.64412 
 C                    -2.94003  -0.17658   0.46874 
 C                    -2.53593   0.97116  -0.13409 
 C                    -2.98819   1.3456   -1.51398 
 Fe                    1.44615   0.12914   0.00688 
 Cl                    2.06139   2.02853  -0.87392 
 C                    -1.62899   1.97005   0.51054 
 Cl                    2.62505  -1.62175  -0.58197 
 Cl                    1.15348   0.22734   2.19004 
 H                    -3.67929  -0.77764  -0.05813 
 H                    -2.18821   2.8987    0.68958 
 H                    -1.20684   1.63817   1.45778 
 H                    -0.80654   2.23118  -0.16621 
 H                    -3.45205   2.33979  -1.48771 
 H                    -2.12647   1.42547  -2.18975 
 H                    -3.71494   0.64341  -1.9293 
 C                    -2.80129  -0.46957   1.94282 
 H                    -3.58861   0.05859   2.49655 
 H                    -2.92546  -1.53477   2.1536 
 H                    -1.84105  -0.15197   2.35589 
 C                    -0.89978  -2.20849   0.42178 
 H                    -1.77572  -2.83801   0.58281 
 H                    -0.08322  -2.83965   0.04104 
 H                    -0.5594   -1.77167   1.35983 
 C                    -1.86326  -1.63044  -1.87604 
 H                    -1.17703  -2.32302  -2.3838 
 H                    -2.77946  -2.17488  -1.64279 
 H                    -2.06243  -0.80811  -2.5602 
 
                    Distance matrix (angstroms):
                    1          2          3          4          5
     1  O    0.000000
     2  C    1.271124   0.000000
     3  C    2.952696   2.350001   0.000000
     4  C    2.650001   2.616398   1.357940   0.000000
     5  C    3.220804   3.250833   2.500103   1.499612   0.000000
     6  Fe   1.939612   2.955353   4.421016   4.072572   4.843154
     7  Cl   3.258901   4.523302   5.628450   4.775010   5.135590
     8  C    2.906032   3.385933   2.515663   1.495276   2.517140
     9  Cl   3.221121   3.778136   5.844880   5.793051   6.417336
    10  Cl   3.350931   3.897217   4.459013   4.423407   5.667769
    11  H    3.524691   2.649501   1.088750   2.090773   2.665565
    12  H    3.967587   4.414225   3.173536   2.124795   2.812071
    13  H    3.084127   3.510939   2.697306   2.178396   3.477082
    14  H    2.607351   3.452262   3.279062   2.139969   2.712986
    15  H    4.148556   4.296742   3.228305   2.131833   1.097394
    16  H    2.849332   3.184619   3.208741   2.144715   1.098001
    17  H    3.724322   3.413833   2.650185   2.172620   1.092580
    18  C    3.737941   3.161357   1.509304   2.541584   3.908862
    19  H    4.685471   4.176816   2.141956   2.976774   4.254554
    20  H    4.176014   3.346176   2.164168   3.415391   4.663854
    21  H    3.527180   3.248688   2.183966   2.818558   4.305173
    22  C    2.400651   1.503225   2.879842   3.618857   4.554135
    23  H    3.304044   2.168021   2.907203   3.949885   4.834164
    24  H    2.739671   2.081944   3.928895   4.535269   5.326648
    25  H    2.665744   2.166836   3.000959   3.696155   4.886220
    26  C    2.366018   1.506914   2.961613   3.202373   3.202087
    27  H    2.764463   2.086116   3.981505   4.214193   4.182780
    28  H    3.272449   2.176199   2.911625   3.497575   3.529010
    29  H    2.568138   2.163722   3.216134   3.045658   2.567115
                    6          7          8          9         10
     6  Fe   0.000000
     7  Cl   2.182207   0.000000
     8  C    3.619275   3.941962   0.000000
     9  Cl   2.191375   3.705064   5.673749   0.000000
    10  Cl   2.204884   3.668306   3.687804   3.642618   0.000000
    11  H    5.205443   6.441701   3.475180   6.382134   5.424009
    12  H    4.620085   4.610948   1.098718   6.724491   4.533700
    13  H    3.379452   4.033672   1.088858   5.428724   2.845659
    14  H    3.085968   2.960903   1.096635   5.176267   3.661830
    15  H    5.577917   5.556225   2.730059   7.310628   6.260922
    16  H    4.389676   4.430941   2.799212   5.869192   5.601437
    17  H    5.536258   6.033108   3.473319   6.865985   6.390897
    18  C    4.706071   6.149811   3.062257   6.094855   4.023301
    19  H    5.617147   6.867551   3.382013   7.135155   4.754979
    20  H    5.146648   6.836053   4.082180   6.188621   4.443427
    21  H    4.050013   5.515005   2.820148   5.544127   3.023003
    22  C    3.337672   5.329142   4.242617   3.711633   3.643604
    23  H    4.417702   6.366213   4.810833   4.711981   4.534277
    24  H    3.339734   5.397749   5.073755   3.034165   3.943857
    25  H    3.076656   5.128329   3.983188   3.732800   2.760295
    26  C    4.194483   5.458500   4.325984   4.671148   5.393053
    27  H    4.313874   5.630556   5.197296   4.265468   5.731981
    28  H    5.087797   6.457063   4.810488   5.535344   5.994097
    29  H    4.447303   5.281670   4.163590   5.152468   5.829153
                   11         12         13         14         15
    11  H    0.000000
    12  H    4.037059   0.000000
    13  H    3.774538   1.772606   0.000000
    14  H    4.161413   1.756980   1.774609   0.000000
    15  H    3.437101   2.578808   3.769494   2.959198   0.000000
    16  H    3.436383   3.234928   3.767677   2.546776   1.756705
    17  H    2.349877   3.778327   4.330404   3.753435   1.772514
    18  C    2.206720   3.645775   2.687025   3.964982   4.481570
    19  H    2.689595   3.645883   3.040882   4.421581   4.593126
    20  H    2.456268   4.726786   3.674967   4.904458   5.343085
    21  H    3.098084   3.493375   2.100817   3.620858   4.855658
    22  C    3.162804   5.274009   3.995549   4.479411   5.554013
    23  H    2.877414   5.752507   4.596235   5.215075   5.822944
    24  H    4.146495   6.146561   4.829136   5.126349   6.364952
    25  H    3.568253   4.991457   3.472152   4.291007   5.777542
    26  C    2.707401   5.215469   4.714771   4.353423   4.293924
    27  H    3.749431   6.142844   5.518123   5.078949   5.265025
    28  H    2.296326   5.615222   5.160040   5.048371   4.567125
    29  H    2.979178   4.931265   4.781267   4.067648   3.604242
                   16         17         18         19         20
    16  H    0.000000
    17  H    1.789608   0.000000
    18  C    4.596159   4.131199   0.000000
    19  H    5.095845   4.466110   1.097928   0.000000
    20  H    5.316582   4.694443   1.092933   1.759601   0.000000
    21  H    4.820024   4.744153   1.092503   1.765814   1.768904
    22  C    4.640099   4.646080   2.992184   4.083401   2.748901
    23  H    5.097779   4.710793   2.917351   3.916539   2.342582
    24  H    5.229005   5.404011   4.077004   5.168860   3.774112
    25  H    5.027617   5.158338   2.657335   3.717275   2.506874
    26  C    3.083227   2.932912   4.100150   4.994921   4.168378
    27  H    3.871728   3.930304   4.979274   5.941856   4.926084
    28  H    3.699739   2.983282   3.970540   4.772555   3.852741
    29  H    2.265001   2.288175   4.575779   5.352679   4.846931
                   21         22         23         24         25
    21  H    0.000000
    22  C    2.975917   0.000000
    23  H    3.219147   1.090635   0.000000
    24  H    3.958807   1.100042   1.777095   0.000000
    25  H    2.293081   1.089314   1.794505   1.762534   0.000000
    26  C    4.482817   2.557813   2.740770   2.881997   3.491539
    27  H    5.255389   2.821572   3.069922   2.709829   3.834087
    28  H    4.578458   2.792272   2.529930   3.247600   3.755925
    29  H    4.964630   3.493572   3.752494   3.848490   4.307461
                   26         27         28         29
    26  C    0.000000
    27  H    1.099271   0.000000
    28  H    1.090980   1.771670   0.000000
    29  H    1.088106   1.763520   1.795499   0.000000
 Framework group  C1[X(C8H16Cl3FeO)]
 Deg. of freedom    81
                         Standard orientation:                         
 ---------------------------------------------------------------------
 Center     Atomic      Atomic             Coordinates (Angstroms)
 Number     Number       Type             X           Y           Z
 ---------------------------------------------------------------------
      1          8           0       -0.276528   -0.240761   -0.804073
      2          6           0       -1.125813   -1.172902   -0.644122
      3          6           0       -2.940029   -0.176580    0.468742
      4          6           0       -2.535927    0.971156   -0.134088
      5          6           0       -2.988185    1.345597   -1.513977
      6         26           0        1.446154    0.129135    0.006876
      7         17           0        2.061390    2.028534   -0.873917
      8          6           0       -1.628993    1.970045    0.510537
      9         17           0        2.625052   -1.621747   -0.581966
     10         17           0        1.153475    0.227335    2.190041
     11          1           0       -3.679289   -0.777640   -0.058134
     12          1           0       -2.188213    2.898698    0.689581
     13          1           0       -1.206842    1.638174    1.457776
     14          1           0       -0.806542    2.231181   -0.166213
     15          1           0       -3.452050    2.339786   -1.487707
     16          1           0       -2.126466    1.425469   -2.189749
     17          1           0       -3.714940    0.643411   -1.929301
     18          6           0       -2.801290   -0.469566    1.942821
     19          1           0       -3.588613    0.058592    2.496551
     20          1           0       -2.925459   -1.534770    2.153595
     21          1           0       -1.841049   -0.151965    2.355894
     22          6           0       -0.899780   -2.208492    0.421781
     23          1           0       -1.775717   -2.838007    0.582812
     24          1           0       -0.083220   -2.839648    0.041040
     25          1           0       -0.559401   -1.771674    1.359831
     26          6           0       -1.863258   -1.630443   -1.876039
     27          1           0       -1.177030   -2.323023   -2.383800
     28          1           0       -2.779458   -2.174879   -1.642792
     29          1           0       -2.062432   -0.808114   -2.560203
 ---------------------------------------------------------------------
 Rotational constants (GHZ):           0.5753249           0.3340305           0.3143891
   427 basis functions,  1056 primitive gaussians,   461 cartesian basis functions
    77 alpha electrons       72 beta electrons
       nuclear repulsion energy      1639.7511726733 Hartrees.
 NAtoms=   29 NActive=   29 NUniq=   29 SFac= 1.00D+00 NAtFMM=   60 NAOKFM=F Big=F
 ExpMin= 1.40D-02 ExpMax= 4.32D+06 ExpMxC= 4.91D+03 IAcc=3 IRadAn=         5 AccDes= 0.00D+00
 Harris functional with IExCor= 1009 and IRadAn=       5 diagonalized for initial guess.
 HarFok:  IExCor= 1009 AccDes= 0.00D+00 IRadAn=         5 IDoV= 1 UseB2=F ITyADJ=14
 ICtDFT=  3500011 ScaDFX=  1.000000  1.000000  1.000000  1.000000
 FoFCou: FMM=F IPFlag=           0 FMFlag=      100000 FMFlg1=           0
         NFxFlg=           0 DoJE=T BraDBF=F KetDBF=T FulRan=T
         wScrn=  0.000000 ICntrl=       500 IOpCl=  0 I1Cent=   200000004 NGrid=           0
         NMat0=    1 NMatS0=      1 NMatT0=    0 NMatD0=    1 NMtDS0=    0 NMtDT0=    0
 Petite list used in FoFCou.
 Initial guess <Sx>= 0.0000 <Sy>= 0.0000 <Sz>= 2.5000 <S**2>= 8.7500 S= 2.5000
 EnCoef did   100 forward-backward iterations
 Restarting incremental Fock formation.
 SCF Done:  E(UPBE1PBE) =  -3033.12363232     A.U. after   21 cycles
            NFock= 21  Conv=0.37D-08     -V/T= 2.0021
 <Sx>= 0.0000 <Sy>= 0.0000 <Sz>= 2.5000 <S**2>= 8.7626 S= 2.5021
 <L.S>= 0.000000000000E+00
 Annihilation of the first spin contaminant:
 S**2 before annihilation     8.7626,   after     8.7500
 1\1\GINC-HOLY7C18404\SP\UPBE1PBE\Jul-CC-pVDZ\C8H16Cl3Fe1O1(6)\EKWAN\11
 -Feb-2020\0\\#t pop=none jul-cc-pvdz upbe1pbe\\theory_abbreviation pbe
 0\\0,6\O,0,-0.276528,-0.240761,-0.804073\C,0,-1.125813,-1.172902,-0.64
 4122\C,0,-2.940029,-0.17658,0.468742\C,0,-2.535927,0.971156,-0.134088\
 C,0,-2.988185,1.345597,-1.513977\Fe,0,1.446154,0.129135,0.006876\Cl,0,
 2.06139,2.028534,-0.873917\C,0,-1.628993,1.970045,0.510537\Cl,0,2.6250
 52,-1.621747,-0.581966\Cl,0,1.153475,0.227335,2.190041\H,0,-3.679289,-
 0.77764,-0.058134\H,0,-2.188213,2.898698,0.689581\H,0,-1.206842,1.6381
 74,1.457776\H,0,-0.806542,2.231181,-0.166213\H,0,-3.45205,2.339786,-1.
 487707\H,0,-2.126466,1.425469,-2.189749\H,0,-3.71494,0.643411,-1.92930
 1\C,0,-2.80129,-0.469566,1.942821\H,0,-3.588613,0.058592,2.496551\H,0,
 -2.925459,-1.53477,2.153595\H,0,-1.841049,-0.151965,2.355894\C,0,-0.89
 978,-2.208492,0.421781\H,0,-1.775717,-2.838007,0.582812\H,0,-0.08322,-
 2.839648,0.04104\H,0,-0.559401,-1.771674,1.359831\C,0,-1.863258,-1.630
 443,-1.876039\H,0,-1.17703,-2.323023,-2.3838\H,0,-2.779458,-2.174879,-
 1.642792\H,0,-2.062432,-0.808114,-2.560203\\Version=ES64L-G16RevA.03\H
 F=-3033.1236323\S2=8.762601\S2-1=0.\S2A=8.750049\RMSD=3.718e-09\PG=C01
  [X(C8H16Cl3Fe1O1)]\\@


 THOUGH I SPEAK WITH THE TONGUES OF MEN AND OF ANGELS, 
 AND HAVE NOT LOVE,
 I AM BECOME AS SOUNDING BRASS, A TINKLING CYMBAL.
 AND THOUGH I HAVE THE GIFT OF PROPHECY,
 AND UNDERSTAND ALL MYSTERIES, AND ALL KNOWLEDGE.
 AND THOUGH I HAVE ALL FAITH, SO THAT I COULD REMOVE MOUNTAINS,
 AND HAVE NOT LOVE, I AM NOTHING.
 AND THOUGH I BESTOW ALL MY GOODS TO FEED THE POOR,
 AND THOUGH I GIVE MY BODY TO BE BURNED,
 AND HAVE NOT LOVE IT PROFITETH ME NOTHING.
 LOVE SUFFERETH LONG, AND IS KIND,
 LOVE ENVIETH NOT,
 LOVE VAUNTETH NOT ITSELF, IS NOT PUFFED UP,
 DOTH NOT BEHAVE ITSELF UNSEEMLY, SEEKETH NOT HER OWN,
 IS NOT EASILY PROVOKED, THINKETH NO EVIL,
 REJOICETH NOT IN INIQUITY, BUT REJOICETH IN THE TRUTH,
 BEARETH ALL THINGS, BELIEVETH ALL THINGS,
 HOPETH ALL THINGS, ENDURETH ALL THINGS.
 LOVE NEVER FAILETH, BUT WHETHER THERE BE PROPHECIES, THEY SHALL FAIL, 
 WHETHER THERE BE TONGUES, THEY SHALL CEASE,
 WHETHER THERE BE KNOWLEDGE, IT SHALL VANISH AWAY.
 FOR WE KNOW IN PART, AND WE PROPHESY IN PART.
 BUT WHEN THAT WHICH IS PERFECT IS COME, THEN THAT WHICH IS IN PART 
 SHALL BE DONE AWAY. 
 WHEN I WAS A CHILD, I SPAKE AS A CHILD, I UNDERSTOOD AS A CHILD, 
 I THOUGHT AS A CHILD.
 BUT WHEN I BECAME A MAN, I PUT AWAY CHILDISH THINGS.
 FOR NOW WE SEE THROUGH A GLASS, DARKLY, BUT THEN FACE TO FACE.
 NOW I KNOW IN PART. BUT THEN SHALL I KNOW EVEN AS ALSO I AM KNOWN.
 AND NOW ABIDETH FAITH, HOPE AND LOVE, THESE THREE.
 BUT THE GREATEST OF THESE IS LOVE.

                     I CORINTHIANS 13
 Job cpu time:       0 days  1 hours 24 minutes 25.7 seconds.
 Elapsed time:       0 days  0 hours 21 minutes 26.9 seconds.
 File lengths (MBytes):  RWF=    173 Int=      0 D2E=      0 Chk=     13 Scr=      1
 Normal termination of Gaussian 16 at Tue Feb 11 23:38:44 2020.
 Initial command:
 /n/sw/g16_nehalem/g16/l1.exe "/scratch/Gau-155292.inp" -scrdir="/scratch/"
 Entering Link 1 = /n/sw/g16_nehalem/g16/l1.exe PID=    158694.
  
 Copyright (c) 1988,1990,1992,1993,1995,1998,2003,2009,2016,
            Gaussian, Inc.  All Rights Reserved.
  
 This is part of the Gaussian(R) 16 program.  It is based on
 the Gaussian(R) 09 system (copyright 2009, Gaussian, Inc.),
 the Gaussian(R) 03 system (copyright 2003, Gaussian, Inc.),
 the Gaussian(R) 98 system (copyright 1998, Gaussian, Inc.),
 the Gaussian(R) 94 system (copyright 1995, Gaussian, Inc.),
 the Gaussian 92(TM) system (copyright 1992, Gaussian, Inc.),
 the Gaussian 90(TM) system (copyright 1990, Gaussian, Inc.),
 the Gaussian 88(TM) system (copyright 1988, Gaussian, Inc.),
 the Gaussian 86(TM) system (copyright 1986, Carnegie Mellon
 University), and the Gaussian 82(TM) system (copyright 1983,
 Carnegie Mellon University). Gaussian is a federally registered
 trademark of Gaussian, Inc.
  
 This software contains proprietary and confidential information,
 including trade secrets, belonging to Gaussian, Inc.
  
 This software is provided under written license and may be
 used, copied, transmitted, or stored only in accord with that
 written license.
  
 The following legend is applicable only to US Government
 contracts under FAR:
  
                    RESTRICTED RIGHTS LEGEND
  
 Use, reproduction and disclosure by the US Government is
 subject to restrictions as set forth in subparagraphs (a)
 and (c) of the Commercial Computer Software - Restricted
 Rights clause in FAR 52.227-19.
  
 Gaussian, Inc.
 340 Quinnipiac St., Bldg. 40, Wallingford CT 06492
  
  
 ---------------------------------------------------------------
 Warning -- This program may not be used in any manner that
 competes with the business of Gaussian, Inc. or will provide
 assistance to any competitor of Gaussian, Inc.  The licensee
 of this program is prohibited from giving any competitor of
 Gaussian, Inc. access to this program.  By using this program,
 the user acknowledges that Gaussian, Inc. is engaged in the
 business of creating and licensing software in the field of
 computational chemistry and represents and warrants to the
 licensee that it is not a competitor of Gaussian, Inc. and that
 it will not use this program in any manner prohibited above.
 ---------------------------------------------------------------
  

 Cite this work as:
 Gaussian 16, Revision A.03,
 M. J. Frisch, G. W. Trucks, H. B. Schlegel, G. E. Scuseria, 
 M. A. Robb, J. R. Cheeseman, G. Scalmani, V. Barone, 
 G. A. Petersson, H. Nakatsuji, X. Li, M. Caricato, A. V. Marenich, 
 J. Bloino, B. G. Janesko, R. Gomperts, B. Mennucci, H. P. Hratchian, 
 J. V. Ortiz, A. F. Izmaylov, J. L. Sonnenberg, D. Williams-Young, 
 F. Ding, F. Lipparini, F. Egidi, J. Goings, B. Peng, A. Petrone, 
 T. Henderson, D. Ranasinghe, V. G. Zakrzewski, J. Gao, N. Rega, 
 G. Zheng, W. Liang, M. Hada, M. Ehara, K. Toyota, R. Fukuda, 
 J. Hasegawa, M. Ishida, T. Nakajima, Y. Honda, O. Kitao, H. Nakai, 
 T. Vreven, K. Throssell, J. A. Montgomery, Jr., J. E. Peralta, 
 F. Ogliaro, M. J. Bearpark, J. J. Heyd, E. N. Brothers, K. N. Kudin, 
 V. N. Staroverov, T. A. Keith, R. Kobayashi, J. Normand, 
 K. Raghavachari, A. P. Rendell, J. C. Burant, S. S. Iyengar, 
 J. Tomasi, M. Cossi, J. M. Millam, M. Klene, C. Adamo, R. Cammi, 
 J. W. Ochterski, R. L. Martin, K. Morokuma, O. Farkas, 
 J. B. Foresman, and D. J. Fox, Gaussian, Inc., Wallingford CT, 2016.
 
 ******************************************
 Gaussian 16:  ES64L-G16RevA.03 25-Dec-2016
                11-Feb-2020 
 ******************************************
 %chk=checkpoint.chk
 %mem=3GB
 %nprocshared=4
 Will use up to    4 processors via shared memory.
 ---------------------------------------------------------------------
 #t pop=none jul-cc-pvdz guess=read upbe1pbe empiricaldispersion=gd3bj
 ---------------------------------------------------------------------
 -----------------------------
 theory_abbreviation pbe0_d3bj
 -----------------------------
 Symbolic Z-matrix:
 Charge =  0 Multiplicity = 6
 O                    -0.27653  -0.24076  -0.80407 
 C                    -1.12581  -1.1729   -0.64412 
 C                    -2.94003  -0.17658   0.46874 
 C                    -2.53593   0.97116  -0.13409 
 C                    -2.98819   1.3456   -1.51398 
 Fe                    1.44615   0.12914   0.00688 
 Cl                    2.06139   2.02853  -0.87392 
 C                    -1.62899   1.97005   0.51054 
 Cl                    2.62505  -1.62175  -0.58197 
 Cl                    1.15348   0.22734   2.19004 
 H                    -3.67929  -0.77764  -0.05813 
 H                    -2.18821   2.8987    0.68958 
 H                    -1.20684   1.63817   1.45778 
 H                    -0.80654   2.23118  -0.16621 
 H                    -3.45205   2.33979  -1.48771 
 H                    -2.12647   1.42547  -2.18975 
 H                    -3.71494   0.64341  -1.9293 
 C                    -2.80129  -0.46957   1.94282 
 H                    -3.58861   0.05859   2.49655 
 H                    -2.92546  -1.53477   2.1536 
 H                    -1.84105  -0.15197   2.35589 
 C                    -0.89978  -2.20849   0.42178 
 H                    -1.77572  -2.83801   0.58281 
 H                    -0.08322  -2.83965   0.04104 
 H                    -0.5594   -1.77167   1.35983 
 C                    -1.86326  -1.63044  -1.87604 
 H                    -1.17703  -2.32302  -2.3838 
 H                    -2.77946  -2.17488  -1.64279 
 H                    -2.06243  -0.80811  -2.5602 
 
                    Distance matrix (angstroms):
                    1          2          3          4          5
     1  O    0.000000
     2  C    1.271124   0.000000
     3  C    2.952696   2.350001   0.000000
     4  C    2.650001   2.616398   1.357940   0.000000
     5  C    3.220804   3.250833   2.500103   1.499612   0.000000
     6  Fe   1.939612   2.955353   4.421016   4.072572   4.843154
     7  Cl   3.258901   4.523302   5.628450   4.775010   5.135590
     8  C    2.906032   3.385933   2.515663   1.495276   2.517140
     9  Cl   3.221121   3.778136   5.844880   5.793051   6.417336
    10  Cl   3.350931   3.897217   4.459013   4.423407   5.667769
    11  H    3.524691   2.649501   1.088750   2.090773   2.665565
    12  H    3.967587   4.414225   3.173536   2.124795   2.812071
    13  H    3.084127   3.510939   2.697306   2.178396   3.477082
    14  H    2.607351   3.452262   3.279062   2.139969   2.712986
    15  H    4.148556   4.296742   3.228305   2.131833   1.097394
    16  H    2.849332   3.184619   3.208741   2.144715   1.098001
    17  H    3.724322   3.413833   2.650185   2.172620   1.092580
    18  C    3.737941   3.161357   1.509304   2.541584   3.908862
    19  H    4.685471   4.176816   2.141956   2.976774   4.254554
    20  H    4.176014   3.346176   2.164168   3.415391   4.663854
    21  H    3.527180   3.248688   2.183966   2.818558   4.305173
    22  C    2.400651   1.503225   2.879842   3.618857   4.554135
    23  H    3.304044   2.168021   2.907203   3.949885   4.834164
    24  H    2.739671   2.081944   3.928895   4.535269   5.326648
    25  H    2.665744   2.166836   3.000959   3.696155   4.886220
    26  C    2.366018   1.506914   2.961613   3.202373   3.202087
    27  H    2.764463   2.086116   3.981505   4.214193   4.182780
    28  H    3.272449   2.176199   2.911625   3.497575   3.529010
    29  H    2.568138   2.163722   3.216134   3.045658   2.567115
                    6          7          8          9         10
     6  Fe   0.000000
     7  Cl   2.182207   0.000000
     8  C    3.619275   3.941962   0.000000
     9  Cl   2.191375   3.705064   5.673749   0.000000
    10  Cl   2.204884   3.668306   3.687804   3.642618   0.000000
    11  H    5.205443   6.441701   3.475180   6.382134   5.424009
    12  H    4.620085   4.610948   1.098718   6.724491   4.533700
    13  H    3.379452   4.033672   1.088858   5.428724   2.845659
    14  H    3.085968   2.960903   1.096635   5.176267   3.661830
    15  H    5.577917   5.556225   2.730059   7.310628   6.260922
    16  H    4.389676   4.430941   2.799212   5.869192   5.601437
    17  H    5.536258   6.033108   3.473319   6.865985   6.390897
    18  C    4.706071   6.149811   3.062257   6.094855   4.023301
    19  H    5.617147   6.867551   3.382013   7.135155   4.754979
    20  H    5.146648   6.836053   4.082180   6.188621   4.443427
    21  H    4.050013   5.515005   2.820148   5.544127   3.023003
    22  C    3.337672   5.329142   4.242617   3.711633   3.643604
    23  H    4.417702   6.366213   4.810833   4.711981   4.534277
    24  H    3.339734   5.397749   5.073755   3.034165   3.943857
    25  H    3.076656   5.128329   3.983188   3.732800   2.760295
    26  C    4.194483   5.458500   4.325984   4.671148   5.393053
    27  H    4.313874   5.630556   5.197296   4.265468   5.731981
    28  H    5.087797   6.457063   4.810488   5.535344   5.994097
    29  H    4.447303   5.281670   4.163590   5.152468   5.829153
                   11         12         13         14         15
    11  H    0.000000
    12  H    4.037059   0.000000
    13  H    3.774538   1.772606   0.000000
    14  H    4.161413   1.756980   1.774609   0.000000
    15  H    3.437101   2.578808   3.769494   2.959198   0.000000
    16  H    3.436383   3.234928   3.767677   2.546776   1.756705
    17  H    2.349877   3.778327   4.330404   3.753435   1.772514
    18  C    2.206720   3.645775   2.687025   3.964982   4.481570
    19  H    2.689595   3.645883   3.040882   4.421581   4.593126
    20  H    2.456268   4.726786   3.674967   4.904458   5.343085
    21  H    3.098084   3.493375   2.100817   3.620858   4.855658
    22  C    3.162804   5.274009   3.995549   4.479411   5.554013
    23  H    2.877414   5.752507   4.596235   5.215075   5.822944
    24  H    4.146495   6.146561   4.829136   5.126349   6.364952
    25  H    3.568253   4.991457   3.472152   4.291007   5.777542
    26  C    2.707401   5.215469   4.714771   4.353423   4.293924
    27  H    3.749431   6.142844   5.518123   5.078949   5.265025
    28  H    2.296326   5.615222   5.160040   5.048371   4.567125
    29  H    2.979178   4.931265   4.781267   4.067648   3.604242
                   16         17         18         19         20
    16  H    0.000000
    17  H    1.789608   0.000000
    18  C    4.596159   4.131199   0.000000
    19  H    5.095845   4.466110   1.097928   0.000000
    20  H    5.316582   4.694443   1.092933   1.759601   0.000000
    21  H    4.820024   4.744153   1.092503   1.765814   1.768904
    22  C    4.640099   4.646080   2.992184   4.083401   2.748901
    23  H    5.097779   4.710793   2.917351   3.916539   2.342582
    24  H    5.229005   5.404011   4.077004   5.168860   3.774112
    25  H    5.027617   5.158338   2.657335   3.717275   2.506874
    26  C    3.083227   2.932912   4.100150   4.994921   4.168378
    27  H    3.871728   3.930304   4.979274   5.941856   4.926084
    28  H    3.699739   2.983282   3.970540   4.772555   3.852741
    29  H    2.265001   2.288175   4.575779   5.352679   4.846931
                   21         22         23         24         25
    21  H    0.000000
    22  C    2.975917   0.000000
    23  H    3.219147   1.090635   0.000000
    24  H    3.958807   1.100042   1.777095   0.000000
    25  H    2.293081   1.089314   1.794505   1.762534   0.000000
    26  C    4.482817   2.557813   2.740770   2.881997   3.491539
    27  H    5.255389   2.821572   3.069922   2.709829   3.834087
    28  H    4.578458   2.792272   2.529930   3.247600   3.755925
    29  H    4.964630   3.493572   3.752494   3.848490   4.307461
                   26         27         28         29
    26  C    0.000000
    27  H    1.099271   0.000000
    28  H    1.090980   1.771670   0.000000
    29  H    1.088106   1.763520   1.795499   0.000000
 Framework group  C1[X(C8H16Cl3FeO)]
 Deg. of freedom    81
                         Standard orientation:                         
 ---------------------------------------------------------------------
 Center     Atomic      Atomic             Coordinates (Angstroms)
 Number     Number       Type             X           Y           Z
 ---------------------------------------------------------------------
      1          8           0       -0.276528   -0.240761   -0.804073
      2          6           0       -1.125813   -1.172902   -0.644122
      3          6           0       -2.940029   -0.176580    0.468742
      4          6           0       -2.535927    0.971156   -0.134088
      5          6           0       -2.988185    1.345597   -1.513977
      6         26           0        1.446154    0.129135    0.006876
      7         17           0        2.061390    2.028534   -0.873917
      8          6           0       -1.628993    1.970045    0.510537
      9         17           0        2.625052   -1.621747   -0.581966
     10         17           0        1.153475    0.227335    2.190041
     11          1           0       -3.679289   -0.777640   -0.058134
     12          1           0       -2.188213    2.898698    0.689581
     13          1           0       -1.206842    1.638174    1.457776
     14          1           0       -0.806542    2.231181   -0.166213
     15          1           0       -3.452050    2.339786   -1.487707
     16          1           0       -2.126466    1.425469   -2.189749
     17          1           0       -3.714940    0.643411   -1.929301
     18          6           0       -2.801290   -0.469566    1.942821
     19          1           0       -3.588613    0.058592    2.496551
     20          1           0       -2.925459   -1.534770    2.153595
     21          1           0       -1.841049   -0.151965    2.355894
     22          6           0       -0.899780   -2.208492    0.421781
     23          1           0       -1.775717   -2.838007    0.582812
     24          1           0       -0.083220   -2.839648    0.041040
     25          1           0       -0.559401   -1.771674    1.359831
     26          6           0       -1.863258   -1.630443   -1.876039
     27          1           0       -1.177030   -2.323023   -2.383800
     28          1           0       -2.779458   -2.174879   -1.642792
     29          1           0       -2.062432   -0.808114   -2.560203
 ---------------------------------------------------------------------
 Rotational constants (GHZ):           0.5753249           0.3340305           0.3143891
   427 basis functions,  1056 primitive gaussians,   461 cartesian basis functions
    77 alpha electrons       72 beta electrons
       nuclear repulsion energy      1639.7511726733 Hartrees.
 NAtoms=   29 NActive=   29 NUniq=   29 SFac= 1.00D+00 NAtFMM=   60 NAOKFM=F Big=F
 Nuclear repulsion after empirical dispersion term =     1639.7136288893 Hartrees.
 Initial guess from the checkpoint file:  "checkpoint.chk"
 B after Tr=     0.000000    0.000000    0.000000
         Rot=    1.000000    0.000000    0.000000    0.000000 Ang=   0.00 deg.
 Initial guess <Sx>= 0.0000 <Sy>= 0.0000 <Sz>= 2.5000 <S**2>= 8.7626 S= 2.5021
 SCF Done:  E(UPBE1PBE) =  -3033.16117610     A.U. after    1 cycles
            NFock=  1  Conv=0.24D-08     -V/T= 2.0021
 <Sx>= 0.0000 <Sy>= 0.0000 <Sz>= 2.5000 <S**2>= 8.7626 S= 2.5021
 <L.S>= 0.000000000000E+00
 Annihilation of the first spin contaminant:
 S**2 before annihilation     8.7626,   after     8.7500
 1\1\GINC-HOLY7C18404\SP\UPBE1PBE\Jul-CC-pVDZ\C8H16Cl3Fe1O1(6)\EKWAN\11
 -Feb-2020\0\\#t pop=none jul-cc-pvdz guess=read upbe1pbe empiricaldisp
 ersion=gd3bj\\theory_abbreviation pbe0_d3bj\\0,6\O,0,-0.276528,-0.2407
 61,-0.804073\C,0,-1.125813,-1.172902,-0.644122\C,0,-2.940029,-0.17658,
 0.468742\C,0,-2.535927,0.971156,-0.134088\C,0,-2.988185,1.345597,-1.51
 3977\Fe,0,1.446154,0.129135,0.006876\Cl,0,2.06139,2.028534,-0.873917\C
 ,0,-1.628993,1.970045,0.510537\Cl,0,2.625052,-1.621747,-0.581966\Cl,0,
 1.153475,0.227335,2.190041\H,0,-3.679289,-0.77764,-0.058134\H,0,-2.188
 213,2.898698,0.689581\H,0,-1.206842,1.638174,1.457776\H,0,-0.806542,2.
 231181,-0.166213\H,0,-3.45205,2.339786,-1.487707\H,0,-2.126466,1.42546
 9,-2.189749\H,0,-3.71494,0.643411,-1.929301\C,0,-2.80129,-0.469566,1.9
 42821\H,0,-3.588613,0.058592,2.496551\H,0,-2.925459,-1.53477,2.153595\
 H,0,-1.841049,-0.151965,2.355894\C,0,-0.89978,-2.208492,0.421781\H,0,-
 1.775717,-2.838007,0.582812\H,0,-0.08322,-2.839648,0.04104\H,0,-0.5594
 01,-1.771674,1.359831\C,0,-1.863258,-1.630443,-1.876039\H,0,-1.17703,-
 2.323023,-2.3838\H,0,-2.779458,-2.174879,-1.642792\H,0,-2.062432,-0.80
 8114,-2.560203\\Version=ES64L-G16RevA.03\HF=-3033.1611761\S2=8.762601\
 S2-1=0.\S2A=8.750049\RMSD=2.387e-09\PG=C01 [X(C8H16Cl3Fe1O1)]\\@


 FAULTILY FAULTLESS, ICILY REGULAR, SPLENDIDLY NULL...
           MAUDE BY TENNYSON
 Job cpu time:       0 days  0 hours  4 minutes 25.5 seconds.
 Elapsed time:       0 days  0 hours  1 minutes  8.3 seconds.
 File lengths (MBytes):  RWF=    170 Int=      0 D2E=      0 Chk=     13 Scr=      1
 Normal termination of Gaussian 16 at Tue Feb 11 23:39:53 2020.
 Initial command:
 /n/sw/g16_nehalem/g16/l1.exe "/scratch/Gau-155292.inp" -scrdir="/scratch/"
 Entering Link 1 = /n/sw/g16_nehalem/g16/l1.exe PID=    159151.
  
 Copyright (c) 1988,1990,1992,1993,1995,1998,2003,2009,2016,
            Gaussian, Inc.  All Rights Reserved.
  
 This is part of the Gaussian(R) 16 program.  It is based on
 the Gaussian(R) 09 system (copyright 2009, Gaussian, Inc.),
 the Gaussian(R) 03 system (copyright 2003, Gaussian, Inc.),
 the Gaussian(R) 98 system (copyright 1998, Gaussian, Inc.),
 the Gaussian(R) 94 system (copyright 1995, Gaussian, Inc.),
 the Gaussian 92(TM) system (copyright 1992, Gaussian, Inc.),
 the Gaussian 90(TM) system (copyright 1990, Gaussian, Inc.),
 the Gaussian 88(TM) system (copyright 1988, Gaussian, Inc.),
 the Gaussian 86(TM) system (copyright 1986, Carnegie Mellon
 University), and the Gaussian 82(TM) system (copyright 1983,
 Carnegie Mellon University). Gaussian is a federally registered
 trademark of Gaussian, Inc.
  
 This software contains proprietary and confidential information,
 including trade secrets, belonging to Gaussian, Inc.
  
 This software is provided under written license and may be
 used, copied, transmitted, or stored only in accord with that
 written license.
  
 The following legend is applicable only to US Government
 contracts under FAR:
  
                    RESTRICTED RIGHTS LEGEND
  
 Use, reproduction and disclosure by the US Government is
 subject to restrictions as set forth in subparagraphs (a)
 and (c) of the Commercial Computer Software - Restricted
 Rights clause in FAR 52.227-19.
  
 Gaussian, Inc.
 340 Quinnipiac St., Bldg. 40, Wallingford CT 06492
  
  
 ---------------------------------------------------------------
 Warning -- This program may not be used in any manner that
 competes with the business of Gaussian, Inc. or will provide
 assistance to any competitor of Gaussian, Inc.  The licensee
 of this program is prohibited from giving any competitor of
 Gaussian, Inc. access to this program.  By using this program,
 the user acknowledges that Gaussian, Inc. is engaged in the
 business of creating and licensing software in the field of
 computational chemistry and represents and warrants to the
 licensee that it is not a competitor of Gaussian, Inc. and that
 it will not use this program in any manner prohibited above.
 ---------------------------------------------------------------
  

 Cite this work as:
 Gaussian 16, Revision A.03,
 M. J. Frisch, G. W. Trucks, H. B. Schlegel, G. E. Scuseria, 
 M. A. Robb, J. R. Cheeseman, G. Scalmani, V. Barone, 
 G. A. Petersson, H. Nakatsuji, X. Li, M. Caricato, A. V. Marenich, 
 J. Bloino, B. G. Janesko, R. Gomperts, B. Mennucci, H. P. Hratchian, 
 J. V. Ortiz, A. F. Izmaylov, J. L. Sonnenberg, D. Williams-Young, 
 F. Ding, F. Lipparini, F. Egidi, J. Goings, B. Peng, A. Petrone, 
 T. Henderson, D. Ranasinghe, V. G. Zakrzewski, J. Gao, N. Rega, 
 G. Zheng, W. Liang, M. Hada, M. Ehara, K. Toyota, R. Fukuda, 
 J. Hasegawa, M. Ishida, T. Nakajima, Y. Honda, O. Kitao, H. Nakai, 
 T. Vreven, K. Throssell, J. A. Montgomery, Jr., J. E. Peralta, 
 F. Ogliaro, M. J. Bearpark, J. J. Heyd, E. N. Brothers, K. N. Kudin, 
 V. N. Staroverov, T. A. Keith, R. Kobayashi, J. Normand, 
 K. Raghavachari, A. P. Rendell, J. C. Burant, S. S. Iyengar, 
 J. Tomasi, M. Cossi, J. M. Millam, M. Klene, C. Adamo, R. Cammi, 
 J. W. Ochterski, R. L. Martin, K. Morokuma, O. Farkas, 
 J. B. Foresman, and D. J. Fox, Gaussian, Inc., Wallingford CT, 2016.
 
 ******************************************
 Gaussian 16:  ES64L-G16RevA.03 25-Dec-2016
                11-Feb-2020 
 ******************************************
 %chk=checkpoint.chk
 %mem=3GB
 %nprocshared=4
 Will use up to    4 processors via shared memory.
 -----------------------------------------
 #t pop=none jul-cc-pvdz guess=read ub3lyp
 -----------------------------------------
 -------------------------
 theory_abbreviation b3lyp
 -------------------------
 Symbolic Z-matrix:
 Charge =  0 Multiplicity = 6
 O                    -0.27653  -0.24076  -0.80407 
 C                    -1.12581  -1.1729   -0.64412 
 C                    -2.94003  -0.17658   0.46874 
 C                    -2.53593   0.97116  -0.13409 
 C                    -2.98819   1.3456   -1.51398 
 Fe                    1.44615   0.12914   0.00688 
 Cl                    2.06139   2.02853  -0.87392 
 C                    -1.62899   1.97005   0.51054 
 Cl                    2.62505  -1.62175  -0.58197 
 Cl                    1.15348   0.22734   2.19004 
 H                    -3.67929  -0.77764  -0.05813 
 H                    -2.18821   2.8987    0.68958 
 H                    -1.20684   1.63817   1.45778 
 H                    -0.80654   2.23118  -0.16621 
 H                    -3.45205   2.33979  -1.48771 
 H                    -2.12647   1.42547  -2.18975 
 H                    -3.71494   0.64341  -1.9293 
 C                    -2.80129  -0.46957   1.94282 
 H                    -3.58861   0.05859   2.49655 
 H                    -2.92546  -1.53477   2.1536 
 H                    -1.84105  -0.15197   2.35589 
 C                    -0.89978  -2.20849   0.42178 
 H                    -1.77572  -2.83801   0.58281 
 H                    -0.08322  -2.83965   0.04104 
 H                    -0.5594   -1.77167   1.35983 
 C                    -1.86326  -1.63044  -1.87604 
 H                    -1.17703  -2.32302  -2.3838 
 H                    -2.77946  -2.17488  -1.64279 
 H                    -2.06243  -0.80811  -2.5602 
 
                    Distance matrix (angstroms):
                    1          2          3          4          5
     1  O    0.000000
     2  C    1.271124   0.000000
     3  C    2.952696   2.350001   0.000000
     4  C    2.650001   2.616398   1.357940   0.000000
     5  C    3.220804   3.250833   2.500103   1.499612   0.000000
     6  Fe   1.939612   2.955353   4.421016   4.072572   4.843154
     7  Cl   3.258901   4.523302   5.628450   4.775010   5.135590
     8  C    2.906032   3.385933   2.515663   1.495276   2.517140
     9  Cl   3.221121   3.778136   5.844880   5.793051   6.417336
    10  Cl   3.350931   3.897217   4.459013   4.423407   5.667769
    11  H    3.524691   2.649501   1.088750   2.090773   2.665565
    12  H    3.967587   4.414225   3.173536   2.124795   2.812071
    13  H    3.084127   3.510939   2.697306   2.178396   3.477082
    14  H    2.607351   3.452262   3.279062   2.139969   2.712986
    15  H    4.148556   4.296742   3.228305   2.131833   1.097394
    16  H    2.849332   3.184619   3.208741   2.144715   1.098001
    17  H    3.724322   3.413833   2.650185   2.172620   1.092580
    18  C    3.737941   3.161357   1.509304   2.541584   3.908862
    19  H    4.685471   4.176816   2.141956   2.976774   4.254554
    20  H    4.176014   3.346176   2.164168   3.415391   4.663854
    21  H    3.527180   3.248688   2.183966   2.818558   4.305173
    22  C    2.400651   1.503225   2.879842   3.618857   4.554135
    23  H    3.304044   2.168021   2.907203   3.949885   4.834164
    24  H    2.739671   2.081944   3.928895   4.535269   5.326648
    25  H    2.665744   2.166836   3.000959   3.696155   4.886220
    26  C    2.366018   1.506914   2.961613   3.202373   3.202087
    27  H    2.764463   2.086116   3.981505   4.214193   4.182780
    28  H    3.272449   2.176199   2.911625   3.497575   3.529010
    29  H    2.568138   2.163722   3.216134   3.045658   2.567115
                    6          7          8          9         10
     6  Fe   0.000000
     7  Cl   2.182207   0.000000
     8  C    3.619275   3.941962   0.000000
     9  Cl   2.191375   3.705064   5.673749   0.000000
    10  Cl   2.204884   3.668306   3.687804   3.642618   0.000000
    11  H    5.205443   6.441701   3.475180   6.382134   5.424009
    12  H    4.620085   4.610948   1.098718   6.724491   4.533700
    13  H    3.379452   4.033672   1.088858   5.428724   2.845659
    14  H    3.085968   2.960903   1.096635   5.176267   3.661830
    15  H    5.577917   5.556225   2.730059   7.310628   6.260922
    16  H    4.389676   4.430941   2.799212   5.869192   5.601437
    17  H    5.536258   6.033108   3.473319   6.865985   6.390897
    18  C    4.706071   6.149811   3.062257   6.094855   4.023301
    19  H    5.617147   6.867551   3.382013   7.135155   4.754979
    20  H    5.146648   6.836053   4.082180   6.188621   4.443427
    21  H    4.050013   5.515005   2.820148   5.544127   3.023003
    22  C    3.337672   5.329142   4.242617   3.711633   3.643604
    23  H    4.417702   6.366213   4.810833   4.711981   4.534277
    24  H    3.339734   5.397749   5.073755   3.034165   3.943857
    25  H    3.076656   5.128329   3.983188   3.732800   2.760295
    26  C    4.194483   5.458500   4.325984   4.671148   5.393053
    27  H    4.313874   5.630556   5.197296   4.265468   5.731981
    28  H    5.087797   6.457063   4.810488   5.535344   5.994097
    29  H    4.447303   5.281670   4.163590   5.152468   5.829153
                   11         12         13         14         15
    11  H    0.000000
    12  H    4.037059   0.000000
    13  H    3.774538   1.772606   0.000000
    14  H    4.161413   1.756980   1.774609   0.000000
    15  H    3.437101   2.578808   3.769494   2.959198   0.000000
    16  H    3.436383   3.234928   3.767677   2.546776   1.756705
    17  H    2.349877   3.778327   4.330404   3.753435   1.772514
    18  C    2.206720   3.645775   2.687025   3.964982   4.481570
    19  H    2.689595   3.645883   3.040882   4.421581   4.593126
    20  H    2.456268   4.726786   3.674967   4.904458   5.343085
    21  H    3.098084   3.493375   2.100817   3.620858   4.855658
    22  C    3.162804   5.274009   3.995549   4.479411   5.554013
    23  H    2.877414   5.752507   4.596235   5.215075   5.822944
    24  H    4.146495   6.146561   4.829136   5.126349   6.364952
    25  H    3.568253   4.991457   3.472152   4.291007   5.777542
    26  C    2.707401   5.215469   4.714771   4.353423   4.293924
    27  H    3.749431   6.142844   5.518123   5.078949   5.265025
    28  H    2.296326   5.615222   5.160040   5.048371   4.567125
    29  H    2.979178   4.931265   4.781267   4.067648   3.604242
                   16         17         18         19         20
    16  H    0.000000
    17  H    1.789608   0.000000
    18  C    4.596159   4.131199   0.000000
    19  H    5.095845   4.466110   1.097928   0.000000
    20  H    5.316582   4.694443   1.092933   1.759601   0.000000
    21  H    4.820024   4.744153   1.092503   1.765814   1.768904
    22  C    4.640099   4.646080   2.992184   4.083401   2.748901
    23  H    5.097779   4.710793   2.917351   3.916539   2.342582
    24  H    5.229005   5.404011   4.077004   5.168860   3.774112
    25  H    5.027617   5.158338   2.657335   3.717275   2.506874
    26  C    3.083227   2.932912   4.100150   4.994921   4.168378
    27  H    3.871728   3.930304   4.979274   5.941856   4.926084
    28  H    3.699739   2.983282   3.970540   4.772555   3.852741
    29  H    2.265001   2.288175   4.575779   5.352679   4.846931
                   21         22         23         24         25
    21  H    0.000000
    22  C    2.975917   0.000000
    23  H    3.219147   1.090635   0.000000
    24  H    3.958807   1.100042   1.777095   0.000000
    25  H    2.293081   1.089314   1.794505   1.762534   0.000000
    26  C    4.482817   2.557813   2.740770   2.881997   3.491539
    27  H    5.255389   2.821572   3.069922   2.709829   3.834087
    28  H    4.578458   2.792272   2.529930   3.247600   3.755925
    29  H    4.964630   3.493572   3.752494   3.848490   4.307461
                   26         27         28         29
    26  C    0.000000
    27  H    1.099271   0.000000
    28  H    1.090980   1.771670   0.000000
    29  H    1.088106   1.763520   1.795499   0.000000
 Framework group  C1[X(C8H16Cl3FeO)]
 Deg. of freedom    81
                         Standard orientation:                         
 ---------------------------------------------------------------------
 Center     Atomic      Atomic             Coordinates (Angstroms)
 Number     Number       Type             X           Y           Z
 ---------------------------------------------------------------------
      1          8           0       -0.276528   -0.240761   -0.804073
      2          6           0       -1.125813   -1.172902   -0.644122
      3          6           0       -2.940029   -0.176580    0.468742
      4          6           0       -2.535927    0.971156   -0.134088
      5          6           0       -2.988185    1.345597   -1.513977
      6         26           0        1.446154    0.129135    0.006876
      7         17           0        2.061390    2.028534   -0.873917
      8          6           0       -1.628993    1.970045    0.510537
      9         17           0        2.625052   -1.621747   -0.581966
     10         17           0        1.153475    0.227335    2.190041
     11          1           0       -3.679289   -0.777640   -0.058134
     12          1           0       -2.188213    2.898698    0.689581
     13          1           0       -1.206842    1.638174    1.457776
     14          1           0       -0.806542    2.231181   -0.166213
     15          1           0       -3.452050    2.339786   -1.487707
     16          1           0       -2.126466    1.425469   -2.189749
     17          1           0       -3.714940    0.643411   -1.929301
     18          6           0       -2.801290   -0.469566    1.942821
     19          1           0       -3.588613    0.058592    2.496551
     20          1           0       -2.925459   -1.534770    2.153595
     21          1           0       -1.841049   -0.151965    2.355894
     22          6           0       -0.899780   -2.208492    0.421781
     23          1           0       -1.775717   -2.838007    0.582812
     24          1           0       -0.083220   -2.839648    0.041040
     25          1           0       -0.559401   -1.771674    1.359831
     26          6           0       -1.863258   -1.630443   -1.876039
     27          1           0       -1.177030   -2.323023   -2.383800
     28          1           0       -2.779458   -2.174879   -1.642792
     29          1           0       -2.062432   -0.808114   -2.560203
 ---------------------------------------------------------------------
 Rotational constants (GHZ):           0.5753249           0.3340305           0.3143891
   427 basis functions,  1056 primitive gaussians,   461 cartesian basis functions
    77 alpha electrons       72 beta electrons
       nuclear repulsion energy      1639.7511726733 Hartrees.
 NAtoms=   29 NActive=   29 NUniq=   29 SFac= 1.00D+00 NAtFMM=   60 NAOKFM=F Big=F
 Initial guess from the checkpoint file:  "checkpoint.chk"
 B after Tr=     0.000000    0.000000    0.000000
         Rot=    1.000000    0.000000    0.000000    0.000000 Ang=   0.00 deg.
 Initial guess <Sx>= 0.0000 <Sy>= 0.0000 <Sz>= 2.5000 <S**2>= 8.7626 S= 2.5021
 SCF Done:  E(UB3LYP) =  -3034.33967897     A.U. after   13 cycles
            NFock= 13  Conv=0.68D-08     -V/T= 2.0024
 <Sx>= 0.0000 <Sy>= 0.0000 <Sz>= 2.5000 <S**2>= 8.7619 S= 2.5020
 <L.S>= 0.000000000000E+00
 Annihilation of the first spin contaminant:
 S**2 before annihilation     8.7619,   after     8.7500
 1\1\GINC-HOLY7C18404\SP\UB3LYP\Jul-CC-pVDZ\C8H16Cl3Fe1O1(6)\EKWAN\11-F
 eb-2020\0\\#t pop=none jul-cc-pvdz guess=read ub3lyp\\theory_abbreviat
 ion b3lyp\\0,6\O,0,-0.276528,-0.240761,-0.804073\C,0,-1.125813,-1.1729
 02,-0.644122\C,0,-2.940029,-0.17658,0.468742\C,0,-2.535927,0.971156,-0
 .134088\C,0,-2.988185,1.345597,-1.513977\Fe,0,1.446154,0.129135,0.0068
 76\Cl,0,2.06139,2.028534,-0.873917\C,0,-1.628993,1.970045,0.510537\Cl,
 0,2.625052,-1.621747,-0.581966\Cl,0,1.153475,0.227335,2.190041\H,0,-3.
 679289,-0.77764,-0.058134\H,0,-2.188213,2.898698,0.689581\H,0,-1.20684
 2,1.638174,1.457776\H,0,-0.806542,2.231181,-0.166213\H,0,-3.45205,2.33
 9786,-1.487707\H,0,-2.126466,1.425469,-2.189749\H,0,-3.71494,0.643411,
 -1.929301\C,0,-2.80129,-0.469566,1.942821\H,0,-3.588613,0.058592,2.496
 551\H,0,-2.925459,-1.53477,2.153595\H,0,-1.841049,-0.151965,2.355894\C
 ,0,-0.89978,-2.208492,0.421781\H,0,-1.775717,-2.838007,0.582812\H,0,-0
 .08322,-2.839648,0.04104\H,0,-0.559401,-1.771674,1.359831\C,0,-1.86325
 8,-1.630443,-1.876039\H,0,-1.17703,-2.323023,-2.3838\H,0,-2.779458,-2.
 174879,-1.642792\H,0,-2.062432,-0.808114,-2.560203\\Version=ES64L-G16R
 evA.03\HF=-3034.339679\S2=8.761877\S2-1=0.\S2A=8.750044\RMSD=6.807e-09
 \PG=C01 [X(C8H16Cl3Fe1O1)]\\@


 LIVE PURE, SPEAK TRUE, RIGHT WRONG, FOLLOW THE KING...
 ELSE, WHEREFORE BORN......
           IDYLLS OF THE KING, TENNYSON
 Job cpu time:       0 days  0 hours 51 minutes 24.6 seconds.
 Elapsed time:       0 days  0 hours 12 minutes 53.4 seconds.
 File lengths (MBytes):  RWF=    174 Int=      0 D2E=      0 Chk=     13 Scr=      1
 Normal termination of Gaussian 16 at Tue Feb 11 23:52:47 2020.
 Initial command:
 /n/sw/g16_nehalem/g16/l1.exe "/scratch/Gau-155292.inp" -scrdir="/scratch/"
 Entering Link 1 = /n/sw/g16_nehalem/g16/l1.exe PID=    160098.
  
 Copyright (c) 1988,1990,1992,1993,1995,1998,2003,2009,2016,
            Gaussian, Inc.  All Rights Reserved.
  
 This is part of the Gaussian(R) 16 program.  It is based on
 the Gaussian(R) 09 system (copyright 2009, Gaussian, Inc.),
 the Gaussian(R) 03 system (copyright 2003, Gaussian, Inc.),
 the Gaussian(R) 98 system (copyright 1998, Gaussian, Inc.),
 the Gaussian(R) 94 system (copyright 1995, Gaussian, Inc.),
 the Gaussian 92(TM) system (copyright 1992, Gaussian, Inc.),
 the Gaussian 90(TM) system (copyright 1990, Gaussian, Inc.),
 the Gaussian 88(TM) system (copyright 1988, Gaussian, Inc.),
 the Gaussian 86(TM) system (copyright 1986, Carnegie Mellon
 University), and the Gaussian 82(TM) system (copyright 1983,
 Carnegie Mellon University). Gaussian is a federally registered
 trademark of Gaussian, Inc.
  
 This software contains proprietary and confidential information,
 including trade secrets, belonging to Gaussian, Inc.
  
 This software is provided under written license and may be
 used, copied, transmitted, or stored only in accord with that
 written license.
  
 The following legend is applicable only to US Government
 contracts under FAR:
  
                    RESTRICTED RIGHTS LEGEND
  
 Use, reproduction and disclosure by the US Government is
 subject to restrictions as set forth in subparagraphs (a)
 and (c) of the Commercial Computer Software - Restricted
 Rights clause in FAR 52.227-19.
  
 Gaussian, Inc.
 340 Quinnipiac St., Bldg. 40, Wallingford CT 06492
  
  
 ---------------------------------------------------------------
 Warning -- This program may not be used in any manner that
 competes with the business of Gaussian, Inc. or will provide
 assistance to any competitor of Gaussian, Inc.  The licensee
 of this program is prohibited from giving any competitor of
 Gaussian, Inc. access to this program.  By using this program,
 the user acknowledges that Gaussian, Inc. is engaged in the
 business of creating and licensing software in the field of
 computational chemistry and represents and warrants to the
 licensee that it is not a competitor of Gaussian, Inc. and that
 it will not use this program in any manner prohibited above.
 ---------------------------------------------------------------
  

 Cite this work as:
 Gaussian 16, Revision A.03,
 M. J. Frisch, G. W. Trucks, H. B. Schlegel, G. E. Scuseria, 
 M. A. Robb, J. R. Cheeseman, G. Scalmani, V. Barone, 
 G. A. Petersson, H. Nakatsuji, X. Li, M. Caricato, A. V. Marenich, 
 J. Bloino, B. G. Janesko, R. Gomperts, B. Mennucci, H. P. Hratchian, 
 J. V. Ortiz, A. F. Izmaylov, J. L. Sonnenberg, D. Williams-Young, 
 F. Ding, F. Lipparini, F. Egidi, J. Goings, B. Peng, A. Petrone, 
 T. Henderson, D. Ranasinghe, V. G. Zakrzewski, J. Gao, N. Rega, 
 G. Zheng, W. Liang, M. Hada, M. Ehara, K. Toyota, R. Fukuda, 
 J. Hasegawa, M. Ishida, T. Nakajima, Y. Honda, O. Kitao, H. Nakai, 
 T. Vreven, K. Throssell, J. A. Montgomery, Jr., J. E. Peralta, 
 F. Ogliaro, M. J. Bearpark, J. J. Heyd, E. N. Brothers, K. N. Kudin, 
 V. N. Staroverov, T. A. Keith, R. Kobayashi, J. Normand, 
 K. Raghavachari, A. P. Rendell, J. C. Burant, S. S. Iyengar, 
 J. Tomasi, M. Cossi, J. M. Millam, M. Klene, C. Adamo, R. Cammi, 
 J. W. Ochterski, R. L. Martin, K. Morokuma, O. Farkas, 
 J. B. Foresman, and D. J. Fox, Gaussian, Inc., Wallingford CT, 2016.
 
 ******************************************
 Gaussian 16:  ES64L-G16RevA.03 25-Dec-2016
                11-Feb-2020 
 ******************************************
 %chk=checkpoint.chk
 %mem=3GB
 %nprocshared=4
 Will use up to    4 processors via shared memory.
 -------------------------------------------------------------------
 #t pop=none jul-cc-pvdz guess=read ub3lyp empiricaldispersion=gd3bj
 -------------------------------------------------------------------
 ------------------------------
 theory_abbreviation b3lyp_d3bj
 ------------------------------
 Symbolic Z-matrix:
 Charge =  0 Multiplicity = 6
 O                    -0.27653  -0.24076  -0.80407 
 C                    -1.12581  -1.1729   -0.64412 
 C                    -2.94003  -0.17658   0.46874 
 C                    -2.53593   0.97116  -0.13409 
 C                    -2.98819   1.3456   -1.51398 
 Fe                    1.44615   0.12914   0.00688 
 Cl                    2.06139   2.02853  -0.87392 
 C                    -1.62899   1.97005   0.51054 
 Cl                    2.62505  -1.62175  -0.58197 
 Cl                    1.15348   0.22734   2.19004 
 H                    -3.67929  -0.77764  -0.05813 
 H                    -2.18821   2.8987    0.68958 
 H                    -1.20684   1.63817   1.45778 
 H                    -0.80654   2.23118  -0.16621 
 H                    -3.45205   2.33979  -1.48771 
 H                    -2.12647   1.42547  -2.18975 
 H                    -3.71494   0.64341  -1.9293 
 C                    -2.80129  -0.46957   1.94282 
 H                    -3.58861   0.05859   2.49655 
 H                    -2.92546  -1.53477   2.1536 
 H                    -1.84105  -0.15197   2.35589 
 C                    -0.89978  -2.20849   0.42178 
 H                    -1.77572  -2.83801   0.58281 
 H                    -0.08322  -2.83965   0.04104 
 H                    -0.5594   -1.77167   1.35983 
 C                    -1.86326  -1.63044  -1.87604 
 H                    -1.17703  -2.32302  -2.3838 
 H                    -2.77946  -2.17488  -1.64279 
 H                    -2.06243  -0.80811  -2.5602 
 
                    Distance matrix (angstroms):
                    1          2          3          4          5
     1  O    0.000000
     2  C    1.271124   0.000000
     3  C    2.952696   2.350001   0.000000
     4  C    2.650001   2.616398   1.357940   0.000000
     5  C    3.220804   3.250833   2.500103   1.499612   0.000000
     6  Fe   1.939612   2.955353   4.421016   4.072572   4.843154
     7  Cl   3.258901   4.523302   5.628450   4.775010   5.135590
     8  C    2.906032   3.385933   2.515663   1.495276   2.517140
     9  Cl   3.221121   3.778136   5.844880   5.793051   6.417336
    10  Cl   3.350931   3.897217   4.459013   4.423407   5.667769
    11  H    3.524691   2.649501   1.088750   2.090773   2.665565
    12  H    3.967587   4.414225   3.173536   2.124795   2.812071
    13  H    3.084127   3.510939   2.697306   2.178396   3.477082
    14  H    2.607351   3.452262   3.279062   2.139969   2.712986
    15  H    4.148556   4.296742   3.228305   2.131833   1.097394
    16  H    2.849332   3.184619   3.208741   2.144715   1.098001
    17  H    3.724322   3.413833   2.650185   2.172620   1.092580
    18  C    3.737941   3.161357   1.509304   2.541584   3.908862
    19  H    4.685471   4.176816   2.141956   2.976774   4.254554
    20  H    4.176014   3.346176   2.164168   3.415391   4.663854
    21  H    3.527180   3.248688   2.183966   2.818558   4.305173
    22  C    2.400651   1.503225   2.879842   3.618857   4.554135
    23  H    3.304044   2.168021   2.907203   3.949885   4.834164
    24  H    2.739671   2.081944   3.928895   4.535269   5.326648
    25  H    2.665744   2.166836   3.000959   3.696155   4.886220
    26  C    2.366018   1.506914   2.961613   3.202373   3.202087
    27  H    2.764463   2.086116   3.981505   4.214193   4.182780
    28  H    3.272449   2.176199   2.911625   3.497575   3.529010
    29  H    2.568138   2.163722   3.216134   3.045658   2.567115
                    6          7          8          9         10
     6  Fe   0.000000
     7  Cl   2.182207   0.000000
     8  C    3.619275   3.941962   0.000000
     9  Cl   2.191375   3.705064   5.673749   0.000000
    10  Cl   2.204884   3.668306   3.687804   3.642618   0.000000
    11  H    5.205443   6.441701   3.475180   6.382134   5.424009
    12  H    4.620085   4.610948   1.098718   6.724491   4.533700
    13  H    3.379452   4.033672   1.088858   5.428724   2.845659
    14  H    3.085968   2.960903   1.096635   5.176267   3.661830
    15  H    5.577917   5.556225   2.730059   7.310628   6.260922
    16  H    4.389676   4.430941   2.799212   5.869192   5.601437
    17  H    5.536258   6.033108   3.473319   6.865985   6.390897
    18  C    4.706071   6.149811   3.062257   6.094855   4.023301
    19  H    5.617147   6.867551   3.382013   7.135155   4.754979
    20  H    5.146648   6.836053   4.082180   6.188621   4.443427
    21  H    4.050013   5.515005   2.820148   5.544127   3.023003
    22  C    3.337672   5.329142   4.242617   3.711633   3.643604
    23  H    4.417702   6.366213   4.810833   4.711981   4.534277
    24  H    3.339734   5.397749   5.073755   3.034165   3.943857
    25  H    3.076656   5.128329   3.983188   3.732800   2.760295
    26  C    4.194483   5.458500   4.325984   4.671148   5.393053
    27  H    4.313874   5.630556   5.197296   4.265468   5.731981
    28  H    5.087797   6.457063   4.810488   5.535344   5.994097
    29  H    4.447303   5.281670   4.163590   5.152468   5.829153
                   11         12         13         14         15
    11  H    0.000000
    12  H    4.037059   0.000000
    13  H    3.774538   1.772606   0.000000
    14  H    4.161413   1.756980   1.774609   0.000000
    15  H    3.437101   2.578808   3.769494   2.959198   0.000000
    16  H    3.436383   3.234928   3.767677   2.546776   1.756705
    17  H    2.349877   3.778327   4.330404   3.753435   1.772514
    18  C    2.206720   3.645775   2.687025   3.964982   4.481570
    19  H    2.689595   3.645883   3.040882   4.421581   4.593126
    20  H    2.456268   4.726786   3.674967   4.904458   5.343085
    21  H    3.098084   3.493375   2.100817   3.620858   4.855658
    22  C    3.162804   5.274009   3.995549   4.479411   5.554013
    23  H    2.877414   5.752507   4.596235   5.215075   5.822944
    24  H    4.146495   6.146561   4.829136   5.126349   6.364952
    25  H    3.568253   4.991457   3.472152   4.291007   5.777542
    26  C    2.707401   5.215469   4.714771   4.353423   4.293924
    27  H    3.749431   6.142844   5.518123   5.078949   5.265025
    28  H    2.296326   5.615222   5.160040   5.048371   4.567125
    29  H    2.979178   4.931265   4.781267   4.067648   3.604242
                   16         17         18         19         20
    16  H    0.000000
    17  H    1.789608   0.000000
    18  C    4.596159   4.131199   0.000000
    19  H    5.095845   4.466110   1.097928   0.000000
    20  H    5.316582   4.694443   1.092933   1.759601   0.000000
    21  H    4.820024   4.744153   1.092503   1.765814   1.768904
    22  C    4.640099   4.646080   2.992184   4.083401   2.748901
    23  H    5.097779   4.710793   2.917351   3.916539   2.342582
    24  H    5.229005   5.404011   4.077004   5.168860   3.774112
    25  H    5.027617   5.158338   2.657335   3.717275   2.506874
    26  C    3.083227   2.932912   4.100150   4.994921   4.168378
    27  H    3.871728   3.930304   4.979274   5.941856   4.926084
    28  H    3.699739   2.983282   3.970540   4.772555   3.852741
    29  H    2.265001   2.288175   4.575779   5.352679   4.846931
                   21         22         23         24         25
    21  H    0.000000
    22  C    2.975917   0.000000
    23  H    3.219147   1.090635   0.000000
    24  H    3.958807   1.100042   1.777095   0.000000
    25  H    2.293081   1.089314   1.794505   1.762534   0.000000
    26  C    4.482817   2.557813   2.740770   2.881997   3.491539
    27  H    5.255389   2.821572   3.069922   2.709829   3.834087
    28  H    4.578458   2.792272   2.529930   3.247600   3.755925
    29  H    4.964630   3.493572   3.752494   3.848490   4.307461
                   26         27         28         29
    26  C    0.000000
    27  H    1.099271   0.000000
    28  H    1.090980   1.771670   0.000000
    29  H    1.088106   1.763520   1.795499   0.000000
 Framework group  C1[X(C8H16Cl3FeO)]
 Deg. of freedom    81
                         Standard orientation:                         
 ---------------------------------------------------------------------
 Center     Atomic      Atomic             Coordinates (Angstroms)
 Number     Number       Type             X           Y           Z
 ---------------------------------------------------------------------
      1          8           0       -0.276528   -0.240761   -0.804073
      2          6           0       -1.125813   -1.172902   -0.644122
      3          6           0       -2.940029   -0.176580    0.468742
      4          6           0       -2.535927    0.971156   -0.134088
      5          6           0       -2.988185    1.345597   -1.513977
      6         26           0        1.446154    0.129135    0.006876
      7         17           0        2.061390    2.028534   -0.873917
      8          6           0       -1.628993    1.970045    0.510537
      9         17           0        2.625052   -1.621747   -0.581966
     10         17           0        1.153475    0.227335    2.190041
     11          1           0       -3.679289   -0.777640   -0.058134
     12          1           0       -2.188213    2.898698    0.689581
     13          1           0       -1.206842    1.638174    1.457776
     14          1           0       -0.806542    2.231181   -0.166213
     15          1           0       -3.452050    2.339786   -1.487707
     16          1           0       -2.126466    1.425469   -2.189749
     17          1           0       -3.714940    0.643411   -1.929301
     18          6           0       -2.801290   -0.469566    1.942821
     19          1           0       -3.588613    0.058592    2.496551
     20          1           0       -2.925459   -1.534770    2.153595
     21          1           0       -1.841049   -0.151965    2.355894
     22          6           0       -0.899780   -2.208492    0.421781
     23          1           0       -1.775717   -2.838007    0.582812
     24          1           0       -0.083220   -2.839648    0.041040
     25          1           0       -0.559401   -1.771674    1.359831
     26          6           0       -1.863258   -1.630443   -1.876039
     27          1           0       -1.177030   -2.323023   -2.383800
     28          1           0       -2.779458   -2.174879   -1.642792
     29          1           0       -2.062432   -0.808114   -2.560203
 ---------------------------------------------------------------------
 Rotational constants (GHZ):           0.5753249           0.3340305           0.3143891
   427 basis functions,  1056 primitive gaussians,   461 cartesian basis functions
    77 alpha electrons       72 beta electrons
       nuclear repulsion energy      1639.7511726733 Hartrees.
 NAtoms=   29 NActive=   29 NUniq=   29 SFac= 1.00D+00 NAtFMM=   60 NAOKFM=F Big=F
 Nuclear repulsion after empirical dispersion term =     1639.6812932875 Hartrees.
 Initial guess from the checkpoint file:  "checkpoint.chk"
 B after Tr=     0.000000    0.000000    0.000000
         Rot=    1.000000    0.000000    0.000000    0.000000 Ang=   0.00 deg.
 Initial guess <Sx>= 0.0000 <Sy>= 0.0000 <Sz>= 2.5000 <S**2>= 8.7619 S= 2.5020
 SCF Done:  E(UB3LYP) =  -3034.40955835     A.U. after    1 cycles
            NFock=  1  Conv=0.41D-08     -V/T= 2.0024
 <Sx>= 0.0000 <Sy>= 0.0000 <Sz>= 2.5000 <S**2>= 8.7619 S= 2.5020
 <L.S>= 0.000000000000E+00
 Annihilation of the first spin contaminant:
 S**2 before annihilation     8.7619,   after     8.7500
 1\1\GINC-HOLY7C18404\SP\UB3LYP\Jul-CC-pVDZ\C8H16Cl3Fe1O1(6)\EKWAN\11-F
 eb-2020\0\\#t pop=none jul-cc-pvdz guess=read ub3lyp empiricaldispersi
 on=gd3bj\\theory_abbreviation b3lyp_d3bj\\0,6\O,0,-0.276528,-0.240761,
 -0.804073\C,0,-1.125813,-1.172902,-0.644122\C,0,-2.940029,-0.17658,0.4
 68742\C,0,-2.535927,0.971156,-0.134088\C,0,-2.988185,1.345597,-1.51397
 7\Fe,0,1.446154,0.129135,0.006876\Cl,0,2.06139,2.028534,-0.873917\C,0,
 -1.628993,1.970045,0.510537\Cl,0,2.625052,-1.621747,-0.581966\Cl,0,1.1
 53475,0.227335,2.190041\H,0,-3.679289,-0.77764,-0.058134\H,0,-2.188213
 ,2.898698,0.689581\H,0,-1.206842,1.638174,1.457776\H,0,-0.806542,2.231
 181,-0.166213\H,0,-3.45205,2.339786,-1.487707\H,0,-2.126466,1.425469,-
 2.189749\H,0,-3.71494,0.643411,-1.929301\C,0,-2.80129,-0.469566,1.9428
 21\H,0,-3.588613,0.058592,2.496551\H,0,-2.925459,-1.53477,2.153595\H,0
 ,-1.841049,-0.151965,2.355894\C,0,-0.89978,-2.208492,0.421781\H,0,-1.7
 75717,-2.838007,0.582812\H,0,-0.08322,-2.839648,0.04104\H,0,-0.559401,
 -1.771674,1.359831\C,0,-1.863258,-1.630443,-1.876039\H,0,-1.17703,-2.3
 23023,-2.3838\H,0,-2.779458,-2.174879,-1.642792\H,0,-2.062432,-0.80811
 4,-2.560203\\Version=ES64L-G16RevA.03\HF=-3034.4095584\S2=8.761877\S2-
 1=0.\S2A=8.750044\RMSD=4.091e-09\PG=C01 [X(C8H16Cl3Fe1O1)]\\@


 ROSE IS A RED
 TY COBB IS BLUE
 'CAUSE PETE JUST HIT
 NO. 4592.
 Job cpu time:       0 days  0 hours  4 minutes 22.7 seconds.
 Elapsed time:       0 days  0 hours  1 minutes  6.2 seconds.
 File lengths (MBytes):  RWF=    170 Int=      0 D2E=      0 Chk=     13 Scr=      1
 Normal termination of Gaussian 16 at Tue Feb 11 23:53:53 2020.
 Initial command:
 /n/sw/g16_nehalem/g16/l1.exe "/scratch/Gau-155292.inp" -scrdir="/scratch/"
 Entering Link 1 = /n/sw/g16_nehalem/g16/l1.exe PID=    160267.
  
 Copyright (c) 1988,1990,1992,1993,1995,1998,2003,2009,2016,
            Gaussian, Inc.  All Rights Reserved.
  
 This is part of the Gaussian(R) 16 program.  It is based on
 the Gaussian(R) 09 system (copyright 2009, Gaussian, Inc.),
 the Gaussian(R) 03 system (copyright 2003, Gaussian, Inc.),
 the Gaussian(R) 98 system (copyright 1998, Gaussian, Inc.),
 the Gaussian(R) 94 system (copyright 1995, Gaussian, Inc.),
 the Gaussian 92(TM) system (copyright 1992, Gaussian, Inc.),
 the Gaussian 90(TM) system (copyright 1990, Gaussian, Inc.),
 the Gaussian 88(TM) system (copyright 1988, Gaussian, Inc.),
 the Gaussian 86(TM) system (copyright 1986, Carnegie Mellon
 University), and the Gaussian 82(TM) system (copyright 1983,
 Carnegie Mellon University). Gaussian is a federally registered
 trademark of Gaussian, Inc.
  
 This software contains proprietary and confidential information,
 including trade secrets, belonging to Gaussian, Inc.
  
 This software is provided under written license and may be
 used, copied, transmitted, or stored only in accord with that
 written license.
  
 The following legend is applicable only to US Government
 contracts under FAR:
  
                    RESTRICTED RIGHTS LEGEND
  
 Use, reproduction and disclosure by the US Government is
 subject to restrictions as set forth in subparagraphs (a)
 and (c) of the Commercial Computer Software - Restricted
 Rights clause in FAR 52.227-19.
  
 Gaussian, Inc.
 340 Quinnipiac St., Bldg. 40, Wallingford CT 06492
  
  
 ---------------------------------------------------------------
 Warning -- This program may not be used in any manner that
 competes with the business of Gaussian, Inc. or will provide
 assistance to any competitor of Gaussian, Inc.  The licensee
 of this program is prohibited from giving any competitor of
 Gaussian, Inc. access to this program.  By using this program,
 the user acknowledges that Gaussian, Inc. is engaged in the
 business of creating and licensing software in the field of
 computational chemistry and represents and warrants to the
 licensee that it is not a competitor of Gaussian, Inc. and that
 it will not use this program in any manner prohibited above.
 ---------------------------------------------------------------
  

 Cite this work as:
 Gaussian 16, Revision A.03,
 M. J. Frisch, G. W. Trucks, H. B. Schlegel, G. E. Scuseria, 
 M. A. Robb, J. R. Cheeseman, G. Scalmani, V. Barone, 
 G. A. Petersson, H. Nakatsuji, X. Li, M. Caricato, A. V. Marenich, 
 J. Bloino, B. G. Janesko, R. Gomperts, B. Mennucci, H. P. Hratchian, 
 J. V. Ortiz, A. F. Izmaylov, J. L. Sonnenberg, D. Williams-Young, 
 F. Ding, F. Lipparini, F. Egidi, J. Goings, B. Peng, A. Petrone, 
 T. Henderson, D. Ranasinghe, V. G. Zakrzewski, J. Gao, N. Rega, 
 G. Zheng, W. Liang, M. Hada, M. Ehara, K. Toyota, R. Fukuda, 
 J. Hasegawa, M. Ishida, T. Nakajima, Y. Honda, O. Kitao, H. Nakai, 
 T. Vreven, K. Throssell, J. A. Montgomery, Jr., J. E. Peralta, 
 F. Ogliaro, M. J. Bearpark, J. J. Heyd, E. N. Brothers, K. N. Kudin, 
 V. N. Staroverov, T. A. Keith, R. Kobayashi, J. Normand, 
 K. Raghavachari, A. P. Rendell, J. C. Burant, S. S. Iyengar, 
 J. Tomasi, M. Cossi, J. M. Millam, M. Klene, C. Adamo, R. Cammi, 
 J. W. Ochterski, R. L. Martin, K. Morokuma, O. Farkas, 
 J. B. Foresman, and D. J. Fox, Gaussian, Inc., Wallingford CT, 2016.
 
 ******************************************
 Gaussian 16:  ES64L-G16RevA.03 25-Dec-2016
                11-Feb-2020 
 ******************************************
 %chk=checkpoint.chk
 %mem=3GB
 %nprocshared=4
 Will use up to    4 processors via shared memory.
 ----------------------------------------
 #t pop=none jul-cc-pvdz guess=read ub97d
 ----------------------------------------
 ------------------------
 theory_abbreviation b97d
 ------------------------
 Symbolic Z-matrix:
 Charge =  0 Multiplicity = 6
 O                    -0.27653  -0.24076  -0.80407 
 C                    -1.12581  -1.1729   -0.64412 
 C                    -2.94003  -0.17658   0.46874 
 C                    -2.53593   0.97116  -0.13409 
 C                    -2.98819   1.3456   -1.51398 
 Fe                    1.44615   0.12914   0.00688 
 Cl                    2.06139   2.02853  -0.87392 
 C                    -1.62899   1.97005   0.51054 
 Cl                    2.62505  -1.62175  -0.58197 
 Cl                    1.15348   0.22734   2.19004 
 H                    -3.67929  -0.77764  -0.05813 
 H                    -2.18821   2.8987    0.68958 
 H                    -1.20684   1.63817   1.45778 
 H                    -0.80654   2.23118  -0.16621 
 H                    -3.45205   2.33979  -1.48771 
 H                    -2.12647   1.42547  -2.18975 
 H                    -3.71494   0.64341  -1.9293 
 C                    -2.80129  -0.46957   1.94282 
 H                    -3.58861   0.05859   2.49655 
 H                    -2.92546  -1.53477   2.1536 
 H                    -1.84105  -0.15197   2.35589 
 C                    -0.89978  -2.20849   0.42178 
 H                    -1.77572  -2.83801   0.58281 
 H                    -0.08322  -2.83965   0.04104 
 H                    -0.5594   -1.77167   1.35983 
 C                    -1.86326  -1.63044  -1.87604 
 H                    -1.17703  -2.32302  -2.3838 
 H                    -2.77946  -2.17488  -1.64279 
 H                    -2.06243  -0.80811  -2.5602 
 
                    Distance matrix (angstroms):
                    1          2          3          4          5
     1  O    0.000000
     2  C    1.271124   0.000000
     3  C    2.952696   2.350001   0.000000
     4  C    2.650001   2.616398   1.357940   0.000000
     5  C    3.220804   3.250833   2.500103   1.499612   0.000000
     6  Fe   1.939612   2.955353   4.421016   4.072572   4.843154
     7  Cl   3.258901   4.523302   5.628450   4.775010   5.135590
     8  C    2.906032   3.385933   2.515663   1.495276   2.517140
     9  Cl   3.221121   3.778136   5.844880   5.793051   6.417336
    10  Cl   3.350931   3.897217   4.459013   4.423407   5.667769
    11  H    3.524691   2.649501   1.088750   2.090773   2.665565
    12  H    3.967587   4.414225   3.173536   2.124795   2.812071
    13  H    3.084127   3.510939   2.697306   2.178396   3.477082
    14  H    2.607351   3.452262   3.279062   2.139969   2.712986
    15  H    4.148556   4.296742   3.228305   2.131833   1.097394
    16  H    2.849332   3.184619   3.208741   2.144715   1.098001
    17  H    3.724322   3.413833   2.650185   2.172620   1.092580
    18  C    3.737941   3.161357   1.509304   2.541584   3.908862
    19  H    4.685471   4.176816   2.141956   2.976774   4.254554
    20  H    4.176014   3.346176   2.164168   3.415391   4.663854
    21  H    3.527180   3.248688   2.183966   2.818558   4.305173
    22  C    2.400651   1.503225   2.879842   3.618857   4.554135
    23  H    3.304044   2.168021   2.907203   3.949885   4.834164
    24  H    2.739671   2.081944   3.928895   4.535269   5.326648
    25  H    2.665744   2.166836   3.000959   3.696155   4.886220
    26  C    2.366018   1.506914   2.961613   3.202373   3.202087
    27  H    2.764463   2.086116   3.981505   4.214193   4.182780
    28  H    3.272449   2.176199   2.911625   3.497575   3.529010
    29  H    2.568138   2.163722   3.216134   3.045658   2.567115
                    6          7          8          9         10
     6  Fe   0.000000
     7  Cl   2.182207   0.000000
     8  C    3.619275   3.941962   0.000000
     9  Cl   2.191375   3.705064   5.673749   0.000000
    10  Cl   2.204884   3.668306   3.687804   3.642618   0.000000
    11  H    5.205443   6.441701   3.475180   6.382134   5.424009
    12  H    4.620085   4.610948   1.098718   6.724491   4.533700
    13  H    3.379452   4.033672   1.088858   5.428724   2.845659
    14  H    3.085968   2.960903   1.096635   5.176267   3.661830
    15  H    5.577917   5.556225   2.730059   7.310628   6.260922
    16  H    4.389676   4.430941   2.799212   5.869192   5.601437
    17  H    5.536258   6.033108   3.473319   6.865985   6.390897
    18  C    4.706071   6.149811   3.062257   6.094855   4.023301
    19  H    5.617147   6.867551   3.382013   7.135155   4.754979
    20  H    5.146648   6.836053   4.082180   6.188621   4.443427
    21  H    4.050013   5.515005   2.820148   5.544127   3.023003
    22  C    3.337672   5.329142   4.242617   3.711633   3.643604
    23  H    4.417702   6.366213   4.810833   4.711981   4.534277
    24  H    3.339734   5.397749   5.073755   3.034165   3.943857
    25  H    3.076656   5.128329   3.983188   3.732800   2.760295
    26  C    4.194483   5.458500   4.325984   4.671148   5.393053
    27  H    4.313874   5.630556   5.197296   4.265468   5.731981
    28  H    5.087797   6.457063   4.810488   5.535344   5.994097
    29  H    4.447303   5.281670   4.163590   5.152468   5.829153
                   11         12         13         14         15
    11  H    0.000000
    12  H    4.037059   0.000000
    13  H    3.774538   1.772606   0.000000
    14  H    4.161413   1.756980   1.774609   0.000000
    15  H    3.437101   2.578808   3.769494   2.959198   0.000000
    16  H    3.436383   3.234928   3.767677   2.546776   1.756705
    17  H    2.349877   3.778327   4.330404   3.753435   1.772514
    18  C    2.206720   3.645775   2.687025   3.964982   4.481570
    19  H    2.689595   3.645883   3.040882   4.421581   4.593126
    20  H    2.456268   4.726786   3.674967   4.904458   5.343085
[...]
 Rotational constants (GHZ):           0.5753249           0.3340305           0.3143891
   427 basis functions,  1056 primitive gaussians,   461 cartesian basis functions
    77 alpha electrons       72 beta electrons
       nuclear repulsion energy      1639.7511726733 Hartrees.
 NAtoms=   29 NActive=   29 NUniq=   29 SFac= 1.00D+00 NAtFMM=   60 NAOKFM=F Big=F
 Nuclear repulsion after empirical dispersion term =     1639.7487150410 Hartrees.
 Initial guess from the checkpoint file:  "checkpoint.chk"
 B after Tr=     0.000000    0.000000    0.000000
         Rot=    1.000000    0.000000    0.000000    0.000000 Ang=   0.00 deg.
 Initial guess <Sx>= 0.0000 <Sy>= 0.0000 <Sz>= 2.5000 <S**2>= 8.7616 S= 2.5019
 SCF Done:  E(UM06L) =  -3034.20850005     A.U. after   17 cycles
            NFock= 17  Conv=0.70D-08     -V/T= 2.0020
 <Sx>= 0.0000 <Sy>= 0.0000 <Sz>= 2.5000 <S**2>= 8.7615 S= 2.5019
 <L.S>= 0.000000000000E+00
 Annihilation of the first spin contaminant:
 S**2 before annihilation     8.7615,   after     8.7500
 1\1\GINC-HOLY7C18404\SP\UM06L\Jul-CC-pVDZ\C8H16Cl3Fe1O1(6)\EKWAN\12-Fe
 b-2020\0\\#t pop=none jul-cc-pvdz guess=read um06l empiricaldispersion
 =gd3\\theory_abbreviation m06l_d3\\0,6\O,0,-0.276528,-0.240761,-0.8040
 73\C,0,-1.125813,-1.172902,-0.644122\C,0,-2.940029,-0.17658,0.468742\C
 ,0,-2.535927,0.971156,-0.134088\C,0,-2.988185,1.345597,-1.513977\Fe,0,
 1.446154,0.129135,0.006876\Cl,0,2.06139,2.028534,-0.873917\C,0,-1.6289
 93,1.970045,0.510537\Cl,0,2.625052,-1.621747,-0.581966\Cl,0,1.153475,0
 .227335,2.190041\H,0,-3.679289,-0.77764,-0.058134\H,0,-2.188213,2.8986
 98,0.689581\H,0,-1.206842,1.638174,1.457776\H,0,-0.806542,2.231181,-0.
 166213\H,0,-3.45205,2.339786,-1.487707\H,0,-2.126466,1.425469,-2.18974
 9\H,0,-3.71494,0.643411,-1.929301\C,0,-2.80129,-0.469566,1.942821\H,0,
 -3.588613,0.058592,2.496551\H,0,-2.925459,-1.53477,2.153595\H,0,-1.841
 049,-0.151965,2.355894\C,0,-0.89978,-2.208492,0.421781\H,0,-1.775717,-
 2.838007,0.582812\H,0,-0.08322,-2.839648,0.04104\H,0,-0.559401,-1.7716
 74,1.359831\C,0,-1.863258,-1.630443,-1.876039\H,0,-1.17703,-2.323023,-
 2.3838\H,0,-2.779458,-2.174879,-1.642792\H,0,-2.062432,-0.808114,-2.56
 0203\\Version=ES64L-G16RevA.03\HF=-3034.2085001\S2=8.761539\S2-1=0.\S2
 A=8.750043\RMSD=7.004e-09\PG=C01 [X(C8H16Cl3Fe1O1)]\\@


 IT IS A SIMPLE TASK TO MAKE THINGS COMPLEX,
 BUT A COMPLEX TASK TO MAKE THEM SIMPLE.
 Job cpu time:       0 days  1 hours 12 minutes 40.6 seconds.
 Elapsed time:       0 days  0 hours 18 minutes 13.5 seconds.
 File lengths (MBytes):  RWF=    174 Int=      0 D2E=      0 Chk=     13 Scr=      1
 Normal termination of Gaussian 16 at Wed Feb 12 08:30:38 2020.
 Initial command:
 /n/sw/g16_nehalem/g16/l1.exe "/scratch/Gau-155292.inp" -scrdir="/scratch/"
 Entering Link 1 = /n/sw/g16_nehalem/g16/l1.exe PID=    207985.
  
 Copyright (c) 1988,1990,1992,1993,1995,1998,2003,2009,2016,
            Gaussian, Inc.  All Rights Reserved.
  
 This is part of the Gaussian(R) 16 program.  It is based on
 the Gaussian(R) 09 system (copyright 2009, Gaussian, Inc.),
 the Gaussian(R) 03 system (copyright 2003, Gaussian, Inc.),
 the Gaussian(R) 98 system (copyright 1998, Gaussian, Inc.),
 the Gaussian(R) 94 system (copyright 1995, Gaussian, Inc.),
 the Gaussian 92(TM) system (copyright 1992, Gaussian, Inc.),
 the Gaussian 90(TM) system (copyright 1990, Gaussian, Inc.),
 the Gaussian 88(TM) system (copyright 1988, Gaussian, Inc.),
 the Gaussian 86(TM) system (copyright 1986, Carnegie Mellon
 University), and the Gaussian 82(TM) system (copyright 1983,
 Carnegie Mellon University). Gaussian is a federally registered
 trademark of Gaussian, Inc.
  
 This software contains proprietary and confidential information,
 including trade secrets, belonging to Gaussian, Inc.
  
 This software is provided under written license and may be
 used, copied, transmitted, or stored only in accord with that
 written license.
  
 The following legend is applicable only to US Government
 contracts under FAR:
  
                    RESTRICTED RIGHTS LEGEND
  
 Use, reproduction and disclosure by the US Government is
 subject to restrictions as set forth in subparagraphs (a)
 and (c) of the Commercial Computer Software - Restricted
 Rights clause in FAR 52.227-19.
  
 Gaussian, Inc.
 340 Quinnipiac St., Bldg. 40, Wallingford CT 06492
  
  
 ---------------------------------------------------------------
 Warning -- This program may not be used in any manner that
 competes with the business of Gaussian, Inc. or will provide
 assistance to any competitor of Gaussian, Inc.  The licensee
 of this program is prohibited from giving any competitor of
 Gaussian, Inc. access to this program.  By using this program,
 the user acknowledges that Gaussian, Inc. is engaged in the
 business of creating and licensing software in the field of
 computational chemistry and represents and warrants to the
 licensee that it is not a competitor of Gaussian, Inc. and that
 it will not use this program in any manner prohibited above.
 ---------------------------------------------------------------
  

 Cite this work as:
 Gaussian 16, Revision A.03,
 M. J. Frisch, G. W. Trucks, H. B. Schlegel, G. E. Scuseria, 
 M. A. Robb, J. R. Cheeseman, G. Scalmani, V. Barone, 
 G. A. Petersson, H. Nakatsuji, X. Li, M. Caricato, A. V. Marenich, 
 J. Bloino, B. G. Janesko, R. Gomperts, B. Mennucci, H. P. Hratchian, 
 J. V. Ortiz, A. F. Izmaylov, J. L. Sonnenberg, D. Williams-Young, 
 F. Ding, F. Lipparini, F. Egidi, J. Goings, B. Peng, A. Petrone, 
 T. Henderson, D. Ranasinghe, V. G. Zakrzewski, J. Gao, N. Rega, 
 G. Zheng, W. Liang, M. Hada, M. Ehara, K. Toyota, R. Fukuda, 
 J. Hasegawa, M. Ishida, T. Nakajima, Y. Honda, O. Kitao, H. Nakai, 
 T. Vreven, K. Throssell, J. A. Montgomery, Jr., J. E. Peralta, 
 F. Ogliaro, M. J. Bearpark, J. J. Heyd, E. N. Brothers, K. N. Kudin, 
 V. N. Staroverov, T. A. Keith, R. Kobayashi, J. Normand, 
 K. Raghavachari, A. P. Rendell, J. C. Burant, S. S. Iyengar, 
 J. Tomasi, M. Cossi, J. M. Millam, M. Klene, C. Adamo, R. Cammi, 
 J. W. Ochterski, R. L. Martin, K. Morokuma, O. Farkas, 
 J. B. Foresman, and D. J. Fox, Gaussian, Inc., Wallingford CT, 2016.
 
 ******************************************
 Gaussian 16:  ES64L-G16RevA.03 25-Dec-2016
                12-Feb-2020 
 ******************************************
 %chk=checkpoint.chk
 %mem=3GB
 %nprocshared=4
 Will use up to    4 processors via shared memory.
 -------------------------------------------------------------------
 #t pop=none jul-cc-pvdz guess=read ub97d3 empiricaldispersion=gd3bj
 -------------------------------------------------------------------
 ------------------------------
 theory_abbreviation b97d3_d3bj
 ------------------------------
 Symbolic Z-matrix:
 Charge =  0 Multiplicity = 6
 O                    -0.27653  -0.24076  -0.80407 
 C                    -1.12581  -1.1729   -0.64412 
 C                    -2.94003  -0.17658   0.46874 
 C                    -2.53593   0.97116  -0.13409 
 C                    -2.98819   1.3456   -1.51398 
 Fe                    1.44615   0.12914   0.00688 
 Cl                    2.06139   2.02853  -0.87392 
 C                    -1.62899   1.97005   0.51054 
 Cl                    2.62505  -1.62175  -0.58197 
 Cl                    1.15348   0.22734   2.19004 
 H                    -3.67929  -0.77764  -0.05813 
 H                    -2.18821   2.8987    0.68958 
 H                    -1.20684   1.63817   1.45778 
 H                    -0.80654   2.23118  -0.16621 
 H                    -3.45205   2.33979  -1.48771 
 H                    -2.12647   1.42547  -2.18975 
 H                    -3.71494   0.64341  -1.9293 
 C                    -2.80129  -0.46957   1.94282 
 H                    -3.58861   0.05859   2.49655 
 H                    -2.92546  -1.53477   2.1536 
 H                    -1.84105  -0.15197   2.35589 
 C                    -0.89978  -2.20849   0.42178 
 H                    -1.77572  -2.83801   0.58281 
 H                    -0.08322  -2.83965   0.04104 
 H                    -0.5594   -1.77167   1.35983 
 C                    -1.86326  -1.63044  -1.87604 
 H                    -1.17703  -2.32302  -2.3838 
 H                    -2.77946  -2.17488  -1.64279 
 H                    -2.06243  -0.80811  -2.5602 
 
                    Distance matrix (angstroms):
                    1          2          3          4          5
     1  O    0.000000
     2  C    1.271124   0.000000
     3  C    2.952696   2.350001   0.000000
     4  C    2.650001   2.616398   1.357940   0.000000
     5  C    3.220804   3.250833   2.500103   1.499612   0.000000
     6  Fe   1.939612   2.955353   4.421016   4.072572   4.843154
     7  Cl   3.258901   4.523302   5.628450   4.775010   5.135590
     8  C    2.906032   3.385933   2.515663   1.495276   2.517140
     9  Cl   3.221121   3.778136   5.844880   5.793051   6.417336
    10  Cl   3.350931   3.897217   4.459013   4.423407   5.667769
    11  H    3.524691   2.649501   1.088750   2.090773   2.665565
    12  H    3.967587   4.414225   3.173536   2.124795   2.812071
    13  H    3.084127   3.510939   2.697306   2.178396   3.477082
    14  H    2.607351   3.452262   3.279062   2.139969   2.712986
    15  H    4.148556   4.296742   3.228305   2.131833   1.097394
    16  H    2.849332   3.184619   3.208741   2.144715   1.098001
    17  H    3.724322   3.413833   2.650185   2.172620   1.092580
    18  C    3.737941   3.161357   1.509304   2.541584   3.908862
    19  H    4.685471   4.176816   2.141956   2.976774   4.254554
    20  H    4.176014   3.346176   2.164168   3.415391   4.663854
    21  H    3.527180   3.248688   2.183966   2.818558   4.305173
    22  C    2.400651   1.503225   2.879842   3.618857   4.554135
    23  H    3.304044   2.168021   2.907203   3.949885   4.834164
    24  H    2.739671   2.081944   3.928895   4.535269   5.326648
    25  H    2.665744   2.166836   3.000959   3.696155   4.886220
    26  C    2.366018   1.506914   2.961613   3.202373   3.202087
    27  H    2.764463   2.086116   3.981505   4.214193   4.182780
    28  H    3.272449   2.176199   2.911625   3.497575   3.529010
    29  H    2.568138   2.163722   3.216134   3.045658   2.567115
                    6          7          8          9         10
     6  Fe   0.000000
     7  Cl   2.182207   0.000000
     8  C    3.619275   3.941962   0.000000
     9  Cl   2.191375   3.705064   5.673749   0.000000
    10  Cl   2.204884   3.668306   3.687804   3.642618   0.000000
    11  H    5.205443   6.441701   3.475180   6.382134   5.424009
    12  H    4.620085   4.610948   1.098718   6.724491   4.533700
    13  H    3.379452   4.033672   1.088858   5.428724   2.845659
    14  H    3.085968   2.960903   1.096635   5.176267   3.661830
    15  H    5.577917   5.556225   2.730059   7.310628   6.260922
    16  H    4.389676   4.430941   2.799212   5.869192   5.601437
    17  H    5.536258   6.033108   3.473319   6.865985   6.390897
    18  C    4.706071   6.149811   3.062257   6.094855   4.023301
    19  H    5.617147   6.867551   3.382013   7.135155   4.754979
    20  H    5.146648   6.836053   4.082180   6.188621   4.443427
    21  H    4.050013   5.515005   2.820148   5.544127   3.023003
    22  C    3.337672   5.329142   4.242617   3.711633   3.643604
    23  H    4.417702   6.366213   4.810833   4.711981   4.534277
    24  H    3.339734   5.397749   5.073755   3.034165   3.943857
    25  H    3.076656   5.128329   3.983188   3.732800   2.760295
    26  C    4.194483   5.458500   4.325984   4.671148   5.393053
    27  H    4.313874   5.630556   5.197296   4.265468   5.731981
    28  H    5.087797   6.457063   4.810488   5.535344   5.994097
    29  H    4.447303   5.281670   4.163590   5.152468   5.829153
                   11         12         13         14         15
    11  H    0.000000
    12  H    4.037059   0.000000
    13  H    3.774538   1.772606   0.000000
    14  H    4.161413   1.756980   1.774609   0.000000
    15  H    3.437101   2.578808   3.769494   2.959198   0.000000
    16  H    3.436383   3.234928   3.767677   2.546776   1.756705
    17  H    2.349877   3.778327   4.330404   3.753435   1.772514
    18  C    2.206720   3.645775   2.687025   3.964982   4.481570
    19  H    2.689595   3.645883   3.040882   4.421581   4.593126
    20  H    2.456268   4.726786   3.674967   4.904458   5.343085
    21  H    3.098084   3.493375   2.100817   3.620858   4.855658
    22  C    3.162804   5.274009   3.995549   4.479411   5.554013
    23  H    2.877414   5.752507   4.596235   5.215075   5.822944
    24  H    4.146495   6.146561   4.829136   5.126349   6.364952
    25  H    3.568253   4.991457   3.472152   4.291007   5.777542
    26  C    2.707401   5.215469   4.714771   4.353423   4.293924
    27  H    3.749431   6.142844   5.518123   5.078949   5.265025
    28  H    2.296326   5.615222   5.160040   5.048371   4.567125
    29  H    2.979178   4.931265   4.781267   4.067648   3.604242
                   16         17         18         19         20
    16  H    0.000000
    17  H    1.789608   0.000000
    18  C    4.596159   4.131199   0.000000
    19  H    5.095845   4.466110   1.097928   0.000000
    20  H    5.316582   4.694443   1.092933   1.759601   0.000000
    21  H    4.820024   4.744153   1.092503   1.765814   1.768904
    22  C    4.640099   4.646080   2.992184   4.083401   2.748901
    23  H    5.097779   4.710793   2.917351   3.916539   2.342582
    24  H    5.229005   5.404011   4.077004   5.168860   3.774112
    25  H    5.027617   5.158338   2.657335   3.717275   2.506874
    26  C    3.083227   2.932912   4.100150   4.994921   4.168378
    27  H    3.871728   3.930304   4.979274   5.941856   4.926084
    28  H    3.699739   2.983282   3.970540   4.772555   3.852741
    29  H    2.265001   2.288175   4.575779   5.352679   4.846931
                   21         22         23         24         25
    21  H    0.000000
    22  C    2.975917   0.000000
    23  H    3.219147   1.090635   0.000000
    24  H    3.958807   1.100042   1.777095   0.000000
    25  H    2.293081   1.089314   1.794505   1.762534   0.000000
    26  C    4.482817   2.557813   2.740770   2.881997   3.491539
    27  H    5.255389   2.821572   3.069922   2.709829   3.834087
    28  H    4.578458   2.792272   2.529930   3.247600   3.755925
    29  H    4.964630   3.493572   3.752494   3.848490   4.307461
                   26         27         28         29
    26  C    0.000000
    27  H    1.099271   0.000000
    28  H    1.090980   1.771670   0.000000
    29  H    1.088106   1.763520   1.795499   0.000000
 Framework group  C1[X(C8H16Cl3FeO)]
 Deg. of freedom    81
                         Standard orientation:                         
 ---------------------------------------------------------------------
 Center     Atomic      Atomic             Coordinates (Angstroms)
 Number     Number       Type             X           Y           Z
 ---------------------------------------------------------------------
      1          8           0       -0.276528   -0.240761   -0.804073
      2          6           0       -1.125813   -1.172902   -0.644122
      3          6           0       -2.940029   -0.176580    0.468742
      4          6           0       -2.535927    0.971156   -0.134088
      5          6           0       -2.988185    1.345597   -1.513977
      6         26           0        1.446154    0.129135    0.006876
      7         17           0        2.061390    2.028534   -0.873917
      8          6           0       -1.628993    1.970045    0.510537
      9         17           0        2.625052   -1.621747   -0.581966
     10         17           0        1.153475    0.227335    2.190041
     11          1           0       -3.679289   -0.777640   -0.058134
     12          1           0       -2.188213    2.898698    0.689581
     13          1           0       -1.206842    1.638174    1.457776
     14          1           0       -0.806542    2.231181   -0.166213
     15          1           0       -3.452050    2.339786   -1.487707
     16          1           0       -2.126466    1.425469   -2.189749
     17          1           0       -3.714940    0.643411   -1.929301
     18          6           0       -2.801290   -0.469566    1.942821
     19          1           0       -3.588613    0.058592    2.496551
     20          1           0       -2.925459   -1.534770    2.153595
     21          1           0       -1.841049   -0.151965    2.355894
     22          6           0       -0.899780   -2.208492    0.421781
     23          1           0       -1.775717   -2.838007    0.582812
     24          1           0       -0.083220   -2.839648    0.041040
     25          1           0       -0.559401   -1.771674    1.359831
     26          6           0       -1.863258   -1.630443   -1.876039
     27          1           0       -1.177030   -2.323023   -2.383800
     28          1           0       -2.779458   -2.174879   -1.642792
     29          1           0       -2.062432   -0.808114   -2.560203
 ---------------------------------------------------------------------
 Rotational constants (GHZ):           0.5753249           0.3340305           0.3143891
   427 basis functions,  1056 primitive gaussians,   461 cartesian basis functions
    77 alpha electrons       72 beta electrons
       nuclear repulsion energy      1639.7511726733 Hartrees.
 NAtoms=   29 NActive=   29 NUniq=   29 SFac= 1.00D+00 NAtFMM=   60 NAOKFM=F Big=F
 Nuclear repulsion after empirical dispersion term =     1639.6485243062 Hartrees.
 Initial guess from the checkpoint file:  "checkpoint.chk"
 B after Tr=     0.000000    0.000000    0.000000
         Rot=    1.000000    0.000000    0.000000    0.000000 Ang=   0.00 deg.
 Initial guess <Sx>= 0.0000 <Sy>= 0.0000 <Sz>= 2.5000 <S**2>= 8.7615 S= 2.5019
 SCF Done:  E(UB97D3) =  -3034.62972876     A.U. after   17 cycles
            NFock= 17  Conv=0.47D-08     -V/T= 2.0019
 <Sx>= 0.0000 <Sy>= 0.0000 <Sz>= 2.5000 <S**2>= 8.7596 S= 2.5016
 <L.S>= 0.000000000000E+00
 Annihilation of the first spin contaminant:
 S**2 before annihilation     8.7596,   after     8.7500
 1\1\GINC-HOLY7C18404\SP\UB97D3\Jul-CC-pVDZ\C8H16Cl3Fe1O1(6)\EKWAN\12-F
 eb-2020\0\\#t pop=none jul-cc-pvdz guess=read ub97d3 empiricaldispersi
 on=gd3bj\\theory_abbreviation b97d3_d3bj\\0,6\O,0,-0.276528,-0.240761,
 -0.804073\C,0,-1.125813,-1.172902,-0.644122\C,0,-2.940029,-0.17658,0.4
 68742\C,0,-2.535927,0.971156,-0.134088\C,0,-2.988185,1.345597,-1.51397
 7\Fe,0,1.446154,0.129135,0.006876\Cl,0,2.06139,2.028534,-0.873917\C,0,
 -1.628993,1.970045,0.510537\Cl,0,2.625052,-1.621747,-0.581966\Cl,0,1.1
 53475,0.227335,2.190041\H,0,-3.679289,-0.77764,-0.058134\H,0,-2.188213
 ,2.898698,0.689581\H,0,-1.206842,1.638174,1.457776\H,0,-0.806542,2.231
 181,-0.166213\H,0,-3.45205,2.339786,-1.487707\H,0,-2.126466,1.425469,-
 2.189749\H,0,-3.71494,0.643411,-1.929301\C,0,-2.80129,-0.469566,1.9428
 21\H,0,-3.588613,0.058592,2.496551\H,0,-2.925459,-1.53477,2.153595\H,0
 ,-1.841049,-0.151965,2.355894\C,0,-0.89978,-2.208492,0.421781\H,0,-1.7
 75717,-2.838007,0.582812\H,0,-0.08322,-2.839648,0.04104\H,0,-0.559401,
 -1.771674,1.359831\C,0,-1.863258,-1.630443,-1.876039\H,0,-1.17703,-2.3
 23023,-2.3838\H,0,-2.779458,-2.174879,-1.642792\H,0,-2.062432,-0.80811
 4,-2.560203\\Version=ES64L-G16RevA.03\HF=-3034.6297288\S2=8.75963\S2-1
 =0.\S2A=8.750029\RMSD=4.673e-09\PG=C01 [X(C8H16Cl3Fe1O1)]\\@


 "THE TIME HAS COME", THE WALRUS SAID,
 "TO TALK OF MANY THINGS,
 OF SHOES AND SHIPS AND SEALING WAX,
 OF CABBAGES AND KINGS,
 AND WHY THE SEA IS BOILING HOT,
 AND WHETHER PIGS HAVE WINGS."
 Job cpu time:       0 days  0 hours 52 minutes 37.1 seconds.
 Elapsed time:       0 days  0 hours 13 minutes 11.6 seconds.
 File lengths (MBytes):  RWF=    174 Int=      0 D2E=      0 Chk=     13 Scr=      1
 Normal termination of Gaussian 16 at Wed Feb 12 08:43:58 2020.
