 Entering Gaussian System, Link 0=g16
 Input=simple-grid-245-260-b3lyp_d3bj-631gd-gas-singlepoint-DFT-juldz2-gas.gjf
 Output=simple-grid-245-260-b3lyp_d3bj-631gd-gas-singlepoint-DFT-juldz2-gas.out
 Initial command:
 /n/sw/g16_nehalem/g16/l1.exe "/scratch/Gau-270323.inp" -scrdir="/scratch/"
 Entering Link 1 = /n/sw/g16_nehalem/g16/l1.exe PID=    270330.
  
 Copyright (c) 1988,1990,1992,1993,1995,1998,2003,2009,2016,
            Gaussian, Inc.  All Rights Reserved.
  
 This is part of the Gaussian(R) 16 program.  It is based on
 the Gaussian(R) 09 system (copyright 2009, Gaussian, Inc.),
 the Gaussian(R) 03 system (copyright 2003, Gaussian, Inc.),
 the Gaussian(R) 98 system (copyright 1998, Gaussian, Inc.),
 the Gaussian(R) 94 system (copyright 1995, Gaussian, Inc.),
 the Gaussian 92(TM) system (copyright 1992, Gaussian, Inc.),
 the Gaussian 90(TM) system (copyright 1990, Gaussian, Inc.),
 the Gaussian 88(TM) system (copyright 1988, Gaussian, Inc.),
 the Gaussian 86(TM) system (copyright 1986, Carnegie Mellon
 University), and the Gaussian 82(TM) system (copyright 1983,
 Carnegie Mellon University). Gaussian is a federally registered
 trademark of Gaussian, Inc.
  
 This software contains proprietary and confidential information,
 including trade secrets, belonging to Gaussian, Inc.
  
 This software is provided under written license and may be
 used, copied, transmitted, or stored only in accord with that
 written license.
  
 The following legend is applicable only to US Government
 contracts under FAR:
  
                    RESTRICTED RIGHTS LEGEND
  
 Use, reproduction and disclosure by the US Government is
 subject to restrictions as set forth in subparagraphs (a)
 and (c) of the Commercial Computer Software - Restricted
 Rights clause in FAR 52.227-19.
  
 Gaussian, Inc.
 340 Quinnipiac St., Bldg. 40, Wallingford CT 06492
  
  
 ---------------------------------------------------------------
 Warning -- This program may not be used in any manner that
 competes with the business of Gaussian, Inc. or will provide
 assistance to any competitor of Gaussian, Inc.  The licensee
 of this program is prohibited from giving any competitor of
 Gaussian, Inc. access to this program.  By using this program,
 the user acknowledges that Gaussian, Inc. is engaged in the
 business of creating and licensing software in the field of
 computational chemistry and represents and warrants to the
 licensee that it is not a competitor of Gaussian, Inc. and that
 it will not use this program in any manner prohibited above.
 ---------------------------------------------------------------
  

 Cite this work as:
 Gaussian 16, Revision A.03,
 M. J. Frisch, G. W. Trucks, H. B. Schlegel, G. E. Scuseria, 
 M. A. Robb, J. R. Cheeseman, G. Scalmani, V. Barone, 
 G. A. Petersson, H. Nakatsuji, X. Li, M. Caricato, A. V. Marenich, 
 J. Bloino, B. G. Janesko, R. Gomperts, B. Mennucci, H. P. Hratchian, 
 J. V. Ortiz, A. F. Izmaylov, J. L. Sonnenberg, D. Williams-Young, 
 F. Ding, F. Lipparini, F. Egidi, J. Goings, B. Peng, A. Petrone, 
 T. Henderson, D. Ranasinghe, V. G. Zakrzewski, J. Gao, N. Rega, 
 G. Zheng, W. Liang, M. Hada, M. Ehara, K. Toyota, R. Fukuda, 
 J. Hasegawa, M. Ishida, T. Nakajima, Y. Honda, O. Kitao, H. Nakai, 
 T. Vreven, K. Throssell, J. A. Montgomery, Jr., J. E. Peralta, 
 F. Ogliaro, M. J. Bearpark, J. J. Heyd, E. N. Brothers, K. N. Kudin, 
 V. N. Staroverov, T. A. Keith, R. Kobayashi, J. Normand, 
 K. Raghavachari, A. P. Rendell, J. C. Burant, S. S. Iyengar, 
 J. Tomasi, M. Cossi, J. M. Millam, M. Klene, C. Adamo, R. Cammi, 
 J. W. Ochterski, R. L. Martin, K. Morokuma, O. Farkas, 
 J. B. Foresman, and D. J. Fox, Gaussian, Inc., Wallingford CT, 2016.
 
 ******************************************
 Gaussian 16:  ES64L-G16RevA.03 25-Dec-2016
                11-Feb-2020 
 ******************************************
 %chk=checkpoint.chk
 %mem=3GB
 %nprocshared=4
 Will use up to    4 processors via shared memory.
 --------------------------------
 #t pop=none jul-cc-pvdz upbe1pbe
 --------------------------------
 ------------------------
 theory_abbreviation pbe0
 ------------------------
 Symbolic Z-matrix:
 Charge =  0 Multiplicity = 6
 O                    -0.27927  -0.23319  -0.78737 
 C                    -1.11042  -1.17679  -0.64462 
 C                    -3.06342  -0.09049   0.35949 
 C                    -2.48206   1.0071   -0.17959 
 C                    -2.74832   1.43159  -1.59409 
 Fe                    1.45434   0.11624   0.03129 
 Cl                    2.09565   2.00258  -0.85398 
 C                    -1.58819   1.93555   0.58338 
 Cl                    2.58453  -1.66016  -0.57863 
 Cl                    1.1865    0.20172   2.21416 
 H                    -3.77483  -0.63263  -0.26173 
 H                    -2.14528   2.85474   0.81286 
 H                    -1.21945   1.52347   1.52191 
 H                    -0.73025   2.23837  -0.02684 
 H                    -3.1168    2.46526  -1.60174 
 H                    -1.81664   1.43077  -2.17429 
 H                    -3.49167   0.80457  -2.09313 
 C                    -3.09123  -0.43982   1.82479 
 H                    -3.94193   0.05998   2.30736 
 H                    -3.22666  -1.51375   1.98234 
 H                    -2.1882   -0.13003   2.3565 
 C                    -0.95438  -2.15165   0.48419 
 H                    -1.83666  -2.77832   0.6167 
 H                    -0.10993  -2.79679   0.19822 
 H                    -0.68254  -1.65992   1.41787 
 C                    -1.82161  -1.65912  -1.87817 
 H                    -1.12428  -2.36081  -2.35892 
 H                    -2.74038  -2.20061  -1.64926 
 H                    -2.00894  -0.84962  -2.58113 
 
                    Distance matrix (angstroms):
                    1          2          3          4          5
     1  O    0.000000
     2  C    1.265528   0.000000
     3  C    3.014491   2.450000   0.000000
     4  C    2.600000   2.620502   1.353997   0.000000
     5  C    3.085216   3.223027   2.496497   1.500633   0.000000
     6  Fe   1.948769   2.950723   4.534384   4.041450   4.694081
     7  Cl   3.262415   4.520076   5.698199   4.732985   4.933341
     8  C    2.880224   3.379782   2.516206   1.497709   2.518183
     9  Cl   3.206418   3.727010   5.936601   5.739666   6.247350
    10  Cl   3.368494   3.917741   4.646180   4.453867   5.612319
    11  H    3.557354   2.746233   1.088996   2.089669   2.662687
    12  H    3.946902   4.410033   3.118158   2.124176   2.860489
    13  H    3.050012   3.463689   2.712257   2.180807   3.472084
    14  H    2.624958   3.491345   3.319117   2.146665   2.679513
    15  H    3.999558   4.266874   3.221982   2.133460   1.097409
    16  H    2.656279   3.104511   3.207603   2.145014   1.097575
    17  H    3.619599   3.419699   2.645722   2.173006   1.093049
    18  C    3.843590   3.250343   1.506628   2.546023   3.912612
    19  H    4.803994   4.273315   2.142107   3.035325   4.304339
    20  H    4.242429   3.390121   2.164706   3.403391   4.657755
    21  H    3.679481   3.356198   2.180745   2.794848   4.284806
    22  C    2.398562   1.499633   2.951604   3.571009   4.514099
    23  H    3.297659   2.164083   2.965723   3.921739   4.841703
    24  H    2.751740   2.082246   4.009137   4.498813   5.296482
    25  H    2.657302   2.161103   3.041693   3.592097   4.785065
    26  C    2.366838   1.503354   3.001632   3.229568   3.239140
    27  H    2.776791   2.083484   4.037857   4.235070   4.195803
    28  H    3.266600   2.171245   2.931215   3.537809   3.632633
    29  H    2.566968   2.159737   3.214880   3.072239   2.593235
                    6          7          8          9         10
     6  Fe   0.000000
     7  Cl   2.180197   0.000000
     8  C    3.587716   3.954894   0.000000
     9  Cl   2.192012   3.705467   5.629475   0.000000
    10  Cl   2.200898   3.671937   3.655749   3.636032   0.000000
    11  H    5.290637   6.462008   3.477228   6.449620   5.607214
    12  H    4.589932   4.635730   1.099048   6.685176   4.483621
    13  H    3.369183   4.106616   1.089326   5.386834   2.831040
    14  H    3.046183   2.953889   1.095503   5.146913   3.583837
    15  H    5.392589   5.286097   2.718821   7.111327   6.180862
    16  H    4.158346   4.168472   2.812777   5.609830   5.457819
    17  H    5.426783   5.847123   3.473618   6.729694   6.387593
    18  C    4.918132   6.328097   3.072883   6.283297   4.343048
    19  H    5.856907   7.086614   3.468423   7.340462   5.131227
    20  H    5.326840   6.981136   4.066861   6.352154   4.740520
    21  H    4.328436   5.762513   2.787576   5.808202   3.393948
    22  C    3.339219   5.324566   4.137243   3.727600   3.621395
    23  H    4.421754   6.362626   4.720536   4.714448   4.535639
    24  H    3.310669   5.385687   4.972793   3.025804   3.838718
    25  H    3.105414   5.127722   3.800527   3.828800   2.755548
    26  C    4.186856   5.459113   4.362955   4.593779   5.409114
    27  H    4.300951   5.627786   5.227908   4.173204   5.728810
    28  H    5.078165   6.456508   4.839429   5.458296   6.009789
    29  H    4.444313   5.288261   4.236547   5.076111   5.857550
                   11         12         13         14         15
    11  H    0.000000
    12  H    3.996481   0.000000
    13  H    3.789468   1.769801   0.000000
    14  H    4.191328   1.757074   1.774549   0.000000
    15  H    3.438834   2.631698   3.774141   2.868349   0.000000
    16  H    3.427825   3.325467   3.745280   2.538504   1.757387
    17  H    2.345152   3.802720   4.329931   3.735073   1.771972
    18  C    2.204101   3.573923   2.729427   4.021869   4.492363
    19  H    2.666052   3.643098   3.189140   4.528657   4.663404
    20  H    2.472385   4.649812   3.669548   4.934292   5.356330
    21  H    3.102438   3.360577   2.090228   3.662677   4.823435
    22  C    3.289182   5.156565   3.828005   4.425339   5.508452
    23  H    3.021937   5.644915   4.439117   5.177399   5.835702
    24  H    4.280962   6.038226   4.652721   5.078212   6.322210
    25  H    3.665875   4.784117   3.230023   4.157655   5.662230
    26  C    2.735257   5.265102   4.695956   4.450720   4.331801
    27  H    3.796072   6.189062   5.491584   5.171680   5.275830
    28  H    2.335358   5.654443   5.122338   5.135896   4.681276
    29  H    2.923198   5.025932   4.805185   4.206556   3.629738
                   16         17         18         19         20
    16  H    0.000000
    17  H    1.790097   0.000000
    18  C    4.595250   4.130250   0.000000
    19  H    5.145977   4.485691   1.098343   0.000000
    20  H    5.285440   4.696195   1.093844   1.758939   0.000000
    21  H    4.806473   4.729873   1.092767   1.764674   1.770057
    22  C    4.543641   4.671148   3.048556   4.140130   2.795463
    23  H    5.050388   4.787412   2.915821   3.917448   2.322970
    24  H    5.139443   5.445756   4.133907   5.224347   3.813566
    25  H    4.872590   5.127579   2.730569   3.791154   2.610086
    26  C    3.104051   2.984144   4.100067   4.996967   4.110813
    27  H    3.858689   3.961665   5.006245   5.964346   4.897341
    28  H    3.783632   3.129310   3.910568   4.712623   3.727833
    29  H    2.324361   2.274422   4.555379   5.334901   4.769609
                   21         22         23         24         25
    21  H    0.000000
    22  C    3.019080   0.000000
    23  H    3.188099   1.090275   0.000000
    24  H    4.011114   1.100493   1.776821   0.000000
    25  H    2.342781   1.089711   1.795750   1.762926   0.000000
    26  C    4.517183   2.564248   2.734442   2.921559   3.487313
    27  H    5.323860   2.855845   3.088054   2.785310   3.866592
    28  H    4.542948   2.782767   2.506995   3.269238   3.732880
    29  H    4.993014   3.493359   3.738408   3.888768   4.290451
                   26         27         28         29
    26  C    0.000000
    27  H    1.099881   0.000000
    28  H    1.090760   1.772298   0.000000
    29  H    1.088373   1.765130   1.796826   0.000000
 Framework group  C1[X(C8H16Cl3FeO)]
 Deg. of freedom    81
                         Standard orientation:                         
 ---------------------------------------------------------------------
 Center     Atomic      Atomic             Coordinates (Angstroms)
 Number     Number       Type             X           Y           Z
 ---------------------------------------------------------------------
      1          8           0       -0.279267   -0.233194   -0.787367
      2          6           0       -1.110416   -1.176791   -0.644619
      3          6           0       -3.063422   -0.090494    0.359486
      4          6           0       -2.482055    1.007102   -0.179591
      5          6           0       -2.748323    1.431593   -1.594090
      6         26           0        1.454341    0.116241    0.031291
      7         17           0        2.095649    2.002581   -0.853979
      8          6           0       -1.588193    1.935552    0.583379
      9         17           0        2.584527   -1.660159   -0.578627
     10         17           0        1.186495    0.201720    2.214157
     11          1           0       -3.774825   -0.632628   -0.261729
     12          1           0       -2.145280    2.854736    0.812858
     13          1           0       -1.219450    1.523467    1.521913
     14          1           0       -0.730249    2.238367   -0.026836
     15          1           0       -3.116797    2.465264   -1.601744
     16          1           0       -1.816636    1.430767   -2.174287
     17          1           0       -3.491670    0.804572   -2.093126
     18          6           0       -3.091225   -0.439820    1.824794
     19          1           0       -3.941927    0.059975    2.307359
     20          1           0       -3.226660   -1.513753    1.982335
     21          1           0       -2.188200   -0.130025    2.356502
     22          6           0       -0.954381   -2.151650    0.484186
     23          1           0       -1.836664   -2.778322    0.616697
     24          1           0       -0.109925   -2.796788    0.198220
     25          1           0       -0.682536   -1.659919    1.417873
     26          6           0       -1.821605   -1.659123   -1.878166
     27          1           0       -1.124285   -2.360808   -2.358917
     28          1           0       -2.740381   -2.200612   -1.649262
     29          1           0       -2.008935   -0.849617   -2.581133
 ---------------------------------------------------------------------
 Rotational constants (GHZ):           0.5754555           0.3317906           0.3126346
   427 basis functions,  1056 primitive gaussians,   461 cartesian basis functions
    77 alpha electrons       72 beta electrons
       nuclear repulsion energy      1637.6626226023 Hartrees.
 NAtoms=   29 NActive=   29 NUniq=   29 SFac= 1.00D+00 NAtFMM=   60 NAOKFM=F Big=F
 ExpMin= 1.40D-02 ExpMax= 4.32D+06 ExpMxC= 4.91D+03 IAcc=3 IRadAn=         5 AccDes= 0.00D+00
 Harris functional with IExCor= 1009 and IRadAn=       5 diagonalized for initial guess.
 HarFok:  IExCor= 1009 AccDes= 0.00D+00 IRadAn=         5 IDoV= 1 UseB2=F ITyADJ=14
 ICtDFT=  3500011 ScaDFX=  1.000000  1.000000  1.000000  1.000000
 FoFCou: FMM=F IPFlag=           0 FMFlag=      100000 FMFlg1=           0
         NFxFlg=           0 DoJE=T BraDBF=F KetDBF=T FulRan=T
         wScrn=  0.000000 ICntrl=       500 IOpCl=  0 I1Cent=   200000004 NGrid=           0
         NMat0=    1 NMatS0=      1 NMatT0=    0 NMatD0=    1 NMtDS0=    0 NMtDT0=    0
 Petite list used in FoFCou.
 Initial guess <Sx>= 0.0000 <Sy>= 0.0000 <Sz>= 2.5000 <S**2>= 8.7500 S= 2.5000
 EnCoef did   100 forward-backward iterations
 Restarting incremental Fock formation.
 SCF Done:  E(UPBE1PBE) =  -3033.12534441     A.U. after   21 cycles
            NFock= 21  Conv=0.66D-08     -V/T= 2.0021
 <Sx>= 0.0000 <Sy>= 0.0000 <Sz>= 2.5000 <S**2>= 8.7627 S= 2.5021
 <L.S>= 0.000000000000E+00
 Annihilation of the first spin contaminant:
 S**2 before annihilation     8.7627,   after     8.7500
 1\1\GINC-HOLY7C04208\SP\UPBE1PBE\Jul-CC-pVDZ\C8H16Cl3Fe1O1(6)\EKWAN\11
 -Feb-2020\0\\#t pop=none jul-cc-pvdz upbe1pbe\\theory_abbreviation pbe
 0\\0,6\O,0,-0.279267,-0.233194,-0.787367\C,0,-1.110416,-1.176791,-0.64
 4619\C,0,-3.063422,-0.090494,0.359486\C,0,-2.482055,1.007102,-0.179591
 \C,0,-2.748323,1.431593,-1.59409\Fe,0,1.454341,0.116241,0.031291\Cl,0,
 2.095649,2.002581,-0.853979\C,0,-1.588193,1.935552,0.583379\Cl,0,2.584
 527,-1.660159,-0.578627\Cl,0,1.186495,0.20172,2.214157\H,0,-3.774825,-
 0.632628,-0.261729\H,0,-2.14528,2.854736,0.812858\H,0,-1.21945,1.52346
 7,1.521913\H,0,-0.730249,2.238367,-0.026836\H,0,-3.116797,2.465264,-1.
 601744\H,0,-1.816636,1.430767,-2.174287\H,0,-3.49167,0.804572,-2.09312
 6\C,0,-3.091225,-0.43982,1.824794\H,0,-3.941927,0.059975,2.307359\H,0,
 -3.22666,-1.513753,1.982335\H,0,-2.1882,-0.130025,2.356502\C,0,-0.9543
 81,-2.15165,0.484186\H,0,-1.836664,-2.778322,0.616697\H,0,-0.109925,-2
 .796788,0.19822\H,0,-0.682536,-1.659919,1.417873\C,0,-1.821605,-1.6591
 23,-1.878166\H,0,-1.124285,-2.360808,-2.358917\H,0,-2.740381,-2.200612
 ,-1.649262\H,0,-2.008935,-0.849617,-2.581133\\Version=ES64L-G16RevA.03
 \HF=-3033.1253444\S2=8.762702\S2-1=0.\S2A=8.75005\RMSD=6.619e-09\PG=C0
 1 [X(C8H16Cl3Fe1O1)]\\@


 THE LENGTH OF A MEETING IS PROPORTIONAL TO THE
 SQUARE OF THE PARTICIPANTS.
 Job cpu time:       0 days  1 hours 30 minutes 22.1 seconds.
 Elapsed time:       0 days  0 hours 22 minutes 40.4 seconds.
 File lengths (MBytes):  RWF=    173 Int=      0 D2E=      0 Chk=     13 Scr=      1
 Normal termination of Gaussian 16 at Tue Feb 11 14:00:04 2020.
 Initial command:
 /n/sw/g16_nehalem/g16/l1.exe "/scratch/Gau-270323.inp" -scrdir="/scratch/"
 Entering Link 1 = /n/sw/g16_nehalem/g16/l1.exe PID=    272229.
  
 Copyright (c) 1988,1990,1992,1993,1995,1998,2003,2009,2016,
            Gaussian, Inc.  All Rights Reserved.
  
 This is part of the Gaussian(R) 16 program.  It is based on
 the Gaussian(R) 09 system (copyright 2009, Gaussian, Inc.),
 the Gaussian(R) 03 system (copyright 2003, Gaussian, Inc.),
 the Gaussian(R) 98 system (copyright 1998, Gaussian, Inc.),
 the Gaussian(R) 94 system (copyright 1995, Gaussian, Inc.),
 the Gaussian 92(TM) system (copyright 1992, Gaussian, Inc.),
 the Gaussian 90(TM) system (copyright 1990, Gaussian, Inc.),
 the Gaussian 88(TM) system (copyright 1988, Gaussian, Inc.),
 the Gaussian 86(TM) system (copyright 1986, Carnegie Mellon
 University), and the Gaussian 82(TM) system (copyright 1983,
 Carnegie Mellon University). Gaussian is a federally registered
 trademark of Gaussian, Inc.
  
 This software contains proprietary and confidential information,
 including trade secrets, belonging to Gaussian, Inc.
  
 This software is provided under written license and may be
 used, copied, transmitted, or stored only in accord with that
 written license.
  
 The following legend is applicable only to US Government
 contracts under FAR:
  
                    RESTRICTED RIGHTS LEGEND
  
 Use, reproduction and disclosure by the US Government is
 subject to restrictions as set forth in subparagraphs (a)
 and (c) of the Commercial Computer Software - Restricted
 Rights clause in FAR 52.227-19.
  
 Gaussian, Inc.
 340 Quinnipiac St., Bldg. 40, Wallingford CT 06492
  
  
 ---------------------------------------------------------------
 Warning -- This program may not be used in any manner that
 competes with the business of Gaussian, Inc. or will provide
 assistance to any competitor of Gaussian, Inc.  The licensee
 of this program is prohibited from giving any competitor of
 Gaussian, Inc. access to this program.  By using this program,
 the user acknowledges that Gaussian, Inc. is engaged in the
 business of creating and licensing software in the field of
 computational chemistry and represents and warrants to the
 licensee that it is not a competitor of Gaussian, Inc. and that
 it will not use this program in any manner prohibited above.
 ---------------------------------------------------------------
  

 Cite this work as:
 Gaussian 16, Revision A.03,
 M. J. Frisch, G. W. Trucks, H. B. Schlegel, G. E. Scuseria, 
 M. A. Robb, J. R. Cheeseman, G. Scalmani, V. Barone, 
 G. A. Petersson, H. Nakatsuji, X. Li, M. Caricato, A. V. Marenich, 
 J. Bloino, B. G. Janesko, R. Gomperts, B. Mennucci, H. P. Hratchian, 
 J. V. Ortiz, A. F. Izmaylov, J. L. Sonnenberg, D. Williams-Young, 
 F. Ding, F. Lipparini, F. Egidi, J. Goings, B. Peng, A. Petrone, 
 T. Henderson, D. Ranasinghe, V. G. Zakrzewski, J. Gao, N. Rega, 
 G. Zheng, W. Liang, M. Hada, M. Ehara, K. Toyota, R. Fukuda, 
 J. Hasegawa, M. Ishida, T. Nakajima, Y. Honda, O. Kitao, H. Nakai, 
 T. Vreven, K. Throssell, J. A. Montgomery, Jr., J. E. Peralta, 
 F. Ogliaro, M. J. Bearpark, J. J. Heyd, E. N. Brothers, K. N. Kudin, 
 V. N. Staroverov, T. A. Keith, R. Kobayashi, J. Normand, 
 K. Raghavachari, A. P. Rendell, J. C. Burant, S. S. Iyengar, 
 J. Tomasi, M. Cossi, J. M. Millam, M. Klene, C. Adamo, R. Cammi, 
 J. W. Ochterski, R. L. Martin, K. Morokuma, O. Farkas, 
 J. B. Foresman, and D. J. Fox, Gaussian, Inc., Wallingford CT, 2016.
 
 ******************************************
 Gaussian 16:  ES64L-G16RevA.03 25-Dec-2016
                11-Feb-2020 
 ******************************************
 %chk=checkpoint.chk
 %mem=3GB
 %nprocshared=4
 Will use up to    4 processors via shared memory.
 ---------------------------------------------------------------------
 #t pop=none jul-cc-pvdz guess=read upbe1pbe empiricaldispersion=gd3bj
 ---------------------------------------------------------------------
 -----------------------------
 theory_abbreviation pbe0_d3bj
 -----------------------------
 Symbolic Z-matrix:
 Charge =  0 Multiplicity = 6
 O                    -0.27927  -0.23319  -0.78737 
 C                    -1.11042  -1.17679  -0.64462 
 C                    -3.06342  -0.09049   0.35949 
 C                    -2.48206   1.0071   -0.17959 
 C                    -2.74832   1.43159  -1.59409 
 Fe                    1.45434   0.11624   0.03129 
 Cl                    2.09565   2.00258  -0.85398 
 C                    -1.58819   1.93555   0.58338 
 Cl                    2.58453  -1.66016  -0.57863 
 Cl                    1.1865    0.20172   2.21416 
 H                    -3.77483  -0.63263  -0.26173 
 H                    -2.14528   2.85474   0.81286 
 H                    -1.21945   1.52347   1.52191 
 H                    -0.73025   2.23837  -0.02684 
 H                    -3.1168    2.46526  -1.60174 
 H                    -1.81664   1.43077  -2.17429 
 H                    -3.49167   0.80457  -2.09313 
 C                    -3.09123  -0.43982   1.82479 
 H                    -3.94193   0.05998   2.30736 
 H                    -3.22666  -1.51375   1.98234 
 H                    -2.1882   -0.13003   2.3565 
 C                    -0.95438  -2.15165   0.48419 
 H                    -1.83666  -2.77832   0.6167 
 H                    -0.10993  -2.79679   0.19822 
 H                    -0.68254  -1.65992   1.41787 
 C                    -1.82161  -1.65912  -1.87817 
 H                    -1.12428  -2.36081  -2.35892 
 H                    -2.74038  -2.20061  -1.64926 
 H                    -2.00894  -0.84962  -2.58113 
 
                    Distance matrix (angstroms):
                    1          2          3          4          5
     1  O    0.000000
     2  C    1.265528   0.000000
     3  C    3.014491   2.450000   0.000000
     4  C    2.600000   2.620502   1.353997   0.000000
     5  C    3.085216   3.223027   2.496497   1.500633   0.000000
     6  Fe   1.948769   2.950723   4.534384   4.041450   4.694081
     7  Cl   3.262415   4.520076   5.698199   4.732985   4.933341
     8  C    2.880224   3.379782   2.516206   1.497709   2.518183
     9  Cl   3.206418   3.727010   5.936601   5.739666   6.247350
    10  Cl   3.368494   3.917741   4.646180   4.453867   5.612319
    11  H    3.557354   2.746233   1.088996   2.089669   2.662687
    12  H    3.946902   4.410033   3.118158   2.124176   2.860489
    13  H    3.050012   3.463689   2.712257   2.180807   3.472084
    14  H    2.624958   3.491345   3.319117   2.146665   2.679513
    15  H    3.999558   4.266874   3.221982   2.133460   1.097409
    16  H    2.656279   3.104511   3.207603   2.145014   1.097575
    17  H    3.619599   3.419699   2.645722   2.173006   1.093049
    18  C    3.843590   3.250343   1.506628   2.546023   3.912612
    19  H    4.803994   4.273315   2.142107   3.035325   4.304339
    20  H    4.242429   3.390121   2.164706   3.403391   4.657755
    21  H    3.679481   3.356198   2.180745   2.794848   4.284806
    22  C    2.398562   1.499633   2.951604   3.571009   4.514099
    23  H    3.297659   2.164083   2.965723   3.921739   4.841703
    24  H    2.751740   2.082246   4.009137   4.498813   5.296482
    25  H    2.657302   2.161103   3.041693   3.592097   4.785065
    26  C    2.366838   1.503354   3.001632   3.229568   3.239140
    27  H    2.776791   2.083484   4.037857   4.235070   4.195803
    28  H    3.266600   2.171245   2.931215   3.537809   3.632633
    29  H    2.566968   2.159737   3.214880   3.072239   2.593235
                    6          7          8          9         10
     6  Fe   0.000000
     7  Cl   2.180197   0.000000
     8  C    3.587716   3.954894   0.000000
     9  Cl   2.192012   3.705467   5.629475   0.000000
    10  Cl   2.200898   3.671937   3.655749   3.636032   0.000000
    11  H    5.290637   6.462008   3.477228   6.449620   5.607214
    12  H    4.589932   4.635730   1.099048   6.685176   4.483621
    13  H    3.369183   4.106616   1.089326   5.386834   2.831040
    14  H    3.046183   2.953889   1.095503   5.146913   3.583837
    15  H    5.392589   5.286097   2.718821   7.111327   6.180862
    16  H    4.158346   4.168472   2.812777   5.609830   5.457819
    17  H    5.426783   5.847123   3.473618   6.729694   6.387593
    18  C    4.918132   6.328097   3.072883   6.283297   4.343048
    19  H    5.856907   7.086614   3.468423   7.340462   5.131227
    20  H    5.326840   6.981136   4.066861   6.352154   4.740520
    21  H    4.328436   5.762513   2.787576   5.808202   3.393948
    22  C    3.339219   5.324566   4.137243   3.727600   3.621395
    23  H    4.421754   6.362626   4.720536   4.714448   4.535639
    24  H    3.310669   5.385687   4.972793   3.025804   3.838718
    25  H    3.105414   5.127722   3.800527   3.828800   2.755548
    26  C    4.186856   5.459113   4.362955   4.593779   5.409114
    27  H    4.300951   5.627786   5.227908   4.173204   5.728810
    28  H    5.078165   6.456508   4.839429   5.458296   6.009789
    29  H    4.444313   5.288261   4.236547   5.076111   5.857550
                   11         12         13         14         15
    11  H    0.000000
    12  H    3.996481   0.000000
    13  H    3.789468   1.769801   0.000000
    14  H    4.191328   1.757074   1.774549   0.000000
    15  H    3.438834   2.631698   3.774141   2.868349   0.000000
    16  H    3.427825   3.325467   3.745280   2.538504   1.757387
    17  H    2.345152   3.802720   4.329931   3.735073   1.771972
    18  C    2.204101   3.573923   2.729427   4.021869   4.492363
    19  H    2.666052   3.643098   3.189140   4.528657   4.663404
    20  H    2.472385   4.649812   3.669548   4.934292   5.356330
    21  H    3.102438   3.360577   2.090228   3.662677   4.823435
    22  C    3.289182   5.156565   3.828005   4.425339   5.508452
    23  H    3.021937   5.644915   4.439117   5.177399   5.835702
    24  H    4.280962   6.038226   4.652721   5.078212   6.322210
    25  H    3.665875   4.784117   3.230023   4.157655   5.662230
    26  C    2.735257   5.265102   4.695956   4.450720   4.331801
    27  H    3.796072   6.189062   5.491584   5.171680   5.275830
    28  H    2.335358   5.654443   5.122338   5.135896   4.681276
    29  H    2.923198   5.025932   4.805185   4.206556   3.629738
                   16         17         18         19         20
    16  H    0.000000
    17  H    1.790097   0.000000
    18  C    4.595250   4.130250   0.000000
    19  H    5.145977   4.485691   1.098343   0.000000
    20  H    5.285440   4.696195   1.093844   1.758939   0.000000
    21  H    4.806473   4.729873   1.092767   1.764674   1.770057
    22  C    4.543641   4.671148   3.048556   4.140130   2.795463
    23  H    5.050388   4.787412   2.915821   3.917448   2.322970
    24  H    5.139443   5.445756   4.133907   5.224347   3.813566
    25  H    4.872590   5.127579   2.730569   3.791154   2.610086
    26  C    3.104051   2.984144   4.100067   4.996967   4.110813
    27  H    3.858689   3.961665   5.006245   5.964346   4.897341
    28  H    3.783632   3.129310   3.910568   4.712623   3.727833
    29  H    2.324361   2.274422   4.555379   5.334901   4.769609
                   21         22         23         24         25
    21  H    0.000000
    22  C    3.019080   0.000000
    23  H    3.188099   1.090275   0.000000
    24  H    4.011114   1.100493   1.776821   0.000000
    25  H    2.342781   1.089711   1.795750   1.762926   0.000000
    26  C    4.517183   2.564248   2.734442   2.921559   3.487313
    27  H    5.323860   2.855845   3.088054   2.785310   3.866592
    28  H    4.542948   2.782767   2.506995   3.269238   3.732880
    29  H    4.993014   3.493359   3.738408   3.888768   4.290451
                   26         27         28         29
    26  C    0.000000
    27  H    1.099881   0.000000
    28  H    1.090760   1.772298   0.000000
    29  H    1.088373   1.765130   1.796826   0.000000
 Framework group  C1[X(C8H16Cl3FeO)]
 Deg. of freedom    81
                         Standard orientation:                         
 ---------------------------------------------------------------------
 Center     Atomic      Atomic             Coordinates (Angstroms)
 Number     Number       Type             X           Y           Z
 ---------------------------------------------------------------------
      1          8           0       -0.279267   -0.233194   -0.787367
      2          6           0       -1.110416   -1.176791   -0.644619
      3          6           0       -3.063422   -0.090494    0.359486
      4          6           0       -2.482055    1.007102   -0.179591
      5          6           0       -2.748323    1.431593   -1.594090
      6         26           0        1.454341    0.116241    0.031291
      7         17           0        2.095649    2.002581   -0.853979
      8          6           0       -1.588193    1.935552    0.583379
      9         17           0        2.584527   -1.660159   -0.578627
     10         17           0        1.186495    0.201720    2.214157
     11          1           0       -3.774825   -0.632628   -0.261729
     12          1           0       -2.145280    2.854736    0.812858
     13          1           0       -1.219450    1.523467    1.521913
     14          1           0       -0.730249    2.238367   -0.026836
     15          1           0       -3.116797    2.465264   -1.601744
     16          1           0       -1.816636    1.430767   -2.174287
     17          1           0       -3.491670    0.804572   -2.093126
     18          6           0       -3.091225   -0.439820    1.824794
     19          1           0       -3.941927    0.059975    2.307359
     20          1           0       -3.226660   -1.513753    1.982335
     21          1           0       -2.188200   -0.130025    2.356502
     22          6           0       -0.954381   -2.151650    0.484186
     23          1           0       -1.836664   -2.778322    0.616697
     24          1           0       -0.109925   -2.796788    0.198220
     25          1           0       -0.682536   -1.659919    1.417873
     26          6           0       -1.821605   -1.659123   -1.878166
     27          1           0       -1.124285   -2.360808   -2.358917
     28          1           0       -2.740381   -2.200612   -1.649262
     29          1           0       -2.008935   -0.849617   -2.581133
 ---------------------------------------------------------------------
 Rotational constants (GHZ):           0.5754555           0.3317906           0.3126346
   427 basis functions,  1056 primitive gaussians,   461 cartesian basis functions
    77 alpha electrons       72 beta electrons
       nuclear repulsion energy      1637.6626226023 Hartrees.
 NAtoms=   29 NActive=   29 NUniq=   29 SFac= 1.00D+00 NAtFMM=   60 NAOKFM=F Big=F
 Nuclear repulsion after empirical dispersion term =     1637.6252216854 Hartrees.
 Initial guess from the checkpoint file:  "checkpoint.chk"
 B after Tr=     0.000000    0.000000    0.000000
         Rot=    1.000000    0.000000    0.000000    0.000000 Ang=   0.00 deg.
 Initial guess <Sx>= 0.0000 <Sy>= 0.0000 <Sz>= 2.5000 <S**2>= 8.7627 S= 2.5021
 SCF Done:  E(UPBE1PBE) =  -3033.16274533     A.U. after    1 cycles
            NFock=  1  Conv=0.25D-08     -V/T= 2.0021
 <Sx>= 0.0000 <Sy>= 0.0000 <Sz>= 2.5000 <S**2>= 8.7627 S= 2.5021
 <L.S>= 0.000000000000E+00
 Annihilation of the first spin contaminant:
 S**2 before annihilation     8.7627,   after     8.7500
 1\1\GINC-HOLY7C04208\SP\UPBE1PBE\Jul-CC-pVDZ\C8H16Cl3Fe1O1(6)\EKWAN\11
 -Feb-2020\0\\#t pop=none jul-cc-pvdz guess=read upbe1pbe empiricaldisp
 ersion=gd3bj\\theory_abbreviation pbe0_d3bj\\0,6\O,0,-0.279267,-0.2331
 94,-0.787367\C,0,-1.110416,-1.176791,-0.644619\C,0,-3.063422,-0.090494
 ,0.359486\C,0,-2.482055,1.007102,-0.179591\C,0,-2.748323,1.431593,-1.5
 9409\Fe,0,1.454341,0.116241,0.031291\Cl,0,2.095649,2.002581,-0.853979\
 C,0,-1.588193,1.935552,0.583379\Cl,0,2.584527,-1.660159,-0.578627\Cl,0
 ,1.186495,0.20172,2.214157\H,0,-3.774825,-0.632628,-0.261729\H,0,-2.14
 528,2.854736,0.812858\H,0,-1.21945,1.523467,1.521913\H,0,-0.730249,2.2
 38367,-0.026836\H,0,-3.116797,2.465264,-1.601744\H,0,-1.816636,1.43076
 7,-2.174287\H,0,-3.49167,0.804572,-2.093126\C,0,-3.091225,-0.43982,1.8
 24794\H,0,-3.941927,0.059975,2.307359\H,0,-3.22666,-1.513753,1.982335\
 H,0,-2.1882,-0.130025,2.356502\C,0,-0.954381,-2.15165,0.484186\H,0,-1.
 836664,-2.778322,0.616697\H,0,-0.109925,-2.796788,0.19822\H,0,-0.68253
 6,-1.659919,1.417873\C,0,-1.821605,-1.659123,-1.878166\H,0,-1.124285,-
 2.360808,-2.358917\H,0,-2.740381,-2.200612,-1.649262\H,0,-2.008935,-0.
 849617,-2.581133\\Version=ES64L-G16RevA.03\HF=-3033.1627453\S2=8.76270
 2\S2-1=0.\S2A=8.75005\RMSD=2.541e-09\PG=C01 [X(C8H16Cl3Fe1O1)]\\@


 TOM, TOM, THE BURGLAR'S SON
 STOLE A MACHINE AND AWAY HE RUN
 THE JOB WAS NEAT, BUT TOM GOT BEAT
 BY THE TIME HE GOT HOME IT WAS OBSOLETE.
 Job cpu time:       0 days  0 hours  4 minutes 38.5 seconds.
 Elapsed time:       0 days  0 hours  1 minutes 10.1 seconds.
 File lengths (MBytes):  RWF=    170 Int=      0 D2E=      0 Chk=     13 Scr=      1
 Normal termination of Gaussian 16 at Tue Feb 11 14:01:15 2020.
 Initial command:
 /n/sw/g16_nehalem/g16/l1.exe "/scratch/Gau-270323.inp" -scrdir="/scratch/"
 Entering Link 1 = /n/sw/g16_nehalem/g16/l1.exe PID=    272612.
  
 Copyright (c) 1988,1990,1992,1993,1995,1998,2003,2009,2016,
            Gaussian, Inc.  All Rights Reserved.
  
 This is part of the Gaussian(R) 16 program.  It is based on
 the Gaussian(R) 09 system (copyright 2009, Gaussian, Inc.),
 the Gaussian(R) 03 system (copyright 2003, Gaussian, Inc.),
 the Gaussian(R) 98 system (copyright 1998, Gaussian, Inc.),
 the Gaussian(R) 94 system (copyright 1995, Gaussian, Inc.),
 the Gaussian 92(TM) system (copyright 1992, Gaussian, Inc.),
 the Gaussian 90(TM) system (copyright 1990, Gaussian, Inc.),
 the Gaussian 88(TM) system (copyright 1988, Gaussian, Inc.),
 the Gaussian 86(TM) system (copyright 1986, Carnegie Mellon
 University), and the Gaussian 82(TM) system (copyright 1983,
 Carnegie Mellon University). Gaussian is a federally registered
 trademark of Gaussian, Inc.
  
 This software contains proprietary and confidential information,
 including trade secrets, belonging to Gaussian, Inc.
  
 This software is provided under written license and may be
 used, copied, transmitted, or stored only in accord with that
 written license.
  
 The following legend is applicable only to US Government
 contracts under FAR:
  
                    RESTRICTED RIGHTS LEGEND
  
 Use, reproduction and disclosure by the US Government is
 subject to restrictions as set forth in subparagraphs (a)
 and (c) of the Commercial Computer Software - Restricted
 Rights clause in FAR 52.227-19.
  
 Gaussian, Inc.
 340 Quinnipiac St., Bldg. 40, Wallingford CT 06492
  
  
 ---------------------------------------------------------------
 Warning -- This program may not be used in any manner that
 competes with the business of Gaussian, Inc. or will provide
 assistance to any competitor of Gaussian, Inc.  The licensee
 of this program is prohibited from giving any competitor of
 Gaussian, Inc. access to this program.  By using this program,
 the user acknowledges that Gaussian, Inc. is engaged in the
 business of creating and licensing software in the field of
 computational chemistry and represents and warrants to the
 licensee that it is not a competitor of Gaussian, Inc. and that
 it will not use this program in any manner prohibited above.
 ---------------------------------------------------------------
  

 Cite this work as:
 Gaussian 16, Revision A.03,
 M. J. Frisch, G. W. Trucks, H. B. Schlegel, G. E. Scuseria, 
 M. A. Robb, J. R. Cheeseman, G. Scalmani, V. Barone, 
 G. A. Petersson, H. Nakatsuji, X. Li, M. Caricato, A. V. Marenich, 
 J. Bloino, B. G. Janesko, R. Gomperts, B. Mennucci, H. P. Hratchian, 
 J. V. Ortiz, A. F. Izmaylov, J. L. Sonnenberg, D. Williams-Young, 
 F. Ding, F. Lipparini, F. Egidi, J. Goings, B. Peng, A. Petrone, 
 T. Henderson, D. Ranasinghe, V. G. Zakrzewski, J. Gao, N. Rega, 
 G. Zheng, W. Liang, M. Hada, M. Ehara, K. Toyota, R. Fukuda, 
 J. Hasegawa, M. Ishida, T. Nakajima, Y. Honda, O. Kitao, H. Nakai, 
 T. Vreven, K. Throssell, J. A. Montgomery, Jr., J. E. Peralta, 
 F. Ogliaro, M. J. Bearpark, J. J. Heyd, E. N. Brothers, K. N. Kudin, 
 V. N. Staroverov, T. A. Keith, R. Kobayashi, J. Normand, 
 K. Raghavachari, A. P. Rendell, J. C. Burant, S. S. Iyengar, 
 J. Tomasi, M. Cossi, J. M. Millam, M. Klene, C. Adamo, R. Cammi, 
 J. W. Ochterski, R. L. Martin, K. Morokuma, O. Farkas, 
 J. B. Foresman, and D. J. Fox, Gaussian, Inc., Wallingford CT, 2016.
 
 ******************************************
 Gaussian 16:  ES64L-G16RevA.03 25-Dec-2016
                11-Feb-2020 
 ******************************************
 %chk=checkpoint.chk
 %mem=3GB
 %nprocshared=4
 Will use up to    4 processors via shared memory.
 -----------------------------------------
 #t pop=none jul-cc-pvdz guess=read ub3lyp
 -----------------------------------------
 -------------------------
 theory_abbreviation b3lyp
 -------------------------
 Symbolic Z-matrix:
 Charge =  0 Multiplicity = 6
 O                    -0.27927  -0.23319  -0.78737 
 C                    -1.11042  -1.17679  -0.64462 
 C                    -3.06342  -0.09049   0.35949 
 C                    -2.48206   1.0071   -0.17959 
 C                    -2.74832   1.43159  -1.59409 
 Fe                    1.45434   0.11624   0.03129 
 Cl                    2.09565   2.00258  -0.85398 
 C                    -1.58819   1.93555   0.58338 
 Cl                    2.58453  -1.66016  -0.57863 
 Cl                    1.1865    0.20172   2.21416 
 H                    -3.77483  -0.63263  -0.26173 
 H                    -2.14528   2.85474   0.81286 
 H                    -1.21945   1.52347   1.52191 
 H                    -0.73025   2.23837  -0.02684 
 H                    -3.1168    2.46526  -1.60174 
 H                    -1.81664   1.43077  -2.17429 
 H                    -3.49167   0.80457  -2.09313 
 C                    -3.09123  -0.43982   1.82479 
 H                    -3.94193   0.05998   2.30736 
 H                    -3.22666  -1.51375   1.98234 
 H                    -2.1882   -0.13003   2.3565 
 C                    -0.95438  -2.15165   0.48419 
 H                    -1.83666  -2.77832   0.6167 
 H                    -0.10993  -2.79679   0.19822 
 H                    -0.68254  -1.65992   1.41787 
 C                    -1.82161  -1.65912  -1.87817 
 H                    -1.12428  -2.36081  -2.35892 
 H                    -2.74038  -2.20061  -1.64926 
 H                    -2.00894  -0.84962  -2.58113 
 
                    Distance matrix (angstroms):
                    1          2          3          4          5
     1  O    0.000000
     2  C    1.265528   0.000000
     3  C    3.014491   2.450000   0.000000
     4  C    2.600000   2.620502   1.353997   0.000000
     5  C    3.085216   3.223027   2.496497   1.500633   0.000000
     6  Fe   1.948769   2.950723   4.534384   4.041450   4.694081
     7  Cl   3.262415   4.520076   5.698199   4.732985   4.933341
     8  C    2.880224   3.379782   2.516206   1.497709   2.518183
     9  Cl   3.206418   3.727010   5.936601   5.739666   6.247350
    10  Cl   3.368494   3.917741   4.646180   4.453867   5.612319
    11  H    3.557354   2.746233   1.088996   2.089669   2.662687
    12  H    3.946902   4.410033   3.118158   2.124176   2.860489
    13  H    3.050012   3.463689   2.712257   2.180807   3.472084
    14  H    2.624958   3.491345   3.319117   2.146665   2.679513
    15  H    3.999558   4.266874   3.221982   2.133460   1.097409
    16  H    2.656279   3.104511   3.207603   2.145014   1.097575
    17  H    3.619599   3.419699   2.645722   2.173006   1.093049
    18  C    3.843590   3.250343   1.506628   2.546023   3.912612
    19  H    4.803994   4.273315   2.142107   3.035325   4.304339
    20  H    4.242429   3.390121   2.164706   3.403391   4.657755
    21  H    3.679481   3.356198   2.180745   2.794848   4.284806
    22  C    2.398562   1.499633   2.951604   3.571009   4.514099
    23  H    3.297659   2.164083   2.965723   3.921739   4.841703
    24  H    2.751740   2.082246   4.009137   4.498813   5.296482
    25  H    2.657302   2.161103   3.041693   3.592097   4.785065
    26  C    2.366838   1.503354   3.001632   3.229568   3.239140
    27  H    2.776791   2.083484   4.037857   4.235070   4.195803
    28  H    3.266600   2.171245   2.931215   3.537809   3.632633
    29  H    2.566968   2.159737   3.214880   3.072239   2.593235
                    6          7          8          9         10
     6  Fe   0.000000
     7  Cl   2.180197   0.000000
     8  C    3.587716   3.954894   0.000000
     9  Cl   2.192012   3.705467   5.629475   0.000000
    10  Cl   2.200898   3.671937   3.655749   3.636032   0.000000
    11  H    5.290637   6.462008   3.477228   6.449620   5.607214
    12  H    4.589932   4.635730   1.099048   6.685176   4.483621
    13  H    3.369183   4.106616   1.089326   5.386834   2.831040
    14  H    3.046183   2.953889   1.095503   5.146913   3.583837
    15  H    5.392589   5.286097   2.718821   7.111327   6.180862
    16  H    4.158346   4.168472   2.812777   5.609830   5.457819
    17  H    5.426783   5.847123   3.473618   6.729694   6.387593
    18  C    4.918132   6.328097   3.072883   6.283297   4.343048
    19  H    5.856907   7.086614   3.468423   7.340462   5.131227
    20  H    5.326840   6.981136   4.066861   6.352154   4.740520
    21  H    4.328436   5.762513   2.787576   5.808202   3.393948
    22  C    3.339219   5.324566   4.137243   3.727600   3.621395
    23  H    4.421754   6.362626   4.720536   4.714448   4.535639
    24  H    3.310669   5.385687   4.972793   3.025804   3.838718
    25  H    3.105414   5.127722   3.800527   3.828800   2.755548
    26  C    4.186856   5.459113   4.362955   4.593779   5.409114
    27  H    4.300951   5.627786   5.227908   4.173204   5.728810
    28  H    5.078165   6.456508   4.839429   5.458296   6.009789
    29  H    4.444313   5.288261   4.236547   5.076111   5.857550
                   11         12         13         14         15
    11  H    0.000000
    12  H    3.996481   0.000000
    13  H    3.789468   1.769801   0.000000
    14  H    4.191328   1.757074   1.774549   0.000000
    15  H    3.438834   2.631698   3.774141   2.868349   0.000000
    16  H    3.427825   3.325467   3.745280   2.538504   1.757387
    17  H    2.345152   3.802720   4.329931   3.735073   1.771972
    18  C    2.204101   3.573923   2.729427   4.021869   4.492363
    19  H    2.666052   3.643098   3.189140   4.528657   4.663404
    20  H    2.472385   4.649812   3.669548   4.934292   5.356330
    21  H    3.102438   3.360577   2.090228   3.662677   4.823435
    22  C    3.289182   5.156565   3.828005   4.425339   5.508452
    23  H    3.021937   5.644915   4.439117   5.177399   5.835702
    24  H    4.280962   6.038226   4.652721   5.078212   6.322210
    25  H    3.665875   4.784117   3.230023   4.157655   5.662230
    26  C    2.735257   5.265102   4.695956   4.450720   4.331801
    27  H    3.796072   6.189062   5.491584   5.171680   5.275830
    28  H    2.335358   5.654443   5.122338   5.135896   4.681276
    29  H    2.923198   5.025932   4.805185   4.206556   3.629738
                   16         17         18         19         20
    16  H    0.000000
    17  H    1.790097   0.000000
    18  C    4.595250   4.130250   0.000000
    19  H    5.145977   4.485691   1.098343   0.000000
    20  H    5.285440   4.696195   1.093844   1.758939   0.000000
    21  H    4.806473   4.729873   1.092767   1.764674   1.770057
    22  C    4.543641   4.671148   3.048556   4.140130   2.795463
    23  H    5.050388   4.787412   2.915821   3.917448   2.322970
    24  H    5.139443   5.445756   4.133907   5.224347   3.813566
    25  H    4.872590   5.127579   2.730569   3.791154   2.610086
    26  C    3.104051   2.984144   4.100067   4.996967   4.110813
    27  H    3.858689   3.961665   5.006245   5.964346   4.897341
    28  H    3.783632   3.129310   3.910568   4.712623   3.727833
    29  H    2.324361   2.274422   4.555379   5.334901   4.769609
                   21         22         23         24         25
    21  H    0.000000
    22  C    3.019080   0.000000
    23  H    3.188099   1.090275   0.000000
    24  H    4.011114   1.100493   1.776821   0.000000
    25  H    2.342781   1.089711   1.795750   1.762926   0.000000
    26  C    4.517183   2.564248   2.734442   2.921559   3.487313
    27  H    5.323860   2.855845   3.088054   2.785310   3.866592
    28  H    4.542948   2.782767   2.506995   3.269238   3.732880
    29  H    4.993014   3.493359   3.738408   3.888768   4.290451
                   26         27         28         29
    26  C    0.000000
    27  H    1.099881   0.000000
    28  H    1.090760   1.772298   0.000000
    29  H    1.088373   1.765130   1.796826   0.000000
 Framework group  C1[X(C8H16Cl3FeO)]
 Deg. of freedom    81
                         Standard orientation:                         
 ---------------------------------------------------------------------
 Center     Atomic      Atomic             Coordinates (Angstroms)
 Number     Number       Type             X           Y           Z
 ---------------------------------------------------------------------
      1          8           0       -0.279267   -0.233194   -0.787367
      2          6           0       -1.110416   -1.176791   -0.644619
      3          6           0       -3.063422   -0.090494    0.359486
      4          6           0       -2.482055    1.007102   -0.179591
      5          6           0       -2.748323    1.431593   -1.594090
      6         26           0        1.454341    0.116241    0.031291
      7         17           0        2.095649    2.002581   -0.853979
      8          6           0       -1.588193    1.935552    0.583379
      9         17           0        2.584527   -1.660159   -0.578627
     10         17           0        1.186495    0.201720    2.214157
     11          1           0       -3.774825   -0.632628   -0.261729
     12          1           0       -2.145280    2.854736    0.812858
     13          1           0       -1.219450    1.523467    1.521913
     14          1           0       -0.730249    2.238367   -0.026836
     15          1           0       -3.116797    2.465264   -1.601744
     16          1           0       -1.816636    1.430767   -2.174287
     17          1           0       -3.491670    0.804572   -2.093126
     18          6           0       -3.091225   -0.439820    1.824794
     19          1           0       -3.941927    0.059975    2.307359
     20          1           0       -3.226660   -1.513753    1.982335
     21          1           0       -2.188200   -0.130025    2.356502
     22          6           0       -0.954381   -2.151650    0.484186
     23          1           0       -1.836664   -2.778322    0.616697
     24          1           0       -0.109925   -2.796788    0.198220
     25          1           0       -0.682536   -1.659919    1.417873
     26          6           0       -1.821605   -1.659123   -1.878166
     27          1           0       -1.124285   -2.360808   -2.358917
     28          1           0       -2.740381   -2.200612   -1.649262
     29          1           0       -2.008935   -0.849617   -2.581133
 ---------------------------------------------------------------------
 Rotational constants (GHZ):           0.5754555           0.3317906           0.3126346
   427 basis functions,  1056 primitive gaussians,   461 cartesian basis functions
    77 alpha electrons       72 beta electrons
       nuclear repulsion energy      1637.6626226023 Hartrees.
 NAtoms=   29 NActive=   29 NUniq=   29 SFac= 1.00D+00 NAtFMM=   60 NAOKFM=F Big=F
 Initial guess from the checkpoint file:  "checkpoint.chk"
 B after Tr=     0.000000    0.000000    0.000000
         Rot=    1.000000    0.000000    0.000000    0.000000 Ang=   0.00 deg.
 Initial guess <Sx>= 0.0000 <Sy>= 0.0000 <Sz>= 2.5000 <S**2>= 8.7627 S= 2.5021
 SCF Done:  E(UB3LYP) =  -3034.34179505     A.U. after   13 cycles
            NFock= 13  Conv=0.71D-08     -V/T= 2.0024
 <Sx>= 0.0000 <Sy>= 0.0000 <Sz>= 2.5000 <S**2>= 8.7620 S= 2.5020
 <L.S>= 0.000000000000E+00
 Annihilation of the first spin contaminant:
 S**2 before annihilation     8.7620,   after     8.7500
 1\1\GINC-HOLY7C04208\SP\UB3LYP\Jul-CC-pVDZ\C8H16Cl3Fe1O1(6)\EKWAN\11-F
 eb-2020\0\\#t pop=none jul-cc-pvdz guess=read ub3lyp\\theory_abbreviat
 ion b3lyp\\0,6\O,0,-0.279267,-0.233194,-0.787367\C,0,-1.110416,-1.1767
 91,-0.644619\C,0,-3.063422,-0.090494,0.359486\C,0,-2.482055,1.007102,-
 0.179591\C,0,-2.748323,1.431593,-1.59409\Fe,0,1.454341,0.116241,0.0312
 91\Cl,0,2.095649,2.002581,-0.853979\C,0,-1.588193,1.935552,0.583379\Cl
 ,0,2.584527,-1.660159,-0.578627\Cl,0,1.186495,0.20172,2.214157\H,0,-3.
 774825,-0.632628,-0.261729\H,0,-2.14528,2.854736,0.812858\H,0,-1.21945
 ,1.523467,1.521913\H,0,-0.730249,2.238367,-0.026836\H,0,-3.116797,2.46
 5264,-1.601744\H,0,-1.816636,1.430767,-2.174287\H,0,-3.49167,0.804572,
 -2.093126\C,0,-3.091225,-0.43982,1.824794\H,0,-3.941927,0.059975,2.307
 359\H,0,-3.22666,-1.513753,1.982335\H,0,-2.1882,-0.130025,2.356502\C,0
 ,-0.954381,-2.15165,0.484186\H,0,-1.836664,-2.778322,0.616697\H,0,-0.1
 09925,-2.796788,0.19822\H,0,-0.682536,-1.659919,1.417873\C,0,-1.821605
 ,-1.659123,-1.878166\H,0,-1.124285,-2.360808,-2.358917\H,0,-2.740381,-
 2.200612,-1.649262\H,0,-2.008935,-0.849617,-2.581133\\Version=ES64L-G1
 6RevA.03\HF=-3034.3417951\S2=8.761976\S2-1=0.\S2A=8.750044\RMSD=7.101e
 -09\PG=C01 [X(C8H16Cl3Fe1O1)]\\@


 IBM COMPATIBILITY IS LIKE PREGNANCY. YOU ARE OR
 OR YOU ARE NOT. -- ADAM OSBORNE
 Job cpu time:       0 days  0 hours 55 minutes  4.6 seconds.
 Elapsed time:       0 days  0 hours 13 minutes 48.8 seconds.
 File lengths (MBytes):  RWF=    174 Int=      0 D2E=      0 Chk=     13 Scr=      1
 Normal termination of Gaussian 16 at Tue Feb 11 14:15:04 2020.
 Initial command:
 /n/sw/g16_nehalem/g16/l1.exe "/scratch/Gau-270323.inp" -scrdir="/scratch/"
 Entering Link 1 = /n/sw/g16_nehalem/g16/l1.exe PID=    273784.
  
 Copyright (c) 1988,1990,1992,1993,1995,1998,2003,2009,2016,
            Gaussian, Inc.  All Rights Reserved.
  
 This is part of the Gaussian(R) 16 program.  It is based on
 the Gaussian(R) 09 system (copyright 2009, Gaussian, Inc.),
 the Gaussian(R) 03 system (copyright 2003, Gaussian, Inc.),
 the Gaussian(R) 98 system (copyright 1998, Gaussian, Inc.),
 the Gaussian(R) 94 system (copyright 1995, Gaussian, Inc.),
 the Gaussian 92(TM) system (copyright 1992, Gaussian, Inc.),
 the Gaussian 90(TM) system (copyright 1990, Gaussian, Inc.),
 the Gaussian 88(TM) system (copyright 1988, Gaussian, Inc.),
 the Gaussian 86(TM) system (copyright 1986, Carnegie Mellon
 University), and the Gaussian 82(TM) system (copyright 1983,
 Carnegie Mellon University). Gaussian is a federally registered
 trademark of Gaussian, Inc.
  
 This software contains proprietary and confidential information,
 including trade secrets, belonging to Gaussian, Inc.
  
 This software is provided under written license and may be
 used, copied, transmitted, or stored only in accord with that
 written license.
  
 The following legend is applicable only to US Government
 contracts under FAR:
  
                    RESTRICTED RIGHTS LEGEND
  
 Use, reproduction and disclosure by the US Government is
 subject to restrictions as set forth in subparagraphs (a)
 and (c) of the Commercial Computer Software - Restricted
 Rights clause in FAR 52.227-19.
  
 Gaussian, Inc.
 340 Quinnipiac St., Bldg. 40, Wallingford CT 06492
  
  
 ---------------------------------------------------------------
 Warning -- This program may not be used in any manner that
 competes with the business of Gaussian, Inc. or will provide
 assistance to any competitor of Gaussian, Inc.  The licensee
 of this program is prohibited from giving any competitor of
 Gaussian, Inc. access to this program.  By using this program,
 the user acknowledges that Gaussian, Inc. is engaged in the
 business of creating and licensing software in the field of
 computational chemistry and represents and warrants to the
 licensee that it is not a competitor of Gaussian, Inc. and that
 it will not use this program in any manner prohibited above.
 ---------------------------------------------------------------
  

 Cite this work as:
 Gaussian 16, Revision A.03,
 M. J. Frisch, G. W. Trucks, H. B. Schlegel, G. E. Scuseria, 
 M. A. Robb, J. R. Cheeseman, G. Scalmani, V. Barone, 
 G. A. Petersson, H. Nakatsuji, X. Li, M. Caricato, A. V. Marenich, 
 J. Bloino, B. G. Janesko, R. Gomperts, B. Mennucci, H. P. Hratchian, 
 J. V. Ortiz, A. F. Izmaylov, J. L. Sonnenberg, D. Williams-Young, 
 F. Ding, F. Lipparini, F. Egidi, J. Goings, B. Peng, A. Petrone, 
 T. Henderson, D. Ranasinghe, V. G. Zakrzewski, J. Gao, N. Rega, 
 G. Zheng, W. Liang, M. Hada, M. Ehara, K. Toyota, R. Fukuda, 
 J. Hasegawa, M. Ishida, T. Nakajima, Y. Honda, O. Kitao, H. Nakai, 
 T. Vreven, K. Throssell, J. A. Montgomery, Jr., J. E. Peralta, 
 F. Ogliaro, M. J. Bearpark, J. J. Heyd, E. N. Brothers, K. N. Kudin, 
 V. N. Staroverov, T. A. Keith, R. Kobayashi, J. Normand, 
 K. Raghavachari, A. P. Rendell, J. C. Burant, S. S. Iyengar, 
 J. Tomasi, M. Cossi, J. M. Millam, M. Klene, C. Adamo, R. Cammi, 
 J. W. Ochterski, R. L. Martin, K. Morokuma, O. Farkas, 
 J. B. Foresman, and D. J. Fox, Gaussian, Inc., Wallingford CT, 2016.
 
 ******************************************
 Gaussian 16:  ES64L-G16RevA.03 25-Dec-2016
                11-Feb-2020 
 ******************************************
 %chk=checkpoint.chk
 %mem=3GB
 %nprocshared=4
 Will use up to    4 processors via shared memory.
 -------------------------------------------------------------------
 #t pop=none jul-cc-pvdz guess=read ub3lyp empiricaldispersion=gd3bj
 -------------------------------------------------------------------
 ------------------------------
 theory_abbreviation b3lyp_d3bj
 ------------------------------
 Symbolic Z-matrix:
 Charge =  0 Multiplicity = 6
 O                    -0.27927  -0.23319  -0.78737 
 C                    -1.11042  -1.17679  -0.64462 
 C                    -3.06342  -0.09049   0.35949 
 C                    -2.48206   1.0071   -0.17959 
 C                    -2.74832   1.43159  -1.59409 
 Fe                    1.45434   0.11624   0.03129 
 Cl                    2.09565   2.00258  -0.85398 
 C                    -1.58819   1.93555   0.58338 
 Cl                    2.58453  -1.66016  -0.57863 
 Cl                    1.1865    0.20172   2.21416 
 H                    -3.77483  -0.63263  -0.26173 
 H                    -2.14528   2.85474   0.81286 
 H                    -1.21945   1.52347   1.52191 
 H                    -0.73025   2.23837  -0.02684 
 H                    -3.1168    2.46526  -1.60174 
 H                    -1.81664   1.43077  -2.17429 
 H                    -3.49167   0.80457  -2.09313 
 C                    -3.09123  -0.43982   1.82479 
 H                    -3.94193   0.05998   2.30736 
 H                    -3.22666  -1.51375   1.98234 
 H                    -2.1882   -0.13003   2.3565 
 C                    -0.95438  -2.15165   0.48419 
 H                    -1.83666  -2.77832   0.6167 
 H                    -0.10993  -2.79679   0.19822 
 H                    -0.68254  -1.65992   1.41787 
 C                    -1.82161  -1.65912  -1.87817 
 H                    -1.12428  -2.36081  -2.35892 
 H                    -2.74038  -2.20061  -1.64926 
 H                    -2.00894  -0.84962  -2.58113 
 
                    Distance matrix (angstroms):
                    1          2          3          4          5
     1  O    0.000000
     2  C    1.265528   0.000000
     3  C    3.014491   2.450000   0.000000
     4  C    2.600000   2.620502   1.353997   0.000000
     5  C    3.085216   3.223027   2.496497   1.500633   0.000000
     6  Fe   1.948769   2.950723   4.534384   4.041450   4.694081
     7  Cl   3.262415   4.520076   5.698199   4.732985   4.933341
     8  C    2.880224   3.379782   2.516206   1.497709   2.518183
     9  Cl   3.206418   3.727010   5.936601   5.739666   6.247350
    10  Cl   3.368494   3.917741   4.646180   4.453867   5.612319
    11  H    3.557354   2.746233   1.088996   2.089669   2.662687
    12  H    3.946902   4.410033   3.118158   2.124176   2.860489
    13  H    3.050012   3.463689   2.712257   2.180807   3.472084
    14  H    2.624958   3.491345   3.319117   2.146665   2.679513
    15  H    3.999558   4.266874   3.221982   2.133460   1.097409
    16  H    2.656279   3.104511   3.207603   2.145014   1.097575
    17  H    3.619599   3.419699   2.645722   2.173006   1.093049
    18  C    3.843590   3.250343   1.506628   2.546023   3.912612
    19  H    4.803994   4.273315   2.142107   3.035325   4.304339
    20  H    4.242429   3.390121   2.164706   3.403391   4.657755
    21  H    3.679481   3.356198   2.180745   2.794848   4.284806
    22  C    2.398562   1.499633   2.951604   3.571009   4.514099
    23  H    3.297659   2.164083   2.965723   3.921739   4.841703
    24  H    2.751740   2.082246   4.009137   4.498813   5.296482
    25  H    2.657302   2.161103   3.041693   3.592097   4.785065
    26  C    2.366838   1.503354   3.001632   3.229568   3.239140
    27  H    2.776791   2.083484   4.037857   4.235070   4.195803
    28  H    3.266600   2.171245   2.931215   3.537809   3.632633
    29  H    2.566968   2.159737   3.214880   3.072239   2.593235
                    6          7          8          9         10
     6  Fe   0.000000
     7  Cl   2.180197   0.000000
     8  C    3.587716   3.954894   0.000000
     9  Cl   2.192012   3.705467   5.629475   0.000000
    10  Cl   2.200898   3.671937   3.655749   3.636032   0.000000
    11  H    5.290637   6.462008   3.477228   6.449620   5.607214
    12  H    4.589932   4.635730   1.099048   6.685176   4.483621
    13  H    3.369183   4.106616   1.089326   5.386834   2.831040
    14  H    3.046183   2.953889   1.095503   5.146913   3.583837
    15  H    5.392589   5.286097   2.718821   7.111327   6.180862
    16  H    4.158346   4.168472   2.812777   5.609830   5.457819
    17  H    5.426783   5.847123   3.473618   6.729694   6.387593
    18  C    4.918132   6.328097   3.072883   6.283297   4.343048
    19  H    5.856907   7.086614   3.468423   7.340462   5.131227
    20  H    5.326840   6.981136   4.066861   6.352154   4.740520
    21  H    4.328436   5.762513   2.787576   5.808202   3.393948
    22  C    3.339219   5.324566   4.137243   3.727600   3.621395
    23  H    4.421754   6.362626   4.720536   4.714448   4.535639
    24  H    3.310669   5.385687   4.972793   3.025804   3.838718
    25  H    3.105414   5.127722   3.800527   3.828800   2.755548
    26  C    4.186856   5.459113   4.362955   4.593779   5.409114
    27  H    4.300951   5.627786   5.227908   4.173204   5.728810
    28  H    5.078165   6.456508   4.839429   5.458296   6.009789
    29  H    4.444313   5.288261   4.236547   5.076111   5.857550
                   11         12         13         14         15
    11  H    0.000000
    12  H    3.996481   0.000000
    13  H    3.789468   1.769801   0.000000
    14  H    4.191328   1.757074   1.774549   0.000000
    15  H    3.438834   2.631698   3.774141   2.868349   0.000000
    16  H    3.427825   3.325467   3.745280   2.538504   1.757387
    17  H    2.345152   3.802720   4.329931   3.735073   1.771972
    18  C    2.204101   3.573923   2.729427   4.021869   4.492363
    19  H    2.666052   3.643098   3.189140   4.528657   4.663404
    20  H    2.472385   4.649812   3.669548   4.934292   5.356330
    21  H    3.102438   3.360577   2.090228   3.662677   4.823435
    22  C    3.289182   5.156565   3.828005   4.425339   5.508452
    23  H    3.021937   5.644915   4.439117   5.177399   5.835702
    24  H    4.280962   6.038226   4.652721   5.078212   6.322210
    25  H    3.665875   4.784117   3.230023   4.157655   5.662230
    26  C    2.735257   5.265102   4.695956   4.450720   4.331801
    27  H    3.796072   6.189062   5.491584   5.171680   5.275830
    28  H    2.335358   5.654443   5.122338   5.135896   4.681276
    29  H    2.923198   5.025932   4.805185   4.206556   3.629738
                   16         17         18         19         20
    16  H    0.000000
    17  H    1.790097   0.000000
    18  C    4.595250   4.130250   0.000000
    19  H    5.145977   4.485691   1.098343   0.000000
    20  H    5.285440   4.696195   1.093844   1.758939   0.000000
    21  H    4.806473   4.729873   1.092767   1.764674   1.770057
    22  C    4.543641   4.671148   3.048556   4.140130   2.795463
    23  H    5.050388   4.787412   2.915821   3.917448   2.322970
    24  H    5.139443   5.445756   4.133907   5.224347   3.813566
    25  H    4.872590   5.127579   2.730569   3.791154   2.610086
    26  C    3.104051   2.984144   4.100067   4.996967   4.110813
    27  H    3.858689   3.961665   5.006245   5.964346   4.897341
    28  H    3.783632   3.129310   3.910568   4.712623   3.727833
    29  H    2.324361   2.274422   4.555379   5.334901   4.769609
                   21         22         23         24         25
    21  H    0.000000
    22  C    3.019080   0.000000
    23  H    3.188099   1.090275   0.000000
    24  H    4.011114   1.100493   1.776821   0.000000
    25  H    2.342781   1.089711   1.795750   1.762926   0.000000
    26  C    4.517183   2.564248   2.734442   2.921559   3.487313
    27  H    5.323860   2.855845   3.088054   2.785310   3.866592
    28  H    4.542948   2.782767   2.506995   3.269238   3.732880
    29  H    4.993014   3.493359   3.738408   3.888768   4.290451
                   26         27         28         29
    26  C    0.000000
    27  H    1.099881   0.000000
    28  H    1.090760   1.772298   0.000000
    29  H    1.088373   1.765130   1.796826   0.000000
 Framework group  C1[X(C8H16Cl3FeO)]
 Deg. of freedom    81
                         Standard orientation:                         
 ---------------------------------------------------------------------
 Center     Atomic      Atomic             Coordinates (Angstroms)
 Number     Number       Type             X           Y           Z
 ---------------------------------------------------------------------
      1          8           0       -0.279267   -0.233194   -0.787367
      2          6           0       -1.110416   -1.176791   -0.644619
      3          6           0       -3.063422   -0.090494    0.359486
      4          6           0       -2.482055    1.007102   -0.179591
      5          6           0       -2.748323    1.431593   -1.594090
      6         26           0        1.454341    0.116241    0.031291
      7         17           0        2.095649    2.002581   -0.853979
      8          6           0       -1.588193    1.935552    0.583379
      9         17           0        2.584527   -1.660159   -0.578627
     10         17           0        1.186495    0.201720    2.214157
     11          1           0       -3.774825   -0.632628   -0.261729
     12          1           0       -2.145280    2.854736    0.812858
     13          1           0       -1.219450    1.523467    1.521913
     14          1           0       -0.730249    2.238367   -0.026836
     15          1           0       -3.116797    2.465264   -1.601744
     16          1           0       -1.816636    1.430767   -2.174287
     17          1           0       -3.491670    0.804572   -2.093126
     18          6           0       -3.091225   -0.439820    1.824794
     19          1           0       -3.941927    0.059975    2.307359
     20          1           0       -3.226660   -1.513753    1.982335
     21          1           0       -2.188200   -0.130025    2.356502
     22          6           0       -0.954381   -2.151650    0.484186
     23          1           0       -1.836664   -2.778322    0.616697
     24          1           0       -0.109925   -2.796788    0.198220
     25          1           0       -0.682536   -1.659919    1.417873
     26          6           0       -1.821605   -1.659123   -1.878166
     27          1           0       -1.124285   -2.360808   -2.358917
     28          1           0       -2.740381   -2.200612   -1.649262
     29          1           0       -2.008935   -0.849617   -2.581133
 ---------------------------------------------------------------------
 Rotational constants (GHZ):           0.5754555           0.3317906           0.3126346
   427 basis functions,  1056 primitive gaussians,   461 cartesian basis functions
    77 alpha electrons       72 beta electrons
       nuclear repulsion energy      1637.6626226023 Hartrees.
 NAtoms=   29 NActive=   29 NUniq=   29 SFac= 1.00D+00 NAtFMM=   60 NAOKFM=F Big=F
 Nuclear repulsion after empirical dispersion term =     1637.5930704962 Hartrees.
 Initial guess from the checkpoint file:  "checkpoint.chk"
 B after Tr=     0.000000    0.000000    0.000000
         Rot=    1.000000    0.000000    0.000000    0.000000 Ang=   0.00 deg.
 Initial guess <Sx>= 0.0000 <Sy>= 0.0000 <Sz>= 2.5000 <S**2>= 8.7620 S= 2.5020
 SCF Done:  E(UB3LYP) =  -3034.41134716     A.U. after    1 cycles
            NFock=  1  Conv=0.46D-08     -V/T= 2.0024
 <Sx>= 0.0000 <Sy>= 0.0000 <Sz>= 2.5000 <S**2>= 8.7620 S= 2.5020
 <L.S>= 0.000000000000E+00
 Annihilation of the first spin contaminant:
 S**2 before annihilation     8.7620,   after     8.7500
 1\1\GINC-HOLY7C04208\SP\UB3LYP\Jul-CC-pVDZ\C8H16Cl3Fe1O1(6)\EKWAN\11-F
 eb-2020\0\\#t pop=none jul-cc-pvdz guess=read ub3lyp empiricaldispersi
 on=gd3bj\\theory_abbreviation b3lyp_d3bj\\0,6\O,0,-0.279267,-0.233194,
 -0.787367\C,0,-1.110416,-1.176791,-0.644619\C,0,-3.063422,-0.090494,0.
 359486\C,0,-2.482055,1.007102,-0.179591\C,0,-2.748323,1.431593,-1.5940
 9\Fe,0,1.454341,0.116241,0.031291\Cl,0,2.095649,2.002581,-0.853979\C,0
 ,-1.588193,1.935552,0.583379\Cl,0,2.584527,-1.660159,-0.578627\Cl,0,1.
 186495,0.20172,2.214157\H,0,-3.774825,-0.632628,-0.261729\H,0,-2.14528
 ,2.854736,0.812858\H,0,-1.21945,1.523467,1.521913\H,0,-0.730249,2.2383
 67,-0.026836\H,0,-3.116797,2.465264,-1.601744\H,0,-1.816636,1.430767,-
 2.174287\H,0,-3.49167,0.804572,-2.093126\C,0,-3.091225,-0.43982,1.8247
 94\H,0,-3.941927,0.059975,2.307359\H,0,-3.22666,-1.513753,1.982335\H,0
 ,-2.1882,-0.130025,2.356502\C,0,-0.954381,-2.15165,0.484186\H,0,-1.836
 664,-2.778322,0.616697\H,0,-0.109925,-2.796788,0.19822\H,0,-0.682536,-
 1.659919,1.417873\C,0,-1.821605,-1.659123,-1.878166\H,0,-1.124285,-2.3
 60808,-2.358917\H,0,-2.740381,-2.200612,-1.649262\H,0,-2.008935,-0.849
 617,-2.581133\\Version=ES64L-G16RevA.03\HF=-3034.4113472\S2=8.761976\S
 2-1=0.\S2A=8.750044\RMSD=4.580e-09\PG=C01 [X(C8H16Cl3Fe1O1)]\\@


 SIGN SEEN IN A RESTAURANT-
 WE RESERVE THE RIGHT TO SERVE REFUSE TO ANYONE.
 Job cpu time:       0 days  0 hours  4 minutes 36.3 seconds.
 Elapsed time:       0 days  0 hours  1 minutes 10.1 seconds.
 File lengths (MBytes):  RWF=    170 Int=      0 D2E=      0 Chk=     13 Scr=      1
 Normal termination of Gaussian 16 at Tue Feb 11 14:16:15 2020.
 Initial command:
 /n/sw/g16_nehalem/g16/l1.exe "/scratch/Gau-270323.inp" -scrdir="/scratch/"
 Entering Link 1 = /n/sw/g16_nehalem/g16/l1.exe PID=    274558.
  
 Copyright (c) 1988,1990,1992,1993,1995,1998,2003,2009,2016,
            Gaussian, Inc.  All Rights Reserved.
  
 This is part of the Gaussian(R) 16 program.  It is based on
 the Gaussian(R) 09 system (copyright 2009, Gaussian, Inc.),
 the Gaussian(R) 03 system (copyright 2003, Gaussian, Inc.),
 the Gaussian(R) 98 system (copyright 1998, Gaussian, Inc.),
 the Gaussian(R) 94 system (copyright 1995, Gaussian, Inc.),
 the Gaussian 92(TM) system (copyright 1992, Gaussian, Inc.),
 the Gaussian 90(TM) system (copyright 1990, Gaussian, Inc.),
 the Gaussian 88(TM) system (copyright 1988, Gaussian, Inc.),
 the Gaussian 86(TM) system (copyright 1986, Carnegie Mellon
 University), and the Gaussian 82(TM) system (copyright 1983,
 Carnegie Mellon University). Gaussian is a federally registered
 trademark of Gaussian, Inc.
  
 This software contains proprietary and confidential information,
 including trade secrets, belonging to Gaussian, Inc.
  
 This software is provided under written license and may be
 used, copied, transmitted, or stored only in accord with that
 written license.
  
 The following legend is applicable only to US Government
 contracts under FAR:
  
                    RESTRICTED RIGHTS LEGEND
  
 Use, reproduction and disclosure by the US Government is
 subject to restrictions as set forth in subparagraphs (a)
 and (c) of the Commercial Computer Software - Restricted
 Rights clause in FAR 52.227-19.
  
 Gaussian, Inc.
 340 Quinnipiac St., Bldg. 40, Wallingford CT 06492
  
  
 ---------------------------------------------------------------
 Warning -- This program may not be used in any manner that
 competes with the business of Gaussian, Inc. or will provide
 assistance to any competitor of Gaussian, Inc.  The licensee
 of this program is prohibited from giving any competitor of
 Gaussian, Inc. access to this program.  By using this program,
 the user acknowledges that Gaussian, Inc. is engaged in the
 business of creating and licensing software in the field of
 computational chemistry and represents and warrants to the
 licensee that it is not a competitor of Gaussian, Inc. and that
 it will not use this program in any manner prohibited above.
 ---------------------------------------------------------------
  

 Cite this work as:
 Gaussian 16, Revision A.03,
 M. J. Frisch, G. W. Trucks, H. B. Schlegel, G. E. Scuseria, 
 M. A. Robb, J. R. Cheeseman, G. Scalmani, V. Barone, 
 G. A. Petersson, H. Nakatsuji, X. Li, M. Caricato, A. V. Marenich, 
 J. Bloino, B. G. Janesko, R. Gomperts, B. Mennucci, H. P. Hratchian, 
 J. V. Ortiz, A. F. Izmaylov, J. L. Sonnenberg, D. Williams-Young, 
 F. Ding, F. Lipparini, F. Egidi, J. Goings, B. Peng, A. Petrone, 
 T. Henderson, D. Ranasinghe, V. G. Zakrzewski, J. Gao, N. Rega, 
 G. Zheng, W. Liang, M. Hada, M. Ehara, K. Toyota, R. Fukuda, 
 J. Hasegawa, M. Ishida, T. Nakajima, Y. Honda, O. Kitao, H. Nakai, 
 T. Vreven, K. Throssell, J. A. Montgomery, Jr., J. E. Peralta, 
 F. Ogliaro, M. J. Bearpark, J. J. Heyd, E. N. Brothers, K. N. Kudin, 
 V. N. Staroverov, T. A. Keith, R. Kobayashi, J. Normand, 
 K. Raghavachari, A. P. Rendell, J. C. Burant, S. S. Iyengar, 
 J. Tomasi, M. Cossi, J. M. Millam, M. Klene, C. Adamo, R. Cammi, 
 J. W. Ochterski, R. L. Martin, K. Morokuma, O. Farkas, 
 J. B. Foresman, and D. J. Fox, Gaussian, Inc., Wallingford CT, 2016.
 
 ******************************************
 Gaussian 16:  ES64L-G16RevA.03 25-Dec-2016
                11-Feb-2020 
 ******************************************
 %chk=checkpoint.chk
 %mem=3GB
 %nprocshared=4
 Will use up to    4 processors via shared memory.
 ----------------------------------------
 #t pop=none jul-cc-pvdz guess=read ub97d
 ----------------------------------------
 ------------------------
 theory_abbreviation b97d
 ------------------------
 Symbolic Z-matrix:
 Charge =  0 Multiplicity = 6
 O                    -0.27927  -0.23319  -0.78737 
 C                    -1.11042  -1.17679  -0.64462 
 C                    -3.06342  -0.09049   0.35949 
 C                    -2.48206   1.0071   -0.17959 
 C                    -2.74832   1.43159  -1.59409 
 Fe                    1.45434   0.11624   0.03129 
 Cl                    2.09565   2.00258  -0.85398 
 C                    -1.58819   1.93555   0.58338 
 Cl                    2.58453  -1.66016  -0.57863 
 Cl                    1.1865    0.20172   2.21416 
 H                    -3.77483  -0.63263  -0.26173 
 H                    -2.14528   2.85474   0.81286 
 H                    -1.21945   1.52347   1.52191 
 H                    -0.73025   2.23837  -0.02684 
 H                    -3.1168    2.46526  -1.60174 
 H                    -1.81664   1.43077  -2.17429 
 H                    -3.49167   0.80457  -2.09313 
 C                    -3.09123  -0.43982   1.82479 
 H                    -3.94193   0.05998   2.30736 
 H                    -3.22666  -1.51375   1.98234 
 H                    -2.1882   -0.13003   2.3565 
 C                    -0.95438  -2.15165   0.48419 
 H                    -1.83666  -2.77832   0.6167 
 H                    -0.10993  -2.79679   0.19822 
 H                    -0.68254  -1.65992   1.41787 
 C                    -1.82161  -1.65912  -1.87817 
 H                    -1.12428  -2.36081  -2.35892 
 H                    -2.74038  -2.20061  -1.64926 
 H                    -2.00894  -0.84962  -2.58113 
 
                    Distance matrix (angstroms):
                    1          2          3          4          5
     1  O    0.000000
     2  C    1.265528   0.000000
     3  C    3.014491   2.450000   0.000000
     4  C    2.600000   2.620502   1.353997   0.000000
     5  C    3.085216   3.223027   2.496497   1.500633   0.000000
     6  Fe   1.948769   2.950723   4.534384   4.041450   4.694081
     7  Cl   3.262415   4.520076   5.698199   4.732985   4.933341
     8  C    2.880224   3.379782   2.516206   1.497709   2.518183
     9  Cl   3.206418   3.727010   5.936601   5.739666   6.247350
    10  Cl   3.368494   3.917741   4.646180   4.453867   5.612319
    11  H    3.557354   2.746233   1.088996   2.089669   2.662687
    12  H    3.946902   4.410033   3.118158   2.124176   2.860489
    13  H    3.050012   3.463689   2.712257   2.180807   3.472084
    14  H    2.624958   3.491345   3.319117   2.146665   2.679513
    15  H    3.999558   4.266874   3.221982   2.133460   1.097409
    16  H    2.656279   3.104511   3.207603   2.145014   1.097575
    17  H    3.619599   3.419699   2.645722   2.173006   1.093049
    18  C    3.843590   3.250343   1.506628   2.546023   3.912612
    19  H    4.803994   4.273315   2.142107   3.035325   4.304339
    20  H    4.242429   3.390121   2.164706   3.403391   4.657755
    21  H    3.679481   3.356198   2.180745   2.794848   4.284806
    22  C    2.398562   1.499633   2.951604   3.571009   4.514099
    23  H    3.297659   2.164083   2.965723   3.921739   4.841703
    24  H    2.751740   2.082246   4.009137   4.498813   5.296482
    25  H    2.657302   2.161103   3.041693   3.592097   4.785065
    26  C    2.366838   1.503354   3.001632   3.229568   3.239140
    27  H    2.776791   2.083484   4.037857   4.235070   4.195803
    28  H    3.266600   2.171245   2.931215   3.537809   3.632633
    29  H    2.566968   2.159737   3.214880   3.072239   2.593235
                    6          7          8          9         10
     6  Fe   0.000000
     7  Cl   2.180197   0.000000
     8  C    3.587716   3.954894   0.000000
     9  Cl   2.192012   3.705467   5.629475   0.000000
    10  Cl   2.200898   3.671937   3.655749   3.636032   0.000000
    11  H    5.290637   6.462008   3.477228   6.449620   5.607214
    12  H    4.589932   4.635730   1.099048   6.685176   4.483621
    13  H    3.369183   4.106616   1.089326   5.386834   2.831040
    14  H    3.046183   2.953889   1.095503   5.146913   3.583837
    15  H    5.392589   5.286097   2.718821   7.111327   6.180862
    16  H    4.158346   4.168472   2.812777   5.609830   5.457819
    17  H    5.426783   5.847123   3.473618   6.729694   6.387593
    18  C    4.918132   6.328097   3.072883   6.283297   4.343048
    19  H    5.856907   7.086614   3.468423   7.340462   5.131227
    20  H    5.326840   6.981136   4.066861   6.352154   4.740520
    21  H    4.328436   5.762513   2.787576   5.808202   3.393948
    22  C    3.339219   5.324566   4.137243   3.727600   3.621395
    23  H    4.421754   6.362626   4.720536   4.714448   4.535639
    24  H    3.310669   5.385687   4.972793   3.025804   3.838718
    25  H    3.105414   5.127722   3.800527   3.828800   2.755548
    26  C    4.186856   5.459113   4.362955   4.593779   5.409114
    27  H    4.300951   5.627786   5.227908   4.173204   5.728810
    28  H    5.078165   6.456508   4.839429   5.458296   6.009789
    29  H    4.444313   5.288261   4.236547   5.076111   5.857550
                   11         12         13         14         15
    11  H    0.000000
    12  H    3.996481   0.000000
    13  H    3.789468   1.769801   0.000000
    14  H    4.191328   1.757074   1.774549   0.000000
    15  H    3.438834   2.631698   3.774141   2.868349   0.000000
    16  H    3.427825   3.325467   3.745280   2.538504   1.757387
    17  H    2.345152   3.802720   4.329931   3.735073   1.771972
    18  C    2.204101   3.573923   2.729427   4.021869   4.492363
    19  H    2.666052   3.643098   3.189140   4.528657   4.663404
    20  H    2.472385   4.649812   3.669548   4.934292   5.356330
    21  H    3.102438   3.360577   2.090228   3.662677   4.823435
    22  C    3.289182   5.156565   3.828005   4.425339   5.508452
    23  H    3.021937   5.644915   4.439117   5.177399   5.835702
    24  H    4.280962   6.038226   4.652721   5.078212   6.322210
    25  H    3.665875   4.784117   3.230023   4.157655   5.662230
    26  C    2.735257   5.265102   4.695956   4.450720   4.331801
    27  H    3.796072   6.189062   5.491584   5.171680   5.275830
    28  H    2.335358   5.654443   5.122338   5.135896   4.681276
    29  H    2.923198   5.025932   4.805185   4.206556   3.629738
                   16         17         18         19         20
    16  H    0.000000
    17  H    1.790097   0.000000
    18  C    4.595250   4.130250   0.000000
    19  H    5.145977   4.485691   1.098343   0.000000
    20  H    5.285440   4.696195   1.093844   1.758939   0.000000
    21  H    4.806473   4.729873   1.092767   1.764674   1.770057
    22  C    4.543641   4.671148   3.048556   4.140130   2.795463
    23  H    5.050388   4.787412   2.915821   3.917448   2.322970
    24  H    5.139443   5.445756   4.133907   5.224347   3.813566
    25  H    4.872590   5.127579   2.730569   3.791154   2.610086
    26  C    3.104051   2.984144   4.100067   4.996967   4.110813
    27  H    3.858689   3.961665   5.006245   5.964346   4.897341
[...]
   427 basis functions,  1056 primitive gaussians,   461 cartesian basis functions
    77 alpha electrons       72 beta electrons
       nuclear repulsion energy      1637.6626226023 Hartrees.
 NAtoms=   29 NActive=   29 NUniq=   29 SFac= 1.00D+00 NAtFMM=   60 NAOKFM=F Big=F
 Nuclear repulsion after empirical dispersion term =     1637.6601598776 Hartrees.
 Initial guess from the checkpoint file:  "checkpoint.chk"
 B after Tr=     0.000000    0.000000    0.000000
         Rot=    1.000000    0.000000    0.000000    0.000000 Ang=   0.00 deg.
 Initial guess <Sx>= 0.0000 <Sy>= 0.0000 <Sz>= 2.5000 <S**2>= 8.7617 S= 2.5019
 SCF Done:  E(UM06L) =  -3034.21081967     A.U. after   17 cycles
            NFock= 17  Conv=0.81D-08     -V/T= 2.0020
 <Sx>= 0.0000 <Sy>= 0.0000 <Sz>= 2.5000 <S**2>= 8.7616 S= 2.5019
 <L.S>= 0.000000000000E+00
 Annihilation of the first spin contaminant:
 S**2 before annihilation     8.7616,   after     8.7500
 1\1\GINC-HOLY7C04208\SP\UM06L\Jul-CC-pVDZ\C8H16Cl3Fe1O1(6)\EKWAN\11-Fe
 b-2020\0\\#t pop=none jul-cc-pvdz guess=read um06l empiricaldispersion
 =gd3\\theory_abbreviation m06l_d3\\0,6\O,0,-0.279267,-0.233194,-0.7873
 67\C,0,-1.110416,-1.176791,-0.644619\C,0,-3.063422,-0.090494,0.359486\
 C,0,-2.482055,1.007102,-0.179591\C,0,-2.748323,1.431593,-1.59409\Fe,0,
 1.454341,0.116241,0.031291\Cl,0,2.095649,2.002581,-0.853979\C,0,-1.588
 193,1.935552,0.583379\Cl,0,2.584527,-1.660159,-0.578627\Cl,0,1.186495,
 0.20172,2.214157\H,0,-3.774825,-0.632628,-0.261729\H,0,-2.14528,2.8547
 36,0.812858\H,0,-1.21945,1.523467,1.521913\H,0,-0.730249,2.238367,-0.0
 26836\H,0,-3.116797,2.465264,-1.601744\H,0,-1.816636,1.430767,-2.17428
 7\H,0,-3.49167,0.804572,-2.093126\C,0,-3.091225,-0.43982,1.824794\H,0,
 -3.941927,0.059975,2.307359\H,0,-3.22666,-1.513753,1.982335\H,0,-2.188
 2,-0.130025,2.356502\C,0,-0.954381,-2.15165,0.484186\H,0,-1.836664,-2.
 778322,0.616697\H,0,-0.109925,-2.796788,0.19822\H,0,-0.682536,-1.65991
 9,1.417873\C,0,-1.821605,-1.659123,-1.878166\H,0,-1.124285,-2.360808,-
 2.358917\H,0,-2.740381,-2.200612,-1.649262\H,0,-2.008935,-0.849617,-2.
 581133\\Version=ES64L-G16RevA.03\HF=-3034.2108197\S2=8.761582\S2-1=0.\
 S2A=8.750043\RMSD=8.114e-09\PG=C01 [X(C8H16Cl3Fe1O1)]\\@


 I DON'T EXACTLY UNDERSTAND WHAT YOU ARE SAYING,
 BUT YOU ARE ABSOLUTELY RIGHT.
     M.S.GORDON, IN A NDSU FACULTY MEETING
 Job cpu time:       0 days  1 hours 15 minutes 24.5 seconds.
 Elapsed time:       0 days  0 hours 18 minutes 54.4 seconds.
 File lengths (MBytes):  RWF=    174 Int=      0 D2E=      0 Chk=     13 Scr=      1
 Normal termination of Gaussian 16 at Tue Feb 11 23:13:21 2020.
 Initial command:
 /n/sw/g16_nehalem/g16/l1.exe "/scratch/Gau-270323.inp" -scrdir="/scratch/"
 Entering Link 1 = /n/sw/g16_nehalem/g16/l1.exe PID=    324750.
  
 Copyright (c) 1988,1990,1992,1993,1995,1998,2003,2009,2016,
            Gaussian, Inc.  All Rights Reserved.
  
 This is part of the Gaussian(R) 16 program.  It is based on
 the Gaussian(R) 09 system (copyright 2009, Gaussian, Inc.),
 the Gaussian(R) 03 system (copyright 2003, Gaussian, Inc.),
 the Gaussian(R) 98 system (copyright 1998, Gaussian, Inc.),
 the Gaussian(R) 94 system (copyright 1995, Gaussian, Inc.),
 the Gaussian 92(TM) system (copyright 1992, Gaussian, Inc.),
 the Gaussian 90(TM) system (copyright 1990, Gaussian, Inc.),
 the Gaussian 88(TM) system (copyright 1988, Gaussian, Inc.),
 the Gaussian 86(TM) system (copyright 1986, Carnegie Mellon
 University), and the Gaussian 82(TM) system (copyright 1983,
 Carnegie Mellon University). Gaussian is a federally registered
 trademark of Gaussian, Inc.
  
 This software contains proprietary and confidential information,
 including trade secrets, belonging to Gaussian, Inc.
  
 This software is provided under written license and may be
 used, copied, transmitted, or stored only in accord with that
 written license.
  
 The following legend is applicable only to US Government
 contracts under FAR:
  
                    RESTRICTED RIGHTS LEGEND
  
 Use, reproduction and disclosure by the US Government is
 subject to restrictions as set forth in subparagraphs (a)
 and (c) of the Commercial Computer Software - Restricted
 Rights clause in FAR 52.227-19.
  
 Gaussian, Inc.
 340 Quinnipiac St., Bldg. 40, Wallingford CT 06492
  
  
 ---------------------------------------------------------------
 Warning -- This program may not be used in any manner that
 competes with the business of Gaussian, Inc. or will provide
 assistance to any competitor of Gaussian, Inc.  The licensee
 of this program is prohibited from giving any competitor of
 Gaussian, Inc. access to this program.  By using this program,
 the user acknowledges that Gaussian, Inc. is engaged in the
 business of creating and licensing software in the field of
 computational chemistry and represents and warrants to the
 licensee that it is not a competitor of Gaussian, Inc. and that
 it will not use this program in any manner prohibited above.
 ---------------------------------------------------------------
  

 Cite this work as:
 Gaussian 16, Revision A.03,
 M. J. Frisch, G. W. Trucks, H. B. Schlegel, G. E. Scuseria, 
 M. A. Robb, J. R. Cheeseman, G. Scalmani, V. Barone, 
 G. A. Petersson, H. Nakatsuji, X. Li, M. Caricato, A. V. Marenich, 
 J. Bloino, B. G. Janesko, R. Gomperts, B. Mennucci, H. P. Hratchian, 
 J. V. Ortiz, A. F. Izmaylov, J. L. Sonnenberg, D. Williams-Young, 
 F. Ding, F. Lipparini, F. Egidi, J. Goings, B. Peng, A. Petrone, 
 T. Henderson, D. Ranasinghe, V. G. Zakrzewski, J. Gao, N. Rega, 
 G. Zheng, W. Liang, M. Hada, M. Ehara, K. Toyota, R. Fukuda, 
 J. Hasegawa, M. Ishida, T. Nakajima, Y. Honda, O. Kitao, H. Nakai, 
 T. Vreven, K. Throssell, J. A. Montgomery, Jr., J. E. Peralta, 
 F. Ogliaro, M. J. Bearpark, J. J. Heyd, E. N. Brothers, K. N. Kudin, 
 V. N. Staroverov, T. A. Keith, R. Kobayashi, J. Normand, 
 K. Raghavachari, A. P. Rendell, J. C. Burant, S. S. Iyengar, 
 J. Tomasi, M. Cossi, J. M. Millam, M. Klene, C. Adamo, R. Cammi, 
 J. W. Ochterski, R. L. Martin, K. Morokuma, O. Farkas, 
 J. B. Foresman, and D. J. Fox, Gaussian, Inc., Wallingford CT, 2016.
 
 ******************************************
 Gaussian 16:  ES64L-G16RevA.03 25-Dec-2016
                11-Feb-2020 
 ******************************************
 %chk=checkpoint.chk
 %mem=3GB
 %nprocshared=4
 Will use up to    4 processors via shared memory.
 -------------------------------------------------------------------
 #t pop=none jul-cc-pvdz guess=read ub97d3 empiricaldispersion=gd3bj
 -------------------------------------------------------------------
 ------------------------------
 theory_abbreviation b97d3_d3bj
 ------------------------------
 Symbolic Z-matrix:
 Charge =  0 Multiplicity = 6
 O                    -0.27927  -0.23319  -0.78737 
 C                    -1.11042  -1.17679  -0.64462 
 C                    -3.06342  -0.09049   0.35949 
 C                    -2.48206   1.0071   -0.17959 
 C                    -2.74832   1.43159  -1.59409 
 Fe                    1.45434   0.11624   0.03129 
 Cl                    2.09565   2.00258  -0.85398 
 C                    -1.58819   1.93555   0.58338 
 Cl                    2.58453  -1.66016  -0.57863 
 Cl                    1.1865    0.20172   2.21416 
 H                    -3.77483  -0.63263  -0.26173 
 H                    -2.14528   2.85474   0.81286 
 H                    -1.21945   1.52347   1.52191 
 H                    -0.73025   2.23837  -0.02684 
 H                    -3.1168    2.46526  -1.60174 
 H                    -1.81664   1.43077  -2.17429 
 H                    -3.49167   0.80457  -2.09313 
 C                    -3.09123  -0.43982   1.82479 
 H                    -3.94193   0.05998   2.30736 
 H                    -3.22666  -1.51375   1.98234 
 H                    -2.1882   -0.13003   2.3565 
 C                    -0.95438  -2.15165   0.48419 
 H                    -1.83666  -2.77832   0.6167 
 H                    -0.10993  -2.79679   0.19822 
 H                    -0.68254  -1.65992   1.41787 
 C                    -1.82161  -1.65912  -1.87817 
 H                    -1.12428  -2.36081  -2.35892 
 H                    -2.74038  -2.20061  -1.64926 
 H                    -2.00894  -0.84962  -2.58113 
 
                    Distance matrix (angstroms):
                    1          2          3          4          5
     1  O    0.000000
     2  C    1.265528   0.000000
     3  C    3.014491   2.450000   0.000000
     4  C    2.600000   2.620502   1.353997   0.000000
     5  C    3.085216   3.223027   2.496497   1.500633   0.000000
     6  Fe   1.948769   2.950723   4.534384   4.041450   4.694081
     7  Cl   3.262415   4.520076   5.698199   4.732985   4.933341
     8  C    2.880224   3.379782   2.516206   1.497709   2.518183
     9  Cl   3.206418   3.727010   5.936601   5.739666   6.247350
    10  Cl   3.368494   3.917741   4.646180   4.453867   5.612319
    11  H    3.557354   2.746233   1.088996   2.089669   2.662687
    12  H    3.946902   4.410033   3.118158   2.124176   2.860489
    13  H    3.050012   3.463689   2.712257   2.180807   3.472084
    14  H    2.624958   3.491345   3.319117   2.146665   2.679513
    15  H    3.999558   4.266874   3.221982   2.133460   1.097409
    16  H    2.656279   3.104511   3.207603   2.145014   1.097575
    17  H    3.619599   3.419699   2.645722   2.173006   1.093049
    18  C    3.843590   3.250343   1.506628   2.546023   3.912612
    19  H    4.803994   4.273315   2.142107   3.035325   4.304339
    20  H    4.242429   3.390121   2.164706   3.403391   4.657755
    21  H    3.679481   3.356198   2.180745   2.794848   4.284806
    22  C    2.398562   1.499633   2.951604   3.571009   4.514099
    23  H    3.297659   2.164083   2.965723   3.921739   4.841703
    24  H    2.751740   2.082246   4.009137   4.498813   5.296482
    25  H    2.657302   2.161103   3.041693   3.592097   4.785065
    26  C    2.366838   1.503354   3.001632   3.229568   3.239140
    27  H    2.776791   2.083484   4.037857   4.235070   4.195803
    28  H    3.266600   2.171245   2.931215   3.537809   3.632633
    29  H    2.566968   2.159737   3.214880   3.072239   2.593235
                    6          7          8          9         10
     6  Fe   0.000000
     7  Cl   2.180197   0.000000
     8  C    3.587716   3.954894   0.000000
     9  Cl   2.192012   3.705467   5.629475   0.000000
    10  Cl   2.200898   3.671937   3.655749   3.636032   0.000000
    11  H    5.290637   6.462008   3.477228   6.449620   5.607214
    12  H    4.589932   4.635730   1.099048   6.685176   4.483621
    13  H    3.369183   4.106616   1.089326   5.386834   2.831040
    14  H    3.046183   2.953889   1.095503   5.146913   3.583837
    15  H    5.392589   5.286097   2.718821   7.111327   6.180862
    16  H    4.158346   4.168472   2.812777   5.609830   5.457819
    17  H    5.426783   5.847123   3.473618   6.729694   6.387593
    18  C    4.918132   6.328097   3.072883   6.283297   4.343048
    19  H    5.856907   7.086614   3.468423   7.340462   5.131227
    20  H    5.326840   6.981136   4.066861   6.352154   4.740520
    21  H    4.328436   5.762513   2.787576   5.808202   3.393948
    22  C    3.339219   5.324566   4.137243   3.727600   3.621395
    23  H    4.421754   6.362626   4.720536   4.714448   4.535639
    24  H    3.310669   5.385687   4.972793   3.025804   3.838718
    25  H    3.105414   5.127722   3.800527   3.828800   2.755548
    26  C    4.186856   5.459113   4.362955   4.593779   5.409114
    27  H    4.300951   5.627786   5.227908   4.173204   5.728810
    28  H    5.078165   6.456508   4.839429   5.458296   6.009789
    29  H    4.444313   5.288261   4.236547   5.076111   5.857550
                   11         12         13         14         15
    11  H    0.000000
    12  H    3.996481   0.000000
    13  H    3.789468   1.769801   0.000000
    14  H    4.191328   1.757074   1.774549   0.000000
    15  H    3.438834   2.631698   3.774141   2.868349   0.000000
    16  H    3.427825   3.325467   3.745280   2.538504   1.757387
    17  H    2.345152   3.802720   4.329931   3.735073   1.771972
    18  C    2.204101   3.573923   2.729427   4.021869   4.492363
    19  H    2.666052   3.643098   3.189140   4.528657   4.663404
    20  H    2.472385   4.649812   3.669548   4.934292   5.356330
    21  H    3.102438   3.360577   2.090228   3.662677   4.823435
    22  C    3.289182   5.156565   3.828005   4.425339   5.508452
    23  H    3.021937   5.644915   4.439117   5.177399   5.835702
    24  H    4.280962   6.038226   4.652721   5.078212   6.322210
    25  H    3.665875   4.784117   3.230023   4.157655   5.662230
    26  C    2.735257   5.265102   4.695956   4.450720   4.331801
    27  H    3.796072   6.189062   5.491584   5.171680   5.275830
    28  H    2.335358   5.654443   5.122338   5.135896   4.681276
    29  H    2.923198   5.025932   4.805185   4.206556   3.629738
                   16         17         18         19         20
    16  H    0.000000
    17  H    1.790097   0.000000
    18  C    4.595250   4.130250   0.000000
    19  H    5.145977   4.485691   1.098343   0.000000
    20  H    5.285440   4.696195   1.093844   1.758939   0.000000
    21  H    4.806473   4.729873   1.092767   1.764674   1.770057
    22  C    4.543641   4.671148   3.048556   4.140130   2.795463
    23  H    5.050388   4.787412   2.915821   3.917448   2.322970
    24  H    5.139443   5.445756   4.133907   5.224347   3.813566
    25  H    4.872590   5.127579   2.730569   3.791154   2.610086
    26  C    3.104051   2.984144   4.100067   4.996967   4.110813
    27  H    3.858689   3.961665   5.006245   5.964346   4.897341
    28  H    3.783632   3.129310   3.910568   4.712623   3.727833
    29  H    2.324361   2.274422   4.555379   5.334901   4.769609
                   21         22         23         24         25
    21  H    0.000000
    22  C    3.019080   0.000000
    23  H    3.188099   1.090275   0.000000
    24  H    4.011114   1.100493   1.776821   0.000000
    25  H    2.342781   1.089711   1.795750   1.762926   0.000000
    26  C    4.517183   2.564248   2.734442   2.921559   3.487313
    27  H    5.323860   2.855845   3.088054   2.785310   3.866592
    28  H    4.542948   2.782767   2.506995   3.269238   3.732880
    29  H    4.993014   3.493359   3.738408   3.888768   4.290451
                   26         27         28         29
    26  C    0.000000
    27  H    1.099881   0.000000
    28  H    1.090760   1.772298   0.000000
    29  H    1.088373   1.765130   1.796826   0.000000
 Framework group  C1[X(C8H16Cl3FeO)]
 Deg. of freedom    81
                         Standard orientation:                         
 ---------------------------------------------------------------------
 Center     Atomic      Atomic             Coordinates (Angstroms)
 Number     Number       Type             X           Y           Z
 ---------------------------------------------------------------------
      1          8           0       -0.279267   -0.233194   -0.787367
      2          6           0       -1.110416   -1.176791   -0.644619
      3          6           0       -3.063422   -0.090494    0.359486
      4          6           0       -2.482055    1.007102   -0.179591
      5          6           0       -2.748323    1.431593   -1.594090
      6         26           0        1.454341    0.116241    0.031291
      7         17           0        2.095649    2.002581   -0.853979
      8          6           0       -1.588193    1.935552    0.583379
      9         17           0        2.584527   -1.660159   -0.578627
     10         17           0        1.186495    0.201720    2.214157
     11          1           0       -3.774825   -0.632628   -0.261729
     12          1           0       -2.145280    2.854736    0.812858
     13          1           0       -1.219450    1.523467    1.521913
     14          1           0       -0.730249    2.238367   -0.026836
     15          1           0       -3.116797    2.465264   -1.601744
     16          1           0       -1.816636    1.430767   -2.174287
     17          1           0       -3.491670    0.804572   -2.093126
     18          6           0       -3.091225   -0.439820    1.824794
     19          1           0       -3.941927    0.059975    2.307359
     20          1           0       -3.226660   -1.513753    1.982335
     21          1           0       -2.188200   -0.130025    2.356502
     22          6           0       -0.954381   -2.151650    0.484186
     23          1           0       -1.836664   -2.778322    0.616697
     24          1           0       -0.109925   -2.796788    0.198220
     25          1           0       -0.682536   -1.659919    1.417873
     26          6           0       -1.821605   -1.659123   -1.878166
     27          1           0       -1.124285   -2.360808   -2.358917
     28          1           0       -2.740381   -2.200612   -1.649262
     29          1           0       -2.008935   -0.849617   -2.581133
 ---------------------------------------------------------------------
 Rotational constants (GHZ):           0.5754555           0.3317906           0.3126346
   427 basis functions,  1056 primitive gaussians,   461 cartesian basis functions
    77 alpha electrons       72 beta electrons
       nuclear repulsion energy      1637.6626226023 Hartrees.
 NAtoms=   29 NActive=   29 NUniq=   29 SFac= 1.00D+00 NAtFMM=   60 NAOKFM=F Big=F
 Nuclear repulsion after empirical dispersion term =     1637.5605914284 Hartrees.
 Initial guess from the checkpoint file:  "checkpoint.chk"
 B after Tr=     0.000000    0.000000    0.000000
         Rot=    1.000000    0.000000    0.000000    0.000000 Ang=   0.00 deg.
 Initial guess <Sx>= 0.0000 <Sy>= 0.0000 <Sz>= 2.5000 <S**2>= 8.7616 S= 2.5019
 EnCoef did   100 forward-backward iterations
 SCF Done:  E(UB97D3) =  -3034.63127610     A.U. after   17 cycles
            NFock= 17  Conv=0.39D-08     -V/T= 2.0019
 <Sx>= 0.0000 <Sy>= 0.0000 <Sz>= 2.5000 <S**2>= 8.7597 S= 2.5016
 <L.S>= 0.000000000000E+00
 Annihilation of the first spin contaminant:
 S**2 before annihilation     8.7597,   after     8.7500
 1\1\GINC-HOLY7C04208\SP\UB97D3\Jul-CC-pVDZ\C8H16Cl3Fe1O1(6)\EKWAN\11-F
 eb-2020\0\\#t pop=none jul-cc-pvdz guess=read ub97d3 empiricaldispersi
 on=gd3bj\\theory_abbreviation b97d3_d3bj\\0,6\O,0,-0.279267,-0.233194,
 -0.787367\C,0,-1.110416,-1.176791,-0.644619\C,0,-3.063422,-0.090494,0.
 359486\C,0,-2.482055,1.007102,-0.179591\C,0,-2.748323,1.431593,-1.5940
 9\Fe,0,1.454341,0.116241,0.031291\Cl,0,2.095649,2.002581,-0.853979\C,0
 ,-1.588193,1.935552,0.583379\Cl,0,2.584527,-1.660159,-0.578627\Cl,0,1.
 186495,0.20172,2.214157\H,0,-3.774825,-0.632628,-0.261729\H,0,-2.14528
 ,2.854736,0.812858\H,0,-1.21945,1.523467,1.521913\H,0,-0.730249,2.2383
 67,-0.026836\H,0,-3.116797,2.465264,-1.601744\H,0,-1.816636,1.430767,-
 2.174287\H,0,-3.49167,0.804572,-2.093126\C,0,-3.091225,-0.43982,1.8247
 94\H,0,-3.941927,0.059975,2.307359\H,0,-3.22666,-1.513753,1.982335\H,0
 ,-2.1882,-0.130025,2.356502\C,0,-0.954381,-2.15165,0.484186\H,0,-1.836
 664,-2.778322,0.616697\H,0,-0.109925,-2.796788,0.19822\H,0,-0.682536,-
 1.659919,1.417873\C,0,-1.821605,-1.659123,-1.878166\H,0,-1.124285,-2.3
 60808,-2.358917\H,0,-2.740381,-2.200612,-1.649262\H,0,-2.008935,-0.849
 617,-2.581133\\Version=ES64L-G16RevA.03\HF=-3034.6312761\S2=8.759706\S
 2-1=0.\S2A=8.75003\RMSD=3.913e-09\PG=C01 [X(C8H16Cl3Fe1O1)]\\@


 AND THIS OUR LIFE, EXEMPT FROM PUBLIC HAUNT,
 FINDS TONGUES IN TREES, BOOKS IN THE RUNNING BROOKS,
 SERMONS IN STONES, AND GOOD IN EVERYTHING.
 I WOULD NOT CHANGE IT. -- W. SHAKESPEARE
 AS YOU LIKE IT, ACT II, SCENE 1.
 Job cpu time:       0 days  0 hours 54 minutes  5.2 seconds.
 Elapsed time:       0 days  0 hours 13 minutes 33.7 seconds.
 File lengths (MBytes):  RWF=    174 Int=      0 D2E=      0 Chk=     13 Scr=      1
 Normal termination of Gaussian 16 at Tue Feb 11 23:26:56 2020.
