 Entering Gaussian System, Link 0=g16
 Input=simple-grid-260-255-b3lyp_d3bj-631gd-gas-singlepoint-DFT-juldz2-gas.gjf
 Output=simple-grid-260-255-b3lyp_d3bj-631gd-gas-singlepoint-DFT-juldz2-gas.out
 Initial command:
 /n/sw/g16_nehalem/g16/l1.exe "/scratch/Gau-85683.inp" -scrdir="/scratch/"
 Entering Link 1 = /n/sw/g16_nehalem/g16/l1.exe PID=     85695.
  
 Copyright (c) 1988,1990,1992,1993,1995,1998,2003,2009,2016,
            Gaussian, Inc.  All Rights Reserved.
  
 This is part of the Gaussian(R) 16 program.  It is based on
 the Gaussian(R) 09 system (copyright 2009, Gaussian, Inc.),
 the Gaussian(R) 03 system (copyright 2003, Gaussian, Inc.),
 the Gaussian(R) 98 system (copyright 1998, Gaussian, Inc.),
 the Gaussian(R) 94 system (copyright 1995, Gaussian, Inc.),
 the Gaussian 92(TM) system (copyright 1992, Gaussian, Inc.),
 the Gaussian 90(TM) system (copyright 1990, Gaussian, Inc.),
 the Gaussian 88(TM) system (copyright 1988, Gaussian, Inc.),
 the Gaussian 86(TM) system (copyright 1986, Carnegie Mellon
 University), and the Gaussian 82(TM) system (copyright 1983,
 Carnegie Mellon University). Gaussian is a federally registered
 trademark of Gaussian, Inc.
  
 This software contains proprietary and confidential information,
 including trade secrets, belonging to Gaussian, Inc.
  
 This software is provided under written license and may be
 used, copied, transmitted, or stored only in accord with that
 written license.
  
 The following legend is applicable only to US Government
 contracts under FAR:
  
                    RESTRICTED RIGHTS LEGEND
  
 Use, reproduction and disclosure by the US Government is
 subject to restrictions as set forth in subparagraphs (a)
 and (c) of the Commercial Computer Software - Restricted
 Rights clause in FAR 52.227-19.
  
 Gaussian, Inc.
 340 Quinnipiac St., Bldg. 40, Wallingford CT 06492
  
  
 ---------------------------------------------------------------
 Warning -- This program may not be used in any manner that
 competes with the business of Gaussian, Inc. or will provide
 assistance to any competitor of Gaussian, Inc.  The licensee
 of this program is prohibited from giving any competitor of
 Gaussian, Inc. access to this program.  By using this program,
 the user acknowledges that Gaussian, Inc. is engaged in the
 business of creating and licensing software in the field of
 computational chemistry and represents and warrants to the
 licensee that it is not a competitor of Gaussian, Inc. and that
 it will not use this program in any manner prohibited above.
 ---------------------------------------------------------------
  

 Cite this work as:
 Gaussian 16, Revision A.03,
 M. J. Frisch, G. W. Trucks, H. B. Schlegel, G. E. Scuseria, 
 M. A. Robb, J. R. Cheeseman, G. Scalmani, V. Barone, 
 G. A. Petersson, H. Nakatsuji, X. Li, M. Caricato, A. V. Marenich, 
 J. Bloino, B. G. Janesko, R. Gomperts, B. Mennucci, H. P. Hratchian, 
 J. V. Ortiz, A. F. Izmaylov, J. L. Sonnenberg, D. Williams-Young, 
 F. Ding, F. Lipparini, F. Egidi, J. Goings, B. Peng, A. Petrone, 
 T. Henderson, D. Ranasinghe, V. G. Zakrzewski, J. Gao, N. Rega, 
 G. Zheng, W. Liang, M. Hada, M. Ehara, K. Toyota, R. Fukuda, 
 J. Hasegawa, M. Ishida, T. Nakajima, Y. Honda, O. Kitao, H. Nakai, 
 T. Vreven, K. Throssell, J. A. Montgomery, Jr., J. E. Peralta, 
 F. Ogliaro, M. J. Bearpark, J. J. Heyd, E. N. Brothers, K. N. Kudin, 
 V. N. Staroverov, T. A. Keith, R. Kobayashi, J. Normand, 
 K. Raghavachari, A. P. Rendell, J. C. Burant, S. S. Iyengar, 
 J. Tomasi, M. Cossi, J. M. Millam, M. Klene, C. Adamo, R. Cammi, 
 J. W. Ochterski, R. L. Martin, K. Morokuma, O. Farkas, 
 J. B. Foresman, and D. J. Fox, Gaussian, Inc., Wallingford CT, 2016.
 
 ******************************************
 Gaussian 16:  ES64L-G16RevA.03 25-Dec-2016
                11-Feb-2020 
 ******************************************
 %chk=checkpoint.chk
 %mem=3GB
 %nprocshared=4
 Will use up to    4 processors via shared memory.
 --------------------------------
 #t pop=none jul-cc-pvdz upbe1pbe
 --------------------------------
 ------------------------
 theory_abbreviation pbe0
 ------------------------
 Symbolic Z-matrix:
 Charge =  0 Multiplicity = 6
 O                    -0.28541  -0.23446  -0.73773 
 C                    -1.08196  -1.20088  -0.6152 
 C                    -3.2211    0.02199   0.21465 
 C                    -2.43772   1.03191  -0.22167 
 C                    -2.49387   1.51032  -1.64479 
 Fe                    1.47325   0.10774   0.05404 
 Cl                    2.10628   1.97926  -0.86237 
 C                    -1.56978   1.86169   0.67938 
 Cl                    2.54209  -1.69525  -0.59021 
 Cl                    1.27747   0.19052   2.23834 
 H                    -3.88662  -0.44326  -0.51194 
 H                    -2.1175    2.77181   0.96112 
 H                    -1.2762    1.35454   1.59892 
 H                    -0.66487   2.1926    0.16058 
 H                    -2.78348   2.56903  -1.66243 
 H                    -1.50417   1.45037  -2.11304 
 H                    -3.21835   0.95513  -2.24745 
 C                    -3.44712  -0.38632   1.64434 
 H                    -4.35718   0.09275   2.0308 
 H                    -3.59979  -1.46682   1.73945 
 H                    -2.62554  -0.0996    2.30561 
 C                    -1.01642  -2.0904    0.58606 
 H                    -1.91183  -2.70187   0.69844 
 H                    -0.15844  -2.75925   0.41816 
 H                    -0.81169  -1.52543   1.49595 
 C                    -1.76093  -1.71332  -1.8493 
 H                    -1.05834  -2.43429  -2.29394 
 H                    -2.68978  -2.23987  -1.62641 
 H                    -1.92327  -0.91822  -2.5756 
 
                    Distance matrix (angstroms):
                    1          2          3          4          5
     1  O    0.000000
     2  C    1.258356   0.000000
     3  C    3.096948   2.599999   0.000000
     4  C    2.549993   2.641648   1.350556   0.000000
     5  C    2.957075   3.225541   2.490279   1.502424   0.000000
     6  Fe   1.958799   2.947789   4.697880   4.028126   4.537759
     7  Cl   3.261336   4.509908   5.776842   4.685716   4.689721
     8  C    2.837544   3.360536   2.515410   1.501242   2.525694
     9  Cl   3.185975   3.657703   6.067219   5.689621   6.062071
    10  Cl   3.388242   3.955443   4.935666   4.534557   5.571669
    11  H    3.614319   2.907023   1.089643   2.087990   2.653214
    12  H    3.909009   4.397659   3.055596   2.128098   2.919552
    13  H    2.994415   3.386767   2.733956   2.183523   3.468228
    14  H    2.615647   3.505926   3.353925   2.153214   2.658966
    15  H    3.867165   4.266620   3.194109   2.134959   1.097749
    16  H    2.493091   3.074233   3.225878   2.150326   1.096525
    17  H    3.506641   3.446273   2.633003   2.172339   1.093760
    18  C    3.961528   3.370901   1.503928   2.551914   3.914621
    19  H    4.934681   4.404747   2.143372   3.104826   4.357901
    20  H    4.317426   3.457529   2.164472   3.382309   4.641054
    21  H    3.841396   3.482322   2.177517   2.775386   4.267882
    22  C    2.394011   1.496182   3.075837   3.524395   4.486055
    23  H    3.285708   2.160388   3.060661   3.881270   4.855094
    24  H    2.779702   2.085481   4.142056   4.469610   5.285751
    25  H    2.633044   2.152986   3.137123   3.483424   4.680787
    26  C    2.366380   1.498868   3.066489   3.262446   3.312233
    27  H    2.803293   2.083278   4.123580   4.267500   4.247596
    28  H    3.254592   2.164976   2.964430   3.569507   3.755347
    29  H    2.554966   2.151944   3.217747   3.099785   2.662669
                    6          7          8          9         10
     6  Fe   0.000000
     7  Cl   2.177871   0.000000
     8  C    3.567552   3.988017   0.000000
     9  Cl   2.192776   3.710259   5.583116   0.000000
    10  Cl   2.194617   3.674363   3.651028   3.627132   0.000000
    11  H    5.417765   6.473509   3.478471   6.549962   5.885026
    12  H    4.562188   4.668362   1.098955   6.638757   4.451984
    13  H    3.391256   4.229586   1.090389   5.354703   2.878368
    14  H    2.988235   2.961623   1.094320   5.095458   3.478234
    15  H    5.208064   4.989758   2.730831   6.906188   6.112656
    16  H    3.919680   3.857362   2.823310   5.346602   5.315939
    17  H    5.293964   5.596341   3.479358   6.553907   6.396821
    18  C    5.194532   6.536041   3.083678   6.525117   4.796588
    19  H    6.156431   7.328413   3.567214   7.593849   5.639309
    20  H    5.572746   7.155703   4.040244   6.572833   5.175249
    21  H    4.681094   6.062008   2.757883   6.134843   3.914351
    22  C    3.363527   5.330229   3.991730   3.768654   3.632423
    23  H    4.446109   6.363511   4.576392   4.744607   4.572609
    24  H    3.318829   5.405755   4.838718   3.072746   3.751800
    25  H    3.157106   5.134114   3.565683   3.953323   2.803600
    26  C    4.171195   5.437325   4.383087   4.483481   5.437391
    27  H    4.287646   5.616376   5.249536   4.051175   5.734734
    28  H    5.066159   6.433273   4.836714   5.361228   6.048309
    29  H    4.416324   5.250507   4.295081   4.948228   5.886253
                   11         12         13         14         15
    11  H    0.000000
    12  H    3.954290   0.000000
    13  H    3.808167   1.767269   0.000000
    14  H    4.216606   1.756843   1.773389   0.000000
    15  H    3.407991   2.714345   3.792527   2.820205   0.000000
    16  H    3.438813   3.401891   3.720186   2.534692   1.758148
    17  H    2.326812   3.848005   4.327359   3.721588   1.770883
    18  C    2.201354   3.494065   2.783083   4.073491   4.484329
    19  H    2.640881   3.652086   3.357239   4.641148   4.716818
    20  H    2.489719   4.557295   3.657710   4.949538   5.341079
    21  H    3.105969   3.211043   2.105866   3.701302   4.784545
    22  C    3.486655   4.999416   3.600134   4.318420   5.467033
    23  H    3.235142   5.483837   4.203488   5.079374   5.840870
    24  H    4.486453   5.892826   4.423443   4.984344   6.293664
    25  H    3.828576   4.523000   2.919009   3.953303   5.534253
    26  C    2.814283   5.304911   4.640793   4.527386   4.406707
    27  H    3.890874   6.230632   5.436640   5.252395   5.329925
    28  H    2.429463   5.669197   5.031969   5.190415   4.809947
    29  H    2.887739   5.114929   4.796951   4.329835   3.706044
                   16         17         18         19         20
    16  H    0.000000
    17  H    1.789348   0.000000
    18  C    4.611549   4.122843   0.000000
    19  H    5.210966   4.510432   1.098666   0.000000
    20  H    5.267184   4.680453   1.095363   1.758060   0.000000
    21  H    4.815016   4.711078   1.092922   1.763827   1.771712
    22  C    4.478849   4.706649   3.151529   4.244299   2.897056
    23  H    5.031068   4.874307   2.934891   3.945224   2.336288
    24  H    5.093019   5.501377   4.236711   5.325778   3.906284
    25  H    4.728613   5.094930   2.874907   3.933836   2.799323
    26  C    3.185034   3.066475   4.099963   5.005755   4.039960
    27  H    3.914343   4.019452   5.040880   5.997633   4.864478
    28  H    3.906452   3.297443   3.834969   4.647202   3.571371
    29  H    2.449458   2.300955   4.518065   5.307057   4.661681
                   21         22         23         24         25
    21  H    0.000000
    22  C    3.083731   0.000000
    23  H    3.140726   1.090082   0.000000
    24  H    4.089351   1.100764   1.776576   0.000000
    25  H    2.445117   1.090417   1.797313   1.763714   0.000000
    26  C    4.540369   2.574385   2.736961   2.967033   3.482398
    27  H    5.390988   2.900763   3.123197   2.875916   3.905147
    28  H    4.477235   2.778034   2.494702   3.295096   3.713055
    29  H    4.998953   3.491769   3.728380   3.932754   4.264019
                   26         27         28         29
    26  C    0.000000
    27  H    1.100509   0.000000
    28  H    1.090733   1.773408   0.000000
    29  H    1.089057   1.768017   1.798682   0.000000
 Framework group  C1[X(C8H16Cl3FeO)]
 Deg. of freedom    81
                         Standard orientation:                         
 ---------------------------------------------------------------------
 Center     Atomic      Atomic             Coordinates (Angstroms)
 Number     Number       Type             X           Y           Z
 ---------------------------------------------------------------------
      1          8           0       -0.285412   -0.234464   -0.737732
      2          6           0       -1.081961   -1.200878   -0.615198
      3          6           0       -3.221102    0.021994    0.214654
      4          6           0       -2.437721    1.031913   -0.221672
      5          6           0       -2.493870    1.510317   -1.644786
      6         26           0        1.473249    0.107741    0.054039
      7         17           0        2.106283    1.979259   -0.862372
      8          6           0       -1.569784    1.861687    0.679377
      9         17           0        2.542092   -1.695251   -0.590212
     10         17           0        1.277465    0.190515    2.238338
     11          1           0       -3.886624   -0.443257   -0.511944
     12          1           0       -2.117499    2.771814    0.961122
     13          1           0       -1.276198    1.354539    1.598918
     14          1           0       -0.664867    2.192605    0.160576
     15          1           0       -2.783479    2.569028   -1.662428
     16          1           0       -1.504167    1.450371   -2.113040
     17          1           0       -3.218354    0.955132   -2.247449
     18          6           0       -3.447118   -0.386321    1.644338
     19          1           0       -4.357176    0.092752    2.030796
     20          1           0       -3.599785   -1.466815    1.739445
     21          1           0       -2.625540   -0.099604    2.305611
     22          6           0       -1.016419   -2.090399    0.586059
     23          1           0       -1.911829   -2.701865    0.698436
     24          1           0       -0.158440   -2.759250    0.418155
     25          1           0       -0.811688   -1.525434    1.495954
     26          6           0       -1.760926   -1.713323   -1.849302
     27          1           0       -1.058344   -2.434291   -2.293942
     28          1           0       -2.689777   -2.239871   -1.626407
     29          1           0       -1.923267   -0.918223   -2.575599
 ---------------------------------------------------------------------
 Rotational constants (GHZ):           0.5780197           0.3265260           0.3077081
   427 basis functions,  1056 primitive gaussians,   461 cartesian basis functions
    77 alpha electrons       72 beta electrons
       nuclear repulsion energy      1633.3658626007 Hartrees.
 NAtoms=   29 NActive=   29 NUniq=   29 SFac= 1.00D+00 NAtFMM=   60 NAOKFM=F Big=F
 ExpMin= 1.40D-02 ExpMax= 4.32D+06 ExpMxC= 4.91D+03 IAcc=3 IRadAn=         5 AccDes= 0.00D+00
 Harris functional with IExCor= 1009 and IRadAn=       5 diagonalized for initial guess.
 HarFok:  IExCor= 1009 AccDes= 0.00D+00 IRadAn=         5 IDoV= 1 UseB2=F ITyADJ=14
 ICtDFT=  3500011 ScaDFX=  1.000000  1.000000  1.000000  1.000000
 FoFCou: FMM=F IPFlag=           0 FMFlag=      100000 FMFlg1=           0
         NFxFlg=           0 DoJE=T BraDBF=F KetDBF=T FulRan=T
         wScrn=  0.000000 ICntrl=       500 IOpCl=  0 I1Cent=   200000004 NGrid=           0
         NMat0=    1 NMatS0=      1 NMatT0=    0 NMatD0=    1 NMtDS0=    0 NMtDT0=    0
 Petite list used in FoFCou.
 Initial guess <Sx>= 0.0000 <Sy>= 0.0000 <Sz>= 2.5000 <S**2>= 8.7500 S= 2.5000
 EnCoef did   100 forward-backward iterations
 SCF Done:  E(UPBE1PBE) =  -3033.12703871     A.U. after   19 cycles
            NFock= 19  Conv=0.83D-08     -V/T= 2.0021
 <Sx>= 0.0000 <Sy>= 0.0000 <Sz>= 2.5000 <S**2>= 8.7629 S= 2.5021
 <L.S>= 0.000000000000E+00
 Annihilation of the first spin contaminant:
 S**2 before annihilation     8.7629,   after     8.7501
 1\1\GINC-HOLY7C04209\SP\UPBE1PBE\Jul-CC-pVDZ\C8H16Cl3Fe1O1(6)\EKWAN\11
 -Feb-2020\0\\#t pop=none jul-cc-pvdz upbe1pbe\\theory_abbreviation pbe
 0\\0,6\O,0,-0.285412,-0.234464,-0.737732\C,0,-1.081961,-1.200878,-0.61
 5198\C,0,-3.221102,0.021994,0.214654\C,0,-2.437721,1.031913,-0.221672\
 C,0,-2.49387,1.510317,-1.644786\Fe,0,1.473249,0.107741,0.054039\Cl,0,2
 .106283,1.979259,-0.862372\C,0,-1.569784,1.861687,0.679377\Cl,0,2.5420
 92,-1.695251,-0.590212\Cl,0,1.277465,0.190515,2.238338\H,0,-3.886624,-
 0.443257,-0.511944\H,0,-2.117499,2.771814,0.961122\H,0,-1.276198,1.354
 539,1.598918\H,0,-0.664867,2.192605,0.160576\H,0,-2.783479,2.569028,-1
 .662428\H,0,-1.504167,1.450371,-2.11304\H,0,-3.218354,0.955132,-2.2474
 49\C,0,-3.447118,-0.386321,1.644338\H,0,-4.357176,0.092752,2.030796\H,
 0,-3.599785,-1.466815,1.739445\H,0,-2.62554,-0.099604,2.305611\C,0,-1.
 016419,-2.090399,0.586059\H,0,-1.911829,-2.701865,0.698436\H,0,-0.1584
 4,-2.75925,0.418155\H,0,-0.811688,-1.525434,1.495954\C,0,-1.760926,-1.
 713323,-1.849302\H,0,-1.058344,-2.434291,-2.293942\H,0,-2.689777,-2.23
 9871,-1.626407\H,0,-1.923267,-0.918223,-2.575599\\Version=ES64L-G16Rev
 A.03\HF=-3033.1270387\S2=8.762865\S2-1=0.\S2A=8.750051\RMSD=8.347e-09\
 PG=C01 [X(C8H16Cl3Fe1O1)]\\@


 The hours that make us happy make us wise.
                         -- John Masefield
 Job cpu time:       0 days  1 hours 21 minutes 14.9 seconds.
 Elapsed time:       0 days  0 hours 20 minutes 23.7 seconds.
 File lengths (MBytes):  RWF=    173 Int=      0 D2E=      0 Chk=     13 Scr=      1
 Normal termination of Gaussian 16 at Tue Feb 11 13:57:52 2020.
 Initial command:
 /n/sw/g16_nehalem/g16/l1.exe "/scratch/Gau-85683.inp" -scrdir="/scratch/"
 Entering Link 1 = /n/sw/g16_nehalem/g16/l1.exe PID=     87191.
  
 Copyright (c) 1988,1990,1992,1993,1995,1998,2003,2009,2016,
            Gaussian, Inc.  All Rights Reserved.
  
 This is part of the Gaussian(R) 16 program.  It is based on
 the Gaussian(R) 09 system (copyright 2009, Gaussian, Inc.),
 the Gaussian(R) 03 system (copyright 2003, Gaussian, Inc.),
 the Gaussian(R) 98 system (copyright 1998, Gaussian, Inc.),
 the Gaussian(R) 94 system (copyright 1995, Gaussian, Inc.),
 the Gaussian 92(TM) system (copyright 1992, Gaussian, Inc.),
 the Gaussian 90(TM) system (copyright 1990, Gaussian, Inc.),
 the Gaussian 88(TM) system (copyright 1988, Gaussian, Inc.),
 the Gaussian 86(TM) system (copyright 1986, Carnegie Mellon
 University), and the Gaussian 82(TM) system (copyright 1983,
 Carnegie Mellon University). Gaussian is a federally registered
 trademark of Gaussian, Inc.
  
 This software contains proprietary and confidential information,
 including trade secrets, belonging to Gaussian, Inc.
  
 This software is provided under written license and may be
 used, copied, transmitted, or stored only in accord with that
 written license.
  
 The following legend is applicable only to US Government
 contracts under FAR:
  
                    RESTRICTED RIGHTS LEGEND
  
 Use, reproduction and disclosure by the US Government is
 subject to restrictions as set forth in subparagraphs (a)
 and (c) of the Commercial Computer Software - Restricted
 Rights clause in FAR 52.227-19.
  
 Gaussian, Inc.
 340 Quinnipiac St., Bldg. 40, Wallingford CT 06492
  
  
 ---------------------------------------------------------------
 Warning -- This program may not be used in any manner that
 competes with the business of Gaussian, Inc. or will provide
 assistance to any competitor of Gaussian, Inc.  The licensee
 of this program is prohibited from giving any competitor of
 Gaussian, Inc. access to this program.  By using this program,
 the user acknowledges that Gaussian, Inc. is engaged in the
 business of creating and licensing software in the field of
 computational chemistry and represents and warrants to the
 licensee that it is not a competitor of Gaussian, Inc. and that
 it will not use this program in any manner prohibited above.
 ---------------------------------------------------------------
  

 Cite this work as:
 Gaussian 16, Revision A.03,
 M. J. Frisch, G. W. Trucks, H. B. Schlegel, G. E. Scuseria, 
 M. A. Robb, J. R. Cheeseman, G. Scalmani, V. Barone, 
 G. A. Petersson, H. Nakatsuji, X. Li, M. Caricato, A. V. Marenich, 
 J. Bloino, B. G. Janesko, R. Gomperts, B. Mennucci, H. P. Hratchian, 
 J. V. Ortiz, A. F. Izmaylov, J. L. Sonnenberg, D. Williams-Young, 
 F. Ding, F. Lipparini, F. Egidi, J. Goings, B. Peng, A. Petrone, 
 T. Henderson, D. Ranasinghe, V. G. Zakrzewski, J. Gao, N. Rega, 
 G. Zheng, W. Liang, M. Hada, M. Ehara, K. Toyota, R. Fukuda, 
 J. Hasegawa, M. Ishida, T. Nakajima, Y. Honda, O. Kitao, H. Nakai, 
 T. Vreven, K. Throssell, J. A. Montgomery, Jr., J. E. Peralta, 
 F. Ogliaro, M. J. Bearpark, J. J. Heyd, E. N. Brothers, K. N. Kudin, 
 V. N. Staroverov, T. A. Keith, R. Kobayashi, J. Normand, 
 K. Raghavachari, A. P. Rendell, J. C. Burant, S. S. Iyengar, 
 J. Tomasi, M. Cossi, J. M. Millam, M. Klene, C. Adamo, R. Cammi, 
 J. W. Ochterski, R. L. Martin, K. Morokuma, O. Farkas, 
 J. B. Foresman, and D. J. Fox, Gaussian, Inc., Wallingford CT, 2016.
 
 ******************************************
 Gaussian 16:  ES64L-G16RevA.03 25-Dec-2016
                11-Feb-2020 
 ******************************************
 %chk=checkpoint.chk
 %mem=3GB
 %nprocshared=4
 Will use up to    4 processors via shared memory.
 ---------------------------------------------------------------------
 #t pop=none jul-cc-pvdz guess=read upbe1pbe empiricaldispersion=gd3bj
 ---------------------------------------------------------------------
 -----------------------------
 theory_abbreviation pbe0_d3bj
 -----------------------------
 Symbolic Z-matrix:
 Charge =  0 Multiplicity = 6
 O                    -0.28541  -0.23446  -0.73773 
 C                    -1.08196  -1.20088  -0.6152 
 C                    -3.2211    0.02199   0.21465 
 C                    -2.43772   1.03191  -0.22167 
 C                    -2.49387   1.51032  -1.64479 
 Fe                    1.47325   0.10774   0.05404 
 Cl                    2.10628   1.97926  -0.86237 
 C                    -1.56978   1.86169   0.67938 
 Cl                    2.54209  -1.69525  -0.59021 
 Cl                    1.27747   0.19052   2.23834 
 H                    -3.88662  -0.44326  -0.51194 
 H                    -2.1175    2.77181   0.96112 
 H                    -1.2762    1.35454   1.59892 
 H                    -0.66487   2.1926    0.16058 
 H                    -2.78348   2.56903  -1.66243 
 H                    -1.50417   1.45037  -2.11304 
 H                    -3.21835   0.95513  -2.24745 
 C                    -3.44712  -0.38632   1.64434 
 H                    -4.35718   0.09275   2.0308 
 H                    -3.59979  -1.46682   1.73945 
 H                    -2.62554  -0.0996    2.30561 
 C                    -1.01642  -2.0904    0.58606 
 H                    -1.91183  -2.70187   0.69844 
 H                    -0.15844  -2.75925   0.41816 
 H                    -0.81169  -1.52543   1.49595 
 C                    -1.76093  -1.71332  -1.8493 
 H                    -1.05834  -2.43429  -2.29394 
 H                    -2.68978  -2.23987  -1.62641 
 H                    -1.92327  -0.91822  -2.5756 
 
                    Distance matrix (angstroms):
                    1          2          3          4          5
     1  O    0.000000
     2  C    1.258356   0.000000
     3  C    3.096948   2.599999   0.000000
     4  C    2.549993   2.641648   1.350556   0.000000
     5  C    2.957075   3.225541   2.490279   1.502424   0.000000
     6  Fe   1.958799   2.947789   4.697880   4.028126   4.537759
     7  Cl   3.261336   4.509908   5.776842   4.685716   4.689721
     8  C    2.837544   3.360536   2.515410   1.501242   2.525694
     9  Cl   3.185975   3.657703   6.067219   5.689621   6.062071
    10  Cl   3.388242   3.955443   4.935666   4.534557   5.571669
    11  H    3.614319   2.907023   1.089643   2.087990   2.653214
    12  H    3.909009   4.397659   3.055596   2.128098   2.919552
    13  H    2.994415   3.386767   2.733956   2.183523   3.468228
    14  H    2.615647   3.505926   3.353925   2.153214   2.658966
    15  H    3.867165   4.266620   3.194109   2.134959   1.097749
    16  H    2.493091   3.074233   3.225878   2.150326   1.096525
    17  H    3.506641   3.446273   2.633003   2.172339   1.093760
    18  C    3.961528   3.370901   1.503928   2.551914   3.914621
    19  H    4.934681   4.404747   2.143372   3.104826   4.357901
    20  H    4.317426   3.457529   2.164472   3.382309   4.641054
    21  H    3.841396   3.482322   2.177517   2.775386   4.267882
    22  C    2.394011   1.496182   3.075837   3.524395   4.486055
    23  H    3.285708   2.160388   3.060661   3.881270   4.855094
    24  H    2.779702   2.085481   4.142056   4.469610   5.285751
    25  H    2.633044   2.152986   3.137123   3.483424   4.680787
    26  C    2.366380   1.498868   3.066489   3.262446   3.312233
    27  H    2.803293   2.083278   4.123580   4.267500   4.247596
    28  H    3.254592   2.164976   2.964430   3.569507   3.755347
    29  H    2.554966   2.151944   3.217747   3.099785   2.662669
                    6          7          8          9         10
     6  Fe   0.000000
     7  Cl   2.177871   0.000000
     8  C    3.567552   3.988017   0.000000
     9  Cl   2.192776   3.710259   5.583116   0.000000
    10  Cl   2.194617   3.674363   3.651028   3.627132   0.000000
    11  H    5.417765   6.473509   3.478471   6.549962   5.885026
    12  H    4.562188   4.668362   1.098955   6.638757   4.451984
    13  H    3.391256   4.229586   1.090389   5.354703   2.878368
    14  H    2.988235   2.961623   1.094320   5.095458   3.478234
    15  H    5.208064   4.989758   2.730831   6.906188   6.112656
    16  H    3.919680   3.857362   2.823310   5.346602   5.315939
    17  H    5.293964   5.596341   3.479358   6.553907   6.396821
    18  C    5.194532   6.536041   3.083678   6.525117   4.796588
    19  H    6.156431   7.328413   3.567214   7.593849   5.639309
    20  H    5.572746   7.155703   4.040244   6.572833   5.175249
    21  H    4.681094   6.062008   2.757883   6.134843   3.914351
    22  C    3.363527   5.330229   3.991730   3.768654   3.632423
    23  H    4.446109   6.363511   4.576392   4.744607   4.572609
    24  H    3.318829   5.405755   4.838718   3.072746   3.751800
    25  H    3.157106   5.134114   3.565683   3.953323   2.803600
    26  C    4.171195   5.437325   4.383087   4.483481   5.437391
    27  H    4.287646   5.616376   5.249536   4.051175   5.734734
    28  H    5.066159   6.433273   4.836714   5.361228   6.048309
    29  H    4.416324   5.250507   4.295081   4.948228   5.886253
                   11         12         13         14         15
    11  H    0.000000
    12  H    3.954290   0.000000
    13  H    3.808167   1.767269   0.000000
    14  H    4.216606   1.756843   1.773389   0.000000
    15  H    3.407991   2.714345   3.792527   2.820205   0.000000
    16  H    3.438813   3.401891   3.720186   2.534692   1.758148
    17  H    2.326812   3.848005   4.327359   3.721588   1.770883
    18  C    2.201354   3.494065   2.783083   4.073491   4.484329
    19  H    2.640881   3.652086   3.357239   4.641148   4.716818
    20  H    2.489719   4.557295   3.657710   4.949538   5.341079
    21  H    3.105969   3.211043   2.105866   3.701302   4.784545
    22  C    3.486655   4.999416   3.600134   4.318420   5.467033
    23  H    3.235142   5.483837   4.203488   5.079374   5.840870
    24  H    4.486453   5.892826   4.423443   4.984344   6.293664
    25  H    3.828576   4.523000   2.919009   3.953303   5.534253
    26  C    2.814283   5.304911   4.640793   4.527386   4.406707
    27  H    3.890874   6.230632   5.436640   5.252395   5.329925
    28  H    2.429463   5.669197   5.031969   5.190415   4.809947
    29  H    2.887739   5.114929   4.796951   4.329835   3.706044
                   16         17         18         19         20
    16  H    0.000000
    17  H    1.789348   0.000000
    18  C    4.611549   4.122843   0.000000
    19  H    5.210966   4.510432   1.098666   0.000000
    20  H    5.267184   4.680453   1.095363   1.758060   0.000000
    21  H    4.815016   4.711078   1.092922   1.763827   1.771712
    22  C    4.478849   4.706649   3.151529   4.244299   2.897056
    23  H    5.031068   4.874307   2.934891   3.945224   2.336288
    24  H    5.093019   5.501377   4.236711   5.325778   3.906284
    25  H    4.728613   5.094930   2.874907   3.933836   2.799323
    26  C    3.185034   3.066475   4.099963   5.005755   4.039960
    27  H    3.914343   4.019452   5.040880   5.997633   4.864478
    28  H    3.906452   3.297443   3.834969   4.647202   3.571371
    29  H    2.449458   2.300955   4.518065   5.307057   4.661681
                   21         22         23         24         25
    21  H    0.000000
    22  C    3.083731   0.000000
    23  H    3.140726   1.090082   0.000000
    24  H    4.089351   1.100764   1.776576   0.000000
    25  H    2.445117   1.090417   1.797313   1.763714   0.000000
    26  C    4.540369   2.574385   2.736961   2.967033   3.482398
    27  H    5.390988   2.900763   3.123197   2.875916   3.905147
    28  H    4.477235   2.778034   2.494702   3.295096   3.713055
    29  H    4.998953   3.491769   3.728380   3.932754   4.264019
                   26         27         28         29
    26  C    0.000000
    27  H    1.100509   0.000000
    28  H    1.090733   1.773408   0.000000
    29  H    1.089057   1.768017   1.798682   0.000000
 Framework group  C1[X(C8H16Cl3FeO)]
 Deg. of freedom    81
                         Standard orientation:                         
 ---------------------------------------------------------------------
 Center     Atomic      Atomic             Coordinates (Angstroms)
 Number     Number       Type             X           Y           Z
 ---------------------------------------------------------------------
      1          8           0       -0.285412   -0.234464   -0.737732
      2          6           0       -1.081961   -1.200878   -0.615198
      3          6           0       -3.221102    0.021994    0.214654
      4          6           0       -2.437721    1.031913   -0.221672
      5          6           0       -2.493870    1.510317   -1.644786
      6         26           0        1.473249    0.107741    0.054039
      7         17           0        2.106283    1.979259   -0.862372
      8          6           0       -1.569784    1.861687    0.679377
      9         17           0        2.542092   -1.695251   -0.590212
     10         17           0        1.277465    0.190515    2.238338
     11          1           0       -3.886624   -0.443257   -0.511944
     12          1           0       -2.117499    2.771814    0.961122
     13          1           0       -1.276198    1.354539    1.598918
     14          1           0       -0.664867    2.192605    0.160576
     15          1           0       -2.783479    2.569028   -1.662428
     16          1           0       -1.504167    1.450371   -2.113040
     17          1           0       -3.218354    0.955132   -2.247449
     18          6           0       -3.447118   -0.386321    1.644338
     19          1           0       -4.357176    0.092752    2.030796
     20          1           0       -3.599785   -1.466815    1.739445
     21          1           0       -2.625540   -0.099604    2.305611
     22          6           0       -1.016419   -2.090399    0.586059
     23          1           0       -1.911829   -2.701865    0.698436
     24          1           0       -0.158440   -2.759250    0.418155
     25          1           0       -0.811688   -1.525434    1.495954
     26          6           0       -1.760926   -1.713323   -1.849302
     27          1           0       -1.058344   -2.434291   -2.293942
     28          1           0       -2.689777   -2.239871   -1.626407
     29          1           0       -1.923267   -0.918223   -2.575599
 ---------------------------------------------------------------------
 Rotational constants (GHZ):           0.5780197           0.3265260           0.3077081
   427 basis functions,  1056 primitive gaussians,   461 cartesian basis functions
    77 alpha electrons       72 beta electrons
       nuclear repulsion energy      1633.3658626007 Hartrees.
 NAtoms=   29 NActive=   29 NUniq=   29 SFac= 1.00D+00 NAtFMM=   60 NAOKFM=F Big=F
 Nuclear repulsion after empirical dispersion term =     1633.3287378112 Hartrees.
 Initial guess from the checkpoint file:  "checkpoint.chk"
 B after Tr=     0.000000    0.000000    0.000000
         Rot=    1.000000    0.000000    0.000000    0.000000 Ang=   0.00 deg.
 Initial guess <Sx>= 0.0000 <Sy>= 0.0000 <Sz>= 2.5000 <S**2>= 8.7629 S= 2.5021
 SCF Done:  E(UPBE1PBE) =  -3033.16416350     A.U. after    1 cycles
            NFock=  1  Conv=0.57D-08     -V/T= 2.0021
 <Sx>= 0.0000 <Sy>= 0.0000 <Sz>= 2.5000 <S**2>= 8.7629 S= 2.5021
 <L.S>= 0.000000000000E+00
 Annihilation of the first spin contaminant:
 S**2 before annihilation     8.7629,   after     8.7501
 1\1\GINC-HOLY7C04209\SP\UPBE1PBE\Jul-CC-pVDZ\C8H16Cl3Fe1O1(6)\EKWAN\11
 -Feb-2020\0\\#t pop=none jul-cc-pvdz guess=read upbe1pbe empiricaldisp
 ersion=gd3bj\\theory_abbreviation pbe0_d3bj\\0,6\O,0,-0.285412,-0.2344
 64,-0.737732\C,0,-1.081961,-1.200878,-0.615198\C,0,-3.221102,0.021994,
 0.214654\C,0,-2.437721,1.031913,-0.221672\C,0,-2.49387,1.510317,-1.644
 786\Fe,0,1.473249,0.107741,0.054039\Cl,0,2.106283,1.979259,-0.862372\C
 ,0,-1.569784,1.861687,0.679377\Cl,0,2.542092,-1.695251,-0.590212\Cl,0,
 1.277465,0.190515,2.238338\H,0,-3.886624,-0.443257,-0.511944\H,0,-2.11
 7499,2.771814,0.961122\H,0,-1.276198,1.354539,1.598918\H,0,-0.664867,2
 .192605,0.160576\H,0,-2.783479,2.569028,-1.662428\H,0,-1.504167,1.4503
 71,-2.11304\H,0,-3.218354,0.955132,-2.247449\C,0,-3.447118,-0.386321,1
 .644338\H,0,-4.357176,0.092752,2.030796\H,0,-3.599785,-1.466815,1.7394
 45\H,0,-2.62554,-0.099604,2.305611\C,0,-1.016419,-2.090399,0.586059\H,
 0,-1.911829,-2.701865,0.698436\H,0,-0.15844,-2.75925,0.418155\H,0,-0.8
 11688,-1.525434,1.495954\C,0,-1.760926,-1.713323,-1.849302\H,0,-1.0583
 44,-2.434291,-2.293942\H,0,-2.689777,-2.239871,-1.626407\H,0,-1.923267
 ,-0.918223,-2.575599\\Version=ES64L-G16RevA.03\HF=-3033.1641635\S2=8.7
 62865\S2-1=0.\S2A=8.750051\RMSD=5.695e-09\PG=C01 [X(C8H16Cl3Fe1O1)]\\@


            THE IRISH PIG
 'TWAS AN EVENING IN NOVEMBER,
 AS I VERY WELL REMEMBER
 I WAS STROLLING DOWN THE STREET IN DRUNKEN PRIDE,
 BUT MY KNEES WERE ALL A'FLUTTER
 SO I LANDED IN THE GUTTER,
 AND A PIG CAME UP AND LAY DOWN BY MY SIDE.

 YES, I LAY THERE IN THE GUTTER
 THINKING THOUGHTS I COULD NOT UTTER
 WHEN A COLLEEN PASSING BY DID SOFTLY SAY,
 'YE CAN TELL A MAN THAT BOOZES
 BY THE COMPANY THAT HE CHOOSES.' -
 AT THAT, THE PIG GOT UP AND WALKED AWAY!
     -- THE ECONOMIST, AUGUST 23, 1986
 Job cpu time:       0 days  0 hours  4 minutes 35.6 seconds.
 Elapsed time:       0 days  0 hours  1 minutes  9.4 seconds.
 File lengths (MBytes):  RWF=    170 Int=      0 D2E=      0 Chk=     13 Scr=      1
 Normal termination of Gaussian 16 at Tue Feb 11 13:59:02 2020.
 Initial command:
 /n/sw/g16_nehalem/g16/l1.exe "/scratch/Gau-85683.inp" -scrdir="/scratch/"
 Entering Link 1 = /n/sw/g16_nehalem/g16/l1.exe PID=     87361.
  
 Copyright (c) 1988,1990,1992,1993,1995,1998,2003,2009,2016,
            Gaussian, Inc.  All Rights Reserved.
  
 This is part of the Gaussian(R) 16 program.  It is based on
 the Gaussian(R) 09 system (copyright 2009, Gaussian, Inc.),
 the Gaussian(R) 03 system (copyright 2003, Gaussian, Inc.),
 the Gaussian(R) 98 system (copyright 1998, Gaussian, Inc.),
 the Gaussian(R) 94 system (copyright 1995, Gaussian, Inc.),
 the Gaussian 92(TM) system (copyright 1992, Gaussian, Inc.),
 the Gaussian 90(TM) system (copyright 1990, Gaussian, Inc.),
 the Gaussian 88(TM) system (copyright 1988, Gaussian, Inc.),
 the Gaussian 86(TM) system (copyright 1986, Carnegie Mellon
 University), and the Gaussian 82(TM) system (copyright 1983,
 Carnegie Mellon University). Gaussian is a federally registered
 trademark of Gaussian, Inc.
  
 This software contains proprietary and confidential information,
 including trade secrets, belonging to Gaussian, Inc.
  
 This software is provided under written license and may be
 used, copied, transmitted, or stored only in accord with that
 written license.
  
 The following legend is applicable only to US Government
 contracts under FAR:
  
                    RESTRICTED RIGHTS LEGEND
  
 Use, reproduction and disclosure by the US Government is
 subject to restrictions as set forth in subparagraphs (a)
 and (c) of the Commercial Computer Software - Restricted
 Rights clause in FAR 52.227-19.
  
 Gaussian, Inc.
 340 Quinnipiac St., Bldg. 40, Wallingford CT 06492
  
  
 ---------------------------------------------------------------
 Warning -- This program may not be used in any manner that
 competes with the business of Gaussian, Inc. or will provide
 assistance to any competitor of Gaussian, Inc.  The licensee
 of this program is prohibited from giving any competitor of
 Gaussian, Inc. access to this program.  By using this program,
 the user acknowledges that Gaussian, Inc. is engaged in the
 business of creating and licensing software in the field of
 computational chemistry and represents and warrants to the
 licensee that it is not a competitor of Gaussian, Inc. and that
 it will not use this program in any manner prohibited above.
 ---------------------------------------------------------------
  

 Cite this work as:
 Gaussian 16, Revision A.03,
 M. J. Frisch, G. W. Trucks, H. B. Schlegel, G. E. Scuseria, 
 M. A. Robb, J. R. Cheeseman, G. Scalmani, V. Barone, 
 G. A. Petersson, H. Nakatsuji, X. Li, M. Caricato, A. V. Marenich, 
 J. Bloino, B. G. Janesko, R. Gomperts, B. Mennucci, H. P. Hratchian, 
 J. V. Ortiz, A. F. Izmaylov, J. L. Sonnenberg, D. Williams-Young, 
 F. Ding, F. Lipparini, F. Egidi, J. Goings, B. Peng, A. Petrone, 
 T. Henderson, D. Ranasinghe, V. G. Zakrzewski, J. Gao, N. Rega, 
 G. Zheng, W. Liang, M. Hada, M. Ehara, K. Toyota, R. Fukuda, 
 J. Hasegawa, M. Ishida, T. Nakajima, Y. Honda, O. Kitao, H. Nakai, 
 T. Vreven, K. Throssell, J. A. Montgomery, Jr., J. E. Peralta, 
 F. Ogliaro, M. J. Bearpark, J. J. Heyd, E. N. Brothers, K. N. Kudin, 
 V. N. Staroverov, T. A. Keith, R. Kobayashi, J. Normand, 
 K. Raghavachari, A. P. Rendell, J. C. Burant, S. S. Iyengar, 
 J. Tomasi, M. Cossi, J. M. Millam, M. Klene, C. Adamo, R. Cammi, 
 J. W. Ochterski, R. L. Martin, K. Morokuma, O. Farkas, 
 J. B. Foresman, and D. J. Fox, Gaussian, Inc., Wallingford CT, 2016.
 
 ******************************************
 Gaussian 16:  ES64L-G16RevA.03 25-Dec-2016
                11-Feb-2020 
 ******************************************
 %chk=checkpoint.chk
 %mem=3GB
 %nprocshared=4
 Will use up to    4 processors via shared memory.
 -----------------------------------------
 #t pop=none jul-cc-pvdz guess=read ub3lyp
 -----------------------------------------
 -------------------------
 theory_abbreviation b3lyp
 -------------------------
 Symbolic Z-matrix:
 Charge =  0 Multiplicity = 6
 O                    -0.28541  -0.23446  -0.73773 
 C                    -1.08196  -1.20088  -0.6152 
 C                    -3.2211    0.02199   0.21465 
 C                    -2.43772   1.03191  -0.22167 
 C                    -2.49387   1.51032  -1.64479 
 Fe                    1.47325   0.10774   0.05404 
 Cl                    2.10628   1.97926  -0.86237 
 C                    -1.56978   1.86169   0.67938 
 Cl                    2.54209  -1.69525  -0.59021 
 Cl                    1.27747   0.19052   2.23834 
 H                    -3.88662  -0.44326  -0.51194 
 H                    -2.1175    2.77181   0.96112 
 H                    -1.2762    1.35454   1.59892 
 H                    -0.66487   2.1926    0.16058 
 H                    -2.78348   2.56903  -1.66243 
 H                    -1.50417   1.45037  -2.11304 
 H                    -3.21835   0.95513  -2.24745 
 C                    -3.44712  -0.38632   1.64434 
 H                    -4.35718   0.09275   2.0308 
 H                    -3.59979  -1.46682   1.73945 
 H                    -2.62554  -0.0996    2.30561 
 C                    -1.01642  -2.0904    0.58606 
 H                    -1.91183  -2.70187   0.69844 
 H                    -0.15844  -2.75925   0.41816 
 H                    -0.81169  -1.52543   1.49595 
 C                    -1.76093  -1.71332  -1.8493 
 H                    -1.05834  -2.43429  -2.29394 
 H                    -2.68978  -2.23987  -1.62641 
 H                    -1.92327  -0.91822  -2.5756 
 
                    Distance matrix (angstroms):
                    1          2          3          4          5
     1  O    0.000000
     2  C    1.258356   0.000000
     3  C    3.096948   2.599999   0.000000
     4  C    2.549993   2.641648   1.350556   0.000000
     5  C    2.957075   3.225541   2.490279   1.502424   0.000000
     6  Fe   1.958799   2.947789   4.697880   4.028126   4.537759
     7  Cl   3.261336   4.509908   5.776842   4.685716   4.689721
     8  C    2.837544   3.360536   2.515410   1.501242   2.525694
     9  Cl   3.185975   3.657703   6.067219   5.689621   6.062071
    10  Cl   3.388242   3.955443   4.935666   4.534557   5.571669
    11  H    3.614319   2.907023   1.089643   2.087990   2.653214
    12  H    3.909009   4.397659   3.055596   2.128098   2.919552
    13  H    2.994415   3.386767   2.733956   2.183523   3.468228
    14  H    2.615647   3.505926   3.353925   2.153214   2.658966
    15  H    3.867165   4.266620   3.194109   2.134959   1.097749
    16  H    2.493091   3.074233   3.225878   2.150326   1.096525
    17  H    3.506641   3.446273   2.633003   2.172339   1.093760
    18  C    3.961528   3.370901   1.503928   2.551914   3.914621
    19  H    4.934681   4.404747   2.143372   3.104826   4.357901
    20  H    4.317426   3.457529   2.164472   3.382309   4.641054
    21  H    3.841396   3.482322   2.177517   2.775386   4.267882
    22  C    2.394011   1.496182   3.075837   3.524395   4.486055
    23  H    3.285708   2.160388   3.060661   3.881270   4.855094
    24  H    2.779702   2.085481   4.142056   4.469610   5.285751
    25  H    2.633044   2.152986   3.137123   3.483424   4.680787
    26  C    2.366380   1.498868   3.066489   3.262446   3.312233
    27  H    2.803293   2.083278   4.123580   4.267500   4.247596
    28  H    3.254592   2.164976   2.964430   3.569507   3.755347
    29  H    2.554966   2.151944   3.217747   3.099785   2.662669
                    6          7          8          9         10
     6  Fe   0.000000
     7  Cl   2.177871   0.000000
     8  C    3.567552   3.988017   0.000000
     9  Cl   2.192776   3.710259   5.583116   0.000000
    10  Cl   2.194617   3.674363   3.651028   3.627132   0.000000
    11  H    5.417765   6.473509   3.478471   6.549962   5.885026
    12  H    4.562188   4.668362   1.098955   6.638757   4.451984
    13  H    3.391256   4.229586   1.090389   5.354703   2.878368
    14  H    2.988235   2.961623   1.094320   5.095458   3.478234
    15  H    5.208064   4.989758   2.730831   6.906188   6.112656
    16  H    3.919680   3.857362   2.823310   5.346602   5.315939
    17  H    5.293964   5.596341   3.479358   6.553907   6.396821
    18  C    5.194532   6.536041   3.083678   6.525117   4.796588
    19  H    6.156431   7.328413   3.567214   7.593849   5.639309
    20  H    5.572746   7.155703   4.040244   6.572833   5.175249
    21  H    4.681094   6.062008   2.757883   6.134843   3.914351
    22  C    3.363527   5.330229   3.991730   3.768654   3.632423
    23  H    4.446109   6.363511   4.576392   4.744607   4.572609
    24  H    3.318829   5.405755   4.838718   3.072746   3.751800
    25  H    3.157106   5.134114   3.565683   3.953323   2.803600
    26  C    4.171195   5.437325   4.383087   4.483481   5.437391
    27  H    4.287646   5.616376   5.249536   4.051175   5.734734
    28  H    5.066159   6.433273   4.836714   5.361228   6.048309
    29  H    4.416324   5.250507   4.295081   4.948228   5.886253
                   11         12         13         14         15
    11  H    0.000000
    12  H    3.954290   0.000000
    13  H    3.808167   1.767269   0.000000
    14  H    4.216606   1.756843   1.773389   0.000000
    15  H    3.407991   2.714345   3.792527   2.820205   0.000000
    16  H    3.438813   3.401891   3.720186   2.534692   1.758148
    17  H    2.326812   3.848005   4.327359   3.721588   1.770883
    18  C    2.201354   3.494065   2.783083   4.073491   4.484329
    19  H    2.640881   3.652086   3.357239   4.641148   4.716818
    20  H    2.489719   4.557295   3.657710   4.949538   5.341079
    21  H    3.105969   3.211043   2.105866   3.701302   4.784545
    22  C    3.486655   4.999416   3.600134   4.318420   5.467033
    23  H    3.235142   5.483837   4.203488   5.079374   5.840870
    24  H    4.486453   5.892826   4.423443   4.984344   6.293664
    25  H    3.828576   4.523000   2.919009   3.953303   5.534253
    26  C    2.814283   5.304911   4.640793   4.527386   4.406707
    27  H    3.890874   6.230632   5.436640   5.252395   5.329925
    28  H    2.429463   5.669197   5.031969   5.190415   4.809947
    29  H    2.887739   5.114929   4.796951   4.329835   3.706044
                   16         17         18         19         20
    16  H    0.000000
    17  H    1.789348   0.000000
    18  C    4.611549   4.122843   0.000000
    19  H    5.210966   4.510432   1.098666   0.000000
    20  H    5.267184   4.680453   1.095363   1.758060   0.000000
    21  H    4.815016   4.711078   1.092922   1.763827   1.771712
    22  C    4.478849   4.706649   3.151529   4.244299   2.897056
    23  H    5.031068   4.874307   2.934891   3.945224   2.336288
    24  H    5.093019   5.501377   4.236711   5.325778   3.906284
    25  H    4.728613   5.094930   2.874907   3.933836   2.799323
    26  C    3.185034   3.066475   4.099963   5.005755   4.039960
    27  H    3.914343   4.019452   5.040880   5.997633   4.864478
    28  H    3.906452   3.297443   3.834969   4.647202   3.571371
    29  H    2.449458   2.300955   4.518065   5.307057   4.661681
                   21         22         23         24         25
    21  H    0.000000
    22  C    3.083731   0.000000
    23  H    3.140726   1.090082   0.000000
    24  H    4.089351   1.100764   1.776576   0.000000
    25  H    2.445117   1.090417   1.797313   1.763714   0.000000
    26  C    4.540369   2.574385   2.736961   2.967033   3.482398
    27  H    5.390988   2.900763   3.123197   2.875916   3.905147
    28  H    4.477235   2.778034   2.494702   3.295096   3.713055
    29  H    4.998953   3.491769   3.728380   3.932754   4.264019
                   26         27         28         29
    26  C    0.000000
    27  H    1.100509   0.000000
    28  H    1.090733   1.773408   0.000000
    29  H    1.089057   1.768017   1.798682   0.000000
 Framework group  C1[X(C8H16Cl3FeO)]
 Deg. of freedom    81
                         Standard orientation:                         
 ---------------------------------------------------------------------
 Center     Atomic      Atomic             Coordinates (Angstroms)
 Number     Number       Type             X           Y           Z
 ---------------------------------------------------------------------
      1          8           0       -0.285412   -0.234464   -0.737732
      2          6           0       -1.081961   -1.200878   -0.615198
      3          6           0       -3.221102    0.021994    0.214654
      4          6           0       -2.437721    1.031913   -0.221672
      5          6           0       -2.493870    1.510317   -1.644786
      6         26           0        1.473249    0.107741    0.054039
      7         17           0        2.106283    1.979259   -0.862372
      8          6           0       -1.569784    1.861687    0.679377
      9         17           0        2.542092   -1.695251   -0.590212
     10         17           0        1.277465    0.190515    2.238338
     11          1           0       -3.886624   -0.443257   -0.511944
     12          1           0       -2.117499    2.771814    0.961122
     13          1           0       -1.276198    1.354539    1.598918
     14          1           0       -0.664867    2.192605    0.160576
     15          1           0       -2.783479    2.569028   -1.662428
     16          1           0       -1.504167    1.450371   -2.113040
     17          1           0       -3.218354    0.955132   -2.247449
     18          6           0       -3.447118   -0.386321    1.644338
     19          1           0       -4.357176    0.092752    2.030796
     20          1           0       -3.599785   -1.466815    1.739445
     21          1           0       -2.625540   -0.099604    2.305611
     22          6           0       -1.016419   -2.090399    0.586059
     23          1           0       -1.911829   -2.701865    0.698436
     24          1           0       -0.158440   -2.759250    0.418155
     25          1           0       -0.811688   -1.525434    1.495954
     26          6           0       -1.760926   -1.713323   -1.849302
     27          1           0       -1.058344   -2.434291   -2.293942
     28          1           0       -2.689777   -2.239871   -1.626407
     29          1           0       -1.923267   -0.918223   -2.575599
 ---------------------------------------------------------------------
 Rotational constants (GHZ):           0.5780197           0.3265260           0.3077081
   427 basis functions,  1056 primitive gaussians,   461 cartesian basis functions
    77 alpha electrons       72 beta electrons
       nuclear repulsion energy      1633.3658626007 Hartrees.
 NAtoms=   29 NActive=   29 NUniq=   29 SFac= 1.00D+00 NAtFMM=   60 NAOKFM=F Big=F
 Initial guess from the checkpoint file:  "checkpoint.chk"
 B after Tr=     0.000000    0.000000    0.000000
         Rot=    1.000000    0.000000    0.000000    0.000000 Ang=   0.00 deg.
 Initial guess <Sx>= 0.0000 <Sy>= 0.0000 <Sz>= 2.5000 <S**2>= 8.7629 S= 2.5021
 SCF Done:  E(UB3LYP) =  -3034.34404966     A.U. after   13 cycles
            NFock= 13  Conv=0.80D-08     -V/T= 2.0024
 <Sx>= 0.0000 <Sy>= 0.0000 <Sz>= 2.5000 <S**2>= 8.7621 S= 2.5020
 <L.S>= 0.000000000000E+00
 Annihilation of the first spin contaminant:
 S**2 before annihilation     8.7621,   after     8.7500
 1\1\GINC-HOLY7C04209\SP\UB3LYP\Jul-CC-pVDZ\C8H16Cl3Fe1O1(6)\EKWAN\11-F
 eb-2020\0\\#t pop=none jul-cc-pvdz guess=read ub3lyp\\theory_abbreviat
 ion b3lyp\\0,6\O,0,-0.285412,-0.234464,-0.737732\C,0,-1.081961,-1.2008
 78,-0.615198\C,0,-3.221102,0.021994,0.214654\C,0,-2.437721,1.031913,-0
 .221672\C,0,-2.49387,1.510317,-1.644786\Fe,0,1.473249,0.107741,0.05403
 9\Cl,0,2.106283,1.979259,-0.862372\C,0,-1.569784,1.861687,0.679377\Cl,
 0,2.542092,-1.695251,-0.590212\Cl,0,1.277465,0.190515,2.238338\H,0,-3.
 886624,-0.443257,-0.511944\H,0,-2.117499,2.771814,0.961122\H,0,-1.2761
 98,1.354539,1.598918\H,0,-0.664867,2.192605,0.160576\H,0,-2.783479,2.5
 69028,-1.662428\H,0,-1.504167,1.450371,-2.11304\H,0,-3.218354,0.955132
 ,-2.247449\C,0,-3.447118,-0.386321,1.644338\H,0,-4.357176,0.092752,2.0
 30796\H,0,-3.599785,-1.466815,1.739445\H,0,-2.62554,-0.099604,2.305611
 \C,0,-1.016419,-2.090399,0.586059\H,0,-1.911829,-2.701865,0.698436\H,0
 ,-0.15844,-2.75925,0.418155\H,0,-0.811688,-1.525434,1.495954\C,0,-1.76
 0926,-1.713323,-1.849302\H,0,-1.058344,-2.434291,-2.293942\H,0,-2.6897
 77,-2.239871,-1.626407\H,0,-1.923267,-0.918223,-2.575599\\Version=ES64
 L-G16RevA.03\HF=-3034.3440497\S2=8.762138\S2-1=0.\S2A=8.750045\RMSD=7.
 966e-09\PG=C01 [X(C8H16Cl3Fe1O1)]\\@


 BOOKS ARE LIGHTHOUSES ERECTED IN THE GREAT SEA OF TIME.
     -- E.P.WHIPPLE
 Job cpu time:       0 days  0 hours 54 minutes 27.5 seconds.
 Elapsed time:       0 days  0 hours 13 minutes 39.2 seconds.
 File lengths (MBytes):  RWF=    174 Int=      0 D2E=      0 Chk=     13 Scr=      1
 Normal termination of Gaussian 16 at Tue Feb 11 14:12:42 2020.
 Initial command:
 /n/sw/g16_nehalem/g16/l1.exe "/scratch/Gau-85683.inp" -scrdir="/scratch/"
 Entering Link 1 = /n/sw/g16_nehalem/g16/l1.exe PID=     88713.
  
 Copyright (c) 1988,1990,1992,1993,1995,1998,2003,2009,2016,
            Gaussian, Inc.  All Rights Reserved.
  
 This is part of the Gaussian(R) 16 program.  It is based on
 the Gaussian(R) 09 system (copyright 2009, Gaussian, Inc.),
 the Gaussian(R) 03 system (copyright 2003, Gaussian, Inc.),
 the Gaussian(R) 98 system (copyright 1998, Gaussian, Inc.),
 the Gaussian(R) 94 system (copyright 1995, Gaussian, Inc.),
 the Gaussian 92(TM) system (copyright 1992, Gaussian, Inc.),
 the Gaussian 90(TM) system (copyright 1990, Gaussian, Inc.),
 the Gaussian 88(TM) system (copyright 1988, Gaussian, Inc.),
 the Gaussian 86(TM) system (copyright 1986, Carnegie Mellon
 University), and the Gaussian 82(TM) system (copyright 1983,
 Carnegie Mellon University). Gaussian is a federally registered
 trademark of Gaussian, Inc.
  
 This software contains proprietary and confidential information,
 including trade secrets, belonging to Gaussian, Inc.
  
 This software is provided under written license and may be
 used, copied, transmitted, or stored only in accord with that
 written license.
  
 The following legend is applicable only to US Government
 contracts under FAR:
  
                    RESTRICTED RIGHTS LEGEND
  
 Use, reproduction and disclosure by the US Government is
 subject to restrictions as set forth in subparagraphs (a)
 and (c) of the Commercial Computer Software - Restricted
 Rights clause in FAR 52.227-19.
  
 Gaussian, Inc.
 340 Quinnipiac St., Bldg. 40, Wallingford CT 06492
  
  
 ---------------------------------------------------------------
 Warning -- This program may not be used in any manner that
 competes with the business of Gaussian, Inc. or will provide
 assistance to any competitor of Gaussian, Inc.  The licensee
 of this program is prohibited from giving any competitor of
 Gaussian, Inc. access to this program.  By using this program,
 the user acknowledges that Gaussian, Inc. is engaged in the
 business of creating and licensing software in the field of
 computational chemistry and represents and warrants to the
 licensee that it is not a competitor of Gaussian, Inc. and that
 it will not use this program in any manner prohibited above.
 ---------------------------------------------------------------
  

 Cite this work as:
 Gaussian 16, Revision A.03,
 M. J. Frisch, G. W. Trucks, H. B. Schlegel, G. E. Scuseria, 
 M. A. Robb, J. R. Cheeseman, G. Scalmani, V. Barone, 
 G. A. Petersson, H. Nakatsuji, X. Li, M. Caricato, A. V. Marenich, 
 J. Bloino, B. G. Janesko, R. Gomperts, B. Mennucci, H. P. Hratchian, 
 J. V. Ortiz, A. F. Izmaylov, J. L. Sonnenberg, D. Williams-Young, 
 F. Ding, F. Lipparini, F. Egidi, J. Goings, B. Peng, A. Petrone, 
 T. Henderson, D. Ranasinghe, V. G. Zakrzewski, J. Gao, N. Rega, 
 G. Zheng, W. Liang, M. Hada, M. Ehara, K. Toyota, R. Fukuda, 
 J. Hasegawa, M. Ishida, T. Nakajima, Y. Honda, O. Kitao, H. Nakai, 
 T. Vreven, K. Throssell, J. A. Montgomery, Jr., J. E. Peralta, 
 F. Ogliaro, M. J. Bearpark, J. J. Heyd, E. N. Brothers, K. N. Kudin, 
 V. N. Staroverov, T. A. Keith, R. Kobayashi, J. Normand, 
 K. Raghavachari, A. P. Rendell, J. C. Burant, S. S. Iyengar, 
 J. Tomasi, M. Cossi, J. M. Millam, M. Klene, C. Adamo, R. Cammi, 
 J. W. Ochterski, R. L. Martin, K. Morokuma, O. Farkas, 
 J. B. Foresman, and D. J. Fox, Gaussian, Inc., Wallingford CT, 2016.
 
 ******************************************
 Gaussian 16:  ES64L-G16RevA.03 25-Dec-2016
                11-Feb-2020 
 ******************************************
 %chk=checkpoint.chk
 %mem=3GB
 %nprocshared=4
 Will use up to    4 processors via shared memory.
 -------------------------------------------------------------------
 #t pop=none jul-cc-pvdz guess=read ub3lyp empiricaldispersion=gd3bj
 -------------------------------------------------------------------
 ------------------------------
 theory_abbreviation b3lyp_d3bj
 ------------------------------
 Symbolic Z-matrix:
 Charge =  0 Multiplicity = 6
 O                    -0.28541  -0.23446  -0.73773 
 C                    -1.08196  -1.20088  -0.6152 
 C                    -3.2211    0.02199   0.21465 
 C                    -2.43772   1.03191  -0.22167 
 C                    -2.49387   1.51032  -1.64479 
 Fe                    1.47325   0.10774   0.05404 
 Cl                    2.10628   1.97926  -0.86237 
 C                    -1.56978   1.86169   0.67938 
 Cl                    2.54209  -1.69525  -0.59021 
 Cl                    1.27747   0.19052   2.23834 
 H                    -3.88662  -0.44326  -0.51194 
 H                    -2.1175    2.77181   0.96112 
 H                    -1.2762    1.35454   1.59892 
 H                    -0.66487   2.1926    0.16058 
 H                    -2.78348   2.56903  -1.66243 
 H                    -1.50417   1.45037  -2.11304 
 H                    -3.21835   0.95513  -2.24745 
 C                    -3.44712  -0.38632   1.64434 
 H                    -4.35718   0.09275   2.0308 
 H                    -3.59979  -1.46682   1.73945 
 H                    -2.62554  -0.0996    2.30561 
 C                    -1.01642  -2.0904    0.58606 
 H                    -1.91183  -2.70187   0.69844 
 H                    -0.15844  -2.75925   0.41816 
 H                    -0.81169  -1.52543   1.49595 
 C                    -1.76093  -1.71332  -1.8493 
 H                    -1.05834  -2.43429  -2.29394 
 H                    -2.68978  -2.23987  -1.62641 
 H                    -1.92327  -0.91822  -2.5756 
 
                    Distance matrix (angstroms):
                    1          2          3          4          5
     1  O    0.000000
     2  C    1.258356   0.000000
     3  C    3.096948   2.599999   0.000000
     4  C    2.549993   2.641648   1.350556   0.000000
     5  C    2.957075   3.225541   2.490279   1.502424   0.000000
     6  Fe   1.958799   2.947789   4.697880   4.028126   4.537759
     7  Cl   3.261336   4.509908   5.776842   4.685716   4.689721
     8  C    2.837544   3.360536   2.515410   1.501242   2.525694
     9  Cl   3.185975   3.657703   6.067219   5.689621   6.062071
    10  Cl   3.388242   3.955443   4.935666   4.534557   5.571669
    11  H    3.614319   2.907023   1.089643   2.087990   2.653214
    12  H    3.909009   4.397659   3.055596   2.128098   2.919552
    13  H    2.994415   3.386767   2.733956   2.183523   3.468228
    14  H    2.615647   3.505926   3.353925   2.153214   2.658966
    15  H    3.867165   4.266620   3.194109   2.134959   1.097749
    16  H    2.493091   3.074233   3.225878   2.150326   1.096525
    17  H    3.506641   3.446273   2.633003   2.172339   1.093760
    18  C    3.961528   3.370901   1.503928   2.551914   3.914621
    19  H    4.934681   4.404747   2.143372   3.104826   4.357901
    20  H    4.317426   3.457529   2.164472   3.382309   4.641054
    21  H    3.841396   3.482322   2.177517   2.775386   4.267882
    22  C    2.394011   1.496182   3.075837   3.524395   4.486055
    23  H    3.285708   2.160388   3.060661   3.881270   4.855094
    24  H    2.779702   2.085481   4.142056   4.469610   5.285751
    25  H    2.633044   2.152986   3.137123   3.483424   4.680787
    26  C    2.366380   1.498868   3.066489   3.262446   3.312233
    27  H    2.803293   2.083278   4.123580   4.267500   4.247596
    28  H    3.254592   2.164976   2.964430   3.569507   3.755347
    29  H    2.554966   2.151944   3.217747   3.099785   2.662669
                    6          7          8          9         10
     6  Fe   0.000000
     7  Cl   2.177871   0.000000
     8  C    3.567552   3.988017   0.000000
     9  Cl   2.192776   3.710259   5.583116   0.000000
    10  Cl   2.194617   3.674363   3.651028   3.627132   0.000000
    11  H    5.417765   6.473509   3.478471   6.549962   5.885026
    12  H    4.562188   4.668362   1.098955   6.638757   4.451984
    13  H    3.391256   4.229586   1.090389   5.354703   2.878368
    14  H    2.988235   2.961623   1.094320   5.095458   3.478234
    15  H    5.208064   4.989758   2.730831   6.906188   6.112656
    16  H    3.919680   3.857362   2.823310   5.346602   5.315939
    17  H    5.293964   5.596341   3.479358   6.553907   6.396821
    18  C    5.194532   6.536041   3.083678   6.525117   4.796588
    19  H    6.156431   7.328413   3.567214   7.593849   5.639309
    20  H    5.572746   7.155703   4.040244   6.572833   5.175249
    21  H    4.681094   6.062008   2.757883   6.134843   3.914351
    22  C    3.363527   5.330229   3.991730   3.768654   3.632423
    23  H    4.446109   6.363511   4.576392   4.744607   4.572609
    24  H    3.318829   5.405755   4.838718   3.072746   3.751800
    25  H    3.157106   5.134114   3.565683   3.953323   2.803600
    26  C    4.171195   5.437325   4.383087   4.483481   5.437391
    27  H    4.287646   5.616376   5.249536   4.051175   5.734734
    28  H    5.066159   6.433273   4.836714   5.361228   6.048309
    29  H    4.416324   5.250507   4.295081   4.948228   5.886253
                   11         12         13         14         15
    11  H    0.000000
    12  H    3.954290   0.000000
    13  H    3.808167   1.767269   0.000000
    14  H    4.216606   1.756843   1.773389   0.000000
    15  H    3.407991   2.714345   3.792527   2.820205   0.000000
    16  H    3.438813   3.401891   3.720186   2.534692   1.758148
    17  H    2.326812   3.848005   4.327359   3.721588   1.770883
    18  C    2.201354   3.494065   2.783083   4.073491   4.484329
    19  H    2.640881   3.652086   3.357239   4.641148   4.716818
    20  H    2.489719   4.557295   3.657710   4.949538   5.341079
    21  H    3.105969   3.211043   2.105866   3.701302   4.784545
    22  C    3.486655   4.999416   3.600134   4.318420   5.467033
    23  H    3.235142   5.483837   4.203488   5.079374   5.840870
    24  H    4.486453   5.892826   4.423443   4.984344   6.293664
    25  H    3.828576   4.523000   2.919009   3.953303   5.534253
    26  C    2.814283   5.304911   4.640793   4.527386   4.406707
    27  H    3.890874   6.230632   5.436640   5.252395   5.329925
    28  H    2.429463   5.669197   5.031969   5.190415   4.809947
    29  H    2.887739   5.114929   4.796951   4.329835   3.706044
                   16         17         18         19         20
    16  H    0.000000
    17  H    1.789348   0.000000
    18  C    4.611549   4.122843   0.000000
    19  H    5.210966   4.510432   1.098666   0.000000
    20  H    5.267184   4.680453   1.095363   1.758060   0.000000
    21  H    4.815016   4.711078   1.092922   1.763827   1.771712
    22  C    4.478849   4.706649   3.151529   4.244299   2.897056
    23  H    5.031068   4.874307   2.934891   3.945224   2.336288
    24  H    5.093019   5.501377   4.236711   5.325778   3.906284
    25  H    4.728613   5.094930   2.874907   3.933836   2.799323
    26  C    3.185034   3.066475   4.099963   5.005755   4.039960
    27  H    3.914343   4.019452   5.040880   5.997633   4.864478
    28  H    3.906452   3.297443   3.834969   4.647202   3.571371
    29  H    2.449458   2.300955   4.518065   5.307057   4.661681
                   21         22         23         24         25
    21  H    0.000000
    22  C    3.083731   0.000000
    23  H    3.140726   1.090082   0.000000
    24  H    4.089351   1.100764   1.776576   0.000000
    25  H    2.445117   1.090417   1.797313   1.763714   0.000000
    26  C    4.540369   2.574385   2.736961   2.967033   3.482398
    27  H    5.390988   2.900763   3.123197   2.875916   3.905147
    28  H    4.477235   2.778034   2.494702   3.295096   3.713055
    29  H    4.998953   3.491769   3.728380   3.932754   4.264019
                   26         27         28         29
    26  C    0.000000
    27  H    1.100509   0.000000
    28  H    1.090733   1.773408   0.000000
    29  H    1.089057   1.768017   1.798682   0.000000
 Framework group  C1[X(C8H16Cl3FeO)]
 Deg. of freedom    81
                         Standard orientation:                         
 ---------------------------------------------------------------------
 Center     Atomic      Atomic             Coordinates (Angstroms)
 Number     Number       Type             X           Y           Z
 ---------------------------------------------------------------------
      1          8           0       -0.285412   -0.234464   -0.737732
      2          6           0       -1.081961   -1.200878   -0.615198
      3          6           0       -3.221102    0.021994    0.214654
      4          6           0       -2.437721    1.031913   -0.221672
      5          6           0       -2.493870    1.510317   -1.644786
      6         26           0        1.473249    0.107741    0.054039
      7         17           0        2.106283    1.979259   -0.862372
      8          6           0       -1.569784    1.861687    0.679377
      9         17           0        2.542092   -1.695251   -0.590212
     10         17           0        1.277465    0.190515    2.238338
     11          1           0       -3.886624   -0.443257   -0.511944
     12          1           0       -2.117499    2.771814    0.961122
     13          1           0       -1.276198    1.354539    1.598918
     14          1           0       -0.664867    2.192605    0.160576
     15          1           0       -2.783479    2.569028   -1.662428
     16          1           0       -1.504167    1.450371   -2.113040
     17          1           0       -3.218354    0.955132   -2.247449
     18          6           0       -3.447118   -0.386321    1.644338
     19          1           0       -4.357176    0.092752    2.030796
     20          1           0       -3.599785   -1.466815    1.739445
     21          1           0       -2.625540   -0.099604    2.305611
     22          6           0       -1.016419   -2.090399    0.586059
     23          1           0       -1.911829   -2.701865    0.698436
     24          1           0       -0.158440   -2.759250    0.418155
     25          1           0       -0.811688   -1.525434    1.495954
     26          6           0       -1.760926   -1.713323   -1.849302
     27          1           0       -1.058344   -2.434291   -2.293942
     28          1           0       -2.689777   -2.239871   -1.626407
     29          1           0       -1.923267   -0.918223   -2.575599
 ---------------------------------------------------------------------
 Rotational constants (GHZ):           0.5780197           0.3265260           0.3077081
   427 basis functions,  1056 primitive gaussians,   461 cartesian basis functions
    77 alpha electrons       72 beta electrons
       nuclear repulsion energy      1633.3658626007 Hartrees.
 NAtoms=   29 NActive=   29 NUniq=   29 SFac= 1.00D+00 NAtFMM=   60 NAOKFM=F Big=F
 Nuclear repulsion after empirical dispersion term =     1633.2969166849 Hartrees.
 Initial guess from the checkpoint file:  "checkpoint.chk"
 B after Tr=     0.000000    0.000000    0.000000
         Rot=    1.000000    0.000000    0.000000    0.000000 Ang=   0.00 deg.
 Initial guess <Sx>= 0.0000 <Sy>= 0.0000 <Sz>= 2.5000 <S**2>= 8.7621 S= 2.5020
 SCF Done:  E(UB3LYP) =  -3034.41299558     A.U. after    1 cycles
            NFock=  1  Conv=0.57D-08     -V/T= 2.0024
 <Sx>= 0.0000 <Sy>= 0.0000 <Sz>= 2.5000 <S**2>= 8.7621 S= 2.5020
 <L.S>= 0.000000000000E+00
 Annihilation of the first spin contaminant:
 S**2 before annihilation     8.7621,   after     8.7500
 1\1\GINC-HOLY7C04209\SP\UB3LYP\Jul-CC-pVDZ\C8H16Cl3Fe1O1(6)\EKWAN\11-F
 eb-2020\0\\#t pop=none jul-cc-pvdz guess=read ub3lyp empiricaldispersi
 on=gd3bj\\theory_abbreviation b3lyp_d3bj\\0,6\O,0,-0.285412,-0.234464,
 -0.737732\C,0,-1.081961,-1.200878,-0.615198\C,0,-3.221102,0.021994,0.2
 14654\C,0,-2.437721,1.031913,-0.221672\C,0,-2.49387,1.510317,-1.644786
 \Fe,0,1.473249,0.107741,0.054039\Cl,0,2.106283,1.979259,-0.862372\C,0,
 -1.569784,1.861687,0.679377\Cl,0,2.542092,-1.695251,-0.590212\Cl,0,1.2
 77465,0.190515,2.238338\H,0,-3.886624,-0.443257,-0.511944\H,0,-2.11749
 9,2.771814,0.961122\H,0,-1.276198,1.354539,1.598918\H,0,-0.664867,2.19
 2605,0.160576\H,0,-2.783479,2.569028,-1.662428\H,0,-1.504167,1.450371,
 -2.11304\H,0,-3.218354,0.955132,-2.247449\C,0,-3.447118,-0.386321,1.64
 4338\H,0,-4.357176,0.092752,2.030796\H,0,-3.599785,-1.466815,1.739445\
 H,0,-2.62554,-0.099604,2.305611\C,0,-1.016419,-2.090399,0.586059\H,0,-
 1.911829,-2.701865,0.698436\H,0,-0.15844,-2.75925,0.418155\H,0,-0.8116
 88,-1.525434,1.495954\C,0,-1.760926,-1.713323,-1.849302\H,0,-1.058344,
 -2.434291,-2.293942\H,0,-2.689777,-2.239871,-1.626407\H,0,-1.923267,-0
 .918223,-2.575599\\Version=ES64L-G16RevA.03\HF=-3034.4129956\S2=8.7621
 38\S2-1=0.\S2A=8.750045\RMSD=5.740e-09\PG=C01 [X(C8H16Cl3Fe1O1)]\\@


 I DON'T EXACTLY UNDERSTAND WHAT YOU ARE SAYING,
 BUT YOU ARE ABSOLUTELY RIGHT.
     M.S.GORDON, IN A NDSU FACULTY MEETING
 Job cpu time:       0 days  0 hours  4 minutes 35.9 seconds.
 Elapsed time:       0 days  0 hours  1 minutes  9.5 seconds.
 File lengths (MBytes):  RWF=    170 Int=      0 D2E=      0 Chk=     13 Scr=      1
 Normal termination of Gaussian 16 at Tue Feb 11 14:13:52 2020.
 Initial command:
 /n/sw/g16_nehalem/g16/l1.exe "/scratch/Gau-85683.inp" -scrdir="/scratch/"
 Entering Link 1 = /n/sw/g16_nehalem/g16/l1.exe PID=     88886.
  
 Copyright (c) 1988,1990,1992,1993,1995,1998,2003,2009,2016,
            Gaussian, Inc.  All Rights Reserved.
  
 This is part of the Gaussian(R) 16 program.  It is based on
 the Gaussian(R) 09 system (copyright 2009, Gaussian, Inc.),
 the Gaussian(R) 03 system (copyright 2003, Gaussian, Inc.),
 the Gaussian(R) 98 system (copyright 1998, Gaussian, Inc.),
 the Gaussian(R) 94 system (copyright 1995, Gaussian, Inc.),
 the Gaussian 92(TM) system (copyright 1992, Gaussian, Inc.),
 the Gaussian 90(TM) system (copyright 1990, Gaussian, Inc.),
 the Gaussian 88(TM) system (copyright 1988, Gaussian, Inc.),
 the Gaussian 86(TM) system (copyright 1986, Carnegie Mellon
 University), and the Gaussian 82(TM) system (copyright 1983,
 Carnegie Mellon University). Gaussian is a federally registered
 trademark of Gaussian, Inc.
  
 This software contains proprietary and confidential information,
 including trade secrets, belonging to Gaussian, Inc.
  
 This software is provided under written license and may be
 used, copied, transmitted, or stored only in accord with that
 written license.
  
 The following legend is applicable only to US Government
 contracts under FAR:
  
                    RESTRICTED RIGHTS LEGEND
  
 Use, reproduction and disclosure by the US Government is
 subject to restrictions as set forth in subparagraphs (a)
 and (c) of the Commercial Computer Software - Restricted
 Rights clause in FAR 52.227-19.
  
 Gaussian, Inc.
 340 Quinnipiac St., Bldg. 40, Wallingford CT 06492
  
  
 ---------------------------------------------------------------
 Warning -- This program may not be used in any manner that
 competes with the business of Gaussian, Inc. or will provide
 assistance to any competitor of Gaussian, Inc.  The licensee
 of this program is prohibited from giving any competitor of
 Gaussian, Inc. access to this program.  By using this program,
 the user acknowledges that Gaussian, Inc. is engaged in the
 business of creating and licensing software in the field of
 computational chemistry and represents and warrants to the
 licensee that it is not a competitor of Gaussian, Inc. and that
 it will not use this program in any manner prohibited above.
 ---------------------------------------------------------------
  

 Cite this work as:
 Gaussian 16, Revision A.03,
 M. J. Frisch, G. W. Trucks, H. B. Schlegel, G. E. Scuseria, 
 M. A. Robb, J. R. Cheeseman, G. Scalmani, V. Barone, 
 G. A. Petersson, H. Nakatsuji, X. Li, M. Caricato, A. V. Marenich, 
 J. Bloino, B. G. Janesko, R. Gomperts, B. Mennucci, H. P. Hratchian, 
 J. V. Ortiz, A. F. Izmaylov, J. L. Sonnenberg, D. Williams-Young, 
 F. Ding, F. Lipparini, F. Egidi, J. Goings, B. Peng, A. Petrone, 
 T. Henderson, D. Ranasinghe, V. G. Zakrzewski, J. Gao, N. Rega, 
 G. Zheng, W. Liang, M. Hada, M. Ehara, K. Toyota, R. Fukuda, 
 J. Hasegawa, M. Ishida, T. Nakajima, Y. Honda, O. Kitao, H. Nakai, 
 T. Vreven, K. Throssell, J. A. Montgomery, Jr., J. E. Peralta, 
 F. Ogliaro, M. J. Bearpark, J. J. Heyd, E. N. Brothers, K. N. Kudin, 
 V. N. Staroverov, T. A. Keith, R. Kobayashi, J. Normand, 
 K. Raghavachari, A. P. Rendell, J. C. Burant, S. S. Iyengar, 
 J. Tomasi, M. Cossi, J. M. Millam, M. Klene, C. Adamo, R. Cammi, 
 J. W. Ochterski, R. L. Martin, K. Morokuma, O. Farkas, 
 J. B. Foresman, and D. J. Fox, Gaussian, Inc., Wallingford CT, 2016.
 
 ******************************************
 Gaussian 16:  ES64L-G16RevA.03 25-Dec-2016
                11-Feb-2020 
 ******************************************
 %chk=checkpoint.chk
 %mem=3GB
 %nprocshared=4
 Will use up to    4 processors via shared memory.
 ----------------------------------------
 #t pop=none jul-cc-pvdz guess=read ub97d
 ----------------------------------------
 ------------------------
 theory_abbreviation b97d
 ------------------------
 Symbolic Z-matrix:
 Charge =  0 Multiplicity = 6
 O                    -0.28541  -0.23446  -0.73773 
 C                    -1.08196  -1.20088  -0.6152 
 C                    -3.2211    0.02199   0.21465 
 C                    -2.43772   1.03191  -0.22167 
 C                    -2.49387   1.51032  -1.64479 
 Fe                    1.47325   0.10774   0.05404 
 Cl                    2.10628   1.97926  -0.86237 
 C                    -1.56978   1.86169   0.67938 
 Cl                    2.54209  -1.69525  -0.59021 
 Cl                    1.27747   0.19052   2.23834 
 H                    -3.88662  -0.44326  -0.51194 
 H                    -2.1175    2.77181   0.96112 
 H                    -1.2762    1.35454   1.59892 
 H                    -0.66487   2.1926    0.16058 
 H                    -2.78348   2.56903  -1.66243 
 H                    -1.50417   1.45037  -2.11304 
 H                    -3.21835   0.95513  -2.24745 
 C                    -3.44712  -0.38632   1.64434 
 H                    -4.35718   0.09275   2.0308 
 H                    -3.59979  -1.46682   1.73945 
 H                    -2.62554  -0.0996    2.30561 
 C                    -1.01642  -2.0904    0.58606 
 H                    -1.91183  -2.70187   0.69844 
 H                    -0.15844  -2.75925   0.41816 
 H                    -0.81169  -1.52543   1.49595 
 C                    -1.76093  -1.71332  -1.8493 
 H                    -1.05834  -2.43429  -2.29394 
 H                    -2.68978  -2.23987  -1.62641 
 H                    -1.92327  -0.91822  -2.5756 
 
                    Distance matrix (angstroms):
                    1          2          3          4          5
     1  O    0.000000
     2  C    1.258356   0.000000
     3  C    3.096948   2.599999   0.000000
     4  C    2.549993   2.641648   1.350556   0.000000
     5  C    2.957075   3.225541   2.490279   1.502424   0.000000
     6  Fe   1.958799   2.947789   4.697880   4.028126   4.537759
     7  Cl   3.261336   4.509908   5.776842   4.685716   4.689721
     8  C    2.837544   3.360536   2.515410   1.501242   2.525694
     9  Cl   3.185975   3.657703   6.067219   5.689621   6.062071
    10  Cl   3.388242   3.955443   4.935666   4.534557   5.571669
    11  H    3.614319   2.907023   1.089643   2.087990   2.653214
    12  H    3.909009   4.397659   3.055596   2.128098   2.919552
    13  H    2.994415   3.386767   2.733956   2.183523   3.468228
    14  H    2.615647   3.505926   3.353925   2.153214   2.658966
    15  H    3.867165   4.266620   3.194109   2.134959   1.097749
    16  H    2.493091   3.074233   3.225878   2.150326   1.096525
    17  H    3.506641   3.446273   2.633003   2.172339   1.093760
    18  C    3.961528   3.370901   1.503928   2.551914   3.914621
    19  H    4.934681   4.404747   2.143372   3.104826   4.357901
    20  H    4.317426   3.457529   2.164472   3.382309   4.641054
    21  H    3.841396   3.482322   2.177517   2.775386   4.267882
    22  C    2.394011   1.496182   3.075837   3.524395   4.486055
    23  H    3.285708   2.160388   3.060661   3.881270   4.855094
    24  H    2.779702   2.085481   4.142056   4.469610   5.285751
    25  H    2.633044   2.152986   3.137123   3.483424   4.680787
    26  C    2.366380   1.498868   3.066489   3.262446   3.312233
    27  H    2.803293   2.083278   4.123580   4.267500   4.247596
    28  H    3.254592   2.164976   2.964430   3.569507   3.755347
    29  H    2.554966   2.151944   3.217747   3.099785   2.662669
                    6          7          8          9         10
     6  Fe   0.000000
     7  Cl   2.177871   0.000000
     8  C    3.567552   3.988017   0.000000
     9  Cl   2.192776   3.710259   5.583116   0.000000
    10  Cl   2.194617   3.674363   3.651028   3.627132   0.000000
    11  H    5.417765   6.473509   3.478471   6.549962   5.885026
    12  H    4.562188   4.668362   1.098955   6.638757   4.451984
    13  H    3.391256   4.229586   1.090389   5.354703   2.878368
    14  H    2.988235   2.961623   1.094320   5.095458   3.478234
    15  H    5.208064   4.989758   2.730831   6.906188   6.112656
    16  H    3.919680   3.857362   2.823310   5.346602   5.315939
    17  H    5.293964   5.596341   3.479358   6.553907   6.396821
    18  C    5.194532   6.536041   3.083678   6.525117   4.796588
    19  H    6.156431   7.328413   3.567214   7.593849   5.639309
    20  H    5.572746   7.155703   4.040244   6.572833   5.175249
    21  H    4.681094   6.062008   2.757883   6.134843   3.914351
    22  C    3.363527   5.330229   3.991730   3.768654   3.632423
    23  H    4.446109   6.363511   4.576392   4.744607   4.572609
    24  H    3.318829   5.405755   4.838718   3.072746   3.751800
    25  H    3.157106   5.134114   3.565683   3.953323   2.803600
    26  C    4.171195   5.437325   4.383087   4.483481   5.437391
    27  H    4.287646   5.616376   5.249536   4.051175   5.734734
    28  H    5.066159   6.433273   4.836714   5.361228   6.048309
    29  H    4.416324   5.250507   4.295081   4.948228   5.886253
                   11         12         13         14         15
    11  H    0.000000
    12  H    3.954290   0.000000
    13  H    3.808167   1.767269   0.000000
    14  H    4.216606   1.756843   1.773389   0.000000
    15  H    3.407991   2.714345   3.792527   2.820205   0.000000
    16  H    3.438813   3.401891   3.720186   2.534692   1.758148
    17  H    2.326812   3.848005   4.327359   3.721588   1.770883
    18  C    2.201354   3.494065   2.783083   4.073491   4.484329
    19  H    2.640881   3.652086   3.357239   4.641148   4.716818
    20  H    2.489719   4.557295   3.657710   4.949538   5.341079
    21  H    3.105969   3.211043   2.105866   3.701302   4.784545
    22  C    3.486655   4.999416   3.600134   4.318420   5.467033
    23  H    3.235142   5.483837   4.203488   5.079374   5.840870
    24  H    4.486453   5.892826   4.423443   4.984344   6.293664
    25  H    3.828576   4.523000   2.919009   3.953303   5.534253
    26  C    2.814283   5.304911   4.640793   4.527386   4.406707
    27  H    3.890874   6.230632   5.436640   5.252395   5.329925
    28  H    2.429463   5.669197   5.031969   5.190415   4.809947
    29  H    2.887739   5.114929   4.796951   4.329835   3.706044
                   16         17         18         19         20
    16  H    0.000000
    17  H    1.789348   0.000000
    18  C    4.611549   4.122843   0.000000
    19  H    5.210966   4.510432   1.098666   0.000000
    20  H    5.267184   4.680453   1.095363   1.758060   0.000000
    21  H    4.815016   4.711078   1.092922   1.763827   1.771712
    22  C    4.478849   4.706649   3.151529   4.244299   2.897056
[...]
 Rotational constants (GHZ):           0.5780197           0.3265260           0.3077081
   427 basis functions,  1056 primitive gaussians,   461 cartesian basis functions
    77 alpha electrons       72 beta electrons
       nuclear repulsion energy      1633.3658626007 Hartrees.
 NAtoms=   29 NActive=   29 NUniq=   29 SFac= 1.00D+00 NAtFMM=   60 NAOKFM=F Big=F
 Nuclear repulsion after empirical dispersion term =     1633.3633862094 Hartrees.
 Initial guess from the checkpoint file:  "checkpoint.chk"
 B after Tr=     0.000000    0.000000    0.000000
         Rot=    1.000000    0.000000    0.000000    0.000000 Ang=   0.00 deg.
 Initial guess <Sx>= 0.0000 <Sy>= 0.0000 <Sz>= 2.5000 <S**2>= 8.7618 S= 2.5020
 SCF Done:  E(UM06L) =  -3034.21301182     A.U. after   17 cycles
            NFock= 17  Conv=0.65D-08     -V/T= 2.0020
 <Sx>= 0.0000 <Sy>= 0.0000 <Sz>= 2.5000 <S**2>= 8.7617 S= 2.5020
 <L.S>= 0.000000000000E+00
 Annihilation of the first spin contaminant:
 S**2 before annihilation     8.7617,   after     8.7500
 1\1\GINC-HOLY7C04209\SP\UM06L\Jul-CC-pVDZ\C8H16Cl3Fe1O1(6)\EKWAN\11-Fe
 b-2020\0\\#t pop=none jul-cc-pvdz guess=read um06l empiricaldispersion
 =gd3\\theory_abbreviation m06l_d3\\0,6\O,0,-0.285412,-0.234464,-0.7377
 32\C,0,-1.081961,-1.200878,-0.615198\C,0,-3.221102,0.021994,0.214654\C
 ,0,-2.437721,1.031913,-0.221672\C,0,-2.49387,1.510317,-1.644786\Fe,0,1
 .473249,0.107741,0.054039\Cl,0,2.106283,1.979259,-0.862372\C,0,-1.5697
 84,1.861687,0.679377\Cl,0,2.542092,-1.695251,-0.590212\Cl,0,1.277465,0
 .190515,2.238338\H,0,-3.886624,-0.443257,-0.511944\H,0,-2.117499,2.771
 814,0.961122\H,0,-1.276198,1.354539,1.598918\H,0,-0.664867,2.192605,0.
 160576\H,0,-2.783479,2.569028,-1.662428\H,0,-1.504167,1.450371,-2.1130
 4\H,0,-3.218354,0.955132,-2.247449\C,0,-3.447118,-0.386321,1.644338\H,
 0,-4.357176,0.092752,2.030796\H,0,-3.599785,-1.466815,1.739445\H,0,-2.
 62554,-0.099604,2.305611\C,0,-1.016419,-2.090399,0.586059\H,0,-1.91182
 9,-2.701865,0.698436\H,0,-0.15844,-2.75925,0.418155\H,0,-0.811688,-1.5
 25434,1.495954\C,0,-1.760926,-1.713323,-1.849302\H,0,-1.058344,-2.4342
 91,-2.293942\H,0,-2.689777,-2.239871,-1.626407\H,0,-1.923267,-0.918223
 ,-2.575599\\Version=ES64L-G16RevA.03\HF=-3034.2130118\S2=8.76172\S2-1=
 0.\S2A=8.750044\RMSD=6.532e-09\PG=C01 [X(C8H16Cl3Fe1O1)]\\@


 HE WHO LOVES TO READ, AND KNOWS HOW TO REFLECT,
 HAS LAID BY A PERPETUAL FEAST FOR HIS OLD AGE.
 -- UNCLE ESEK, "SCRIBNER'S MONTHLY", SEPT. 1880
 Job cpu time:       0 days  1 hours 20 minutes 19.0 seconds.
 Elapsed time:       0 days  0 hours 20 minutes 34.3 seconds.
 File lengths (MBytes):  RWF=    174 Int=      0 D2E=      0 Chk=     13 Scr=      1
 Normal termination of Gaussian 16 at Tue Feb 11 23:00:50 2020.
 Initial command:
 /n/sw/g16_nehalem/g16/l1.exe "/scratch/Gau-85683.inp" -scrdir="/scratch/"
 Entering Link 1 = /n/sw/g16_nehalem/g16/l1.exe PID=    144073.
  
 Copyright (c) 1988,1990,1992,1993,1995,1998,2003,2009,2016,
            Gaussian, Inc.  All Rights Reserved.
  
 This is part of the Gaussian(R) 16 program.  It is based on
 the Gaussian(R) 09 system (copyright 2009, Gaussian, Inc.),
 the Gaussian(R) 03 system (copyright 2003, Gaussian, Inc.),
 the Gaussian(R) 98 system (copyright 1998, Gaussian, Inc.),
 the Gaussian(R) 94 system (copyright 1995, Gaussian, Inc.),
 the Gaussian 92(TM) system (copyright 1992, Gaussian, Inc.),
 the Gaussian 90(TM) system (copyright 1990, Gaussian, Inc.),
 the Gaussian 88(TM) system (copyright 1988, Gaussian, Inc.),
 the Gaussian 86(TM) system (copyright 1986, Carnegie Mellon
 University), and the Gaussian 82(TM) system (copyright 1983,
 Carnegie Mellon University). Gaussian is a federally registered
 trademark of Gaussian, Inc.
  
 This software contains proprietary and confidential information,
 including trade secrets, belonging to Gaussian, Inc.
  
 This software is provided under written license and may be
 used, copied, transmitted, or stored only in accord with that
 written license.
  
 The following legend is applicable only to US Government
 contracts under FAR:
  
                    RESTRICTED RIGHTS LEGEND
  
 Use, reproduction and disclosure by the US Government is
 subject to restrictions as set forth in subparagraphs (a)
 and (c) of the Commercial Computer Software - Restricted
 Rights clause in FAR 52.227-19.
  
 Gaussian, Inc.
 340 Quinnipiac St., Bldg. 40, Wallingford CT 06492
  
  
 ---------------------------------------------------------------
 Warning -- This program may not be used in any manner that
 competes with the business of Gaussian, Inc. or will provide
 assistance to any competitor of Gaussian, Inc.  The licensee
 of this program is prohibited from giving any competitor of
 Gaussian, Inc. access to this program.  By using this program,
 the user acknowledges that Gaussian, Inc. is engaged in the
 business of creating and licensing software in the field of
 computational chemistry and represents and warrants to the
 licensee that it is not a competitor of Gaussian, Inc. and that
 it will not use this program in any manner prohibited above.
 ---------------------------------------------------------------
  

 Cite this work as:
 Gaussian 16, Revision A.03,
 M. J. Frisch, G. W. Trucks, H. B. Schlegel, G. E. Scuseria, 
 M. A. Robb, J. R. Cheeseman, G. Scalmani, V. Barone, 
 G. A. Petersson, H. Nakatsuji, X. Li, M. Caricato, A. V. Marenich, 
 J. Bloino, B. G. Janesko, R. Gomperts, B. Mennucci, H. P. Hratchian, 
 J. V. Ortiz, A. F. Izmaylov, J. L. Sonnenberg, D. Williams-Young, 
 F. Ding, F. Lipparini, F. Egidi, J. Goings, B. Peng, A. Petrone, 
 T. Henderson, D. Ranasinghe, V. G. Zakrzewski, J. Gao, N. Rega, 
 G. Zheng, W. Liang, M. Hada, M. Ehara, K. Toyota, R. Fukuda, 
 J. Hasegawa, M. Ishida, T. Nakajima, Y. Honda, O. Kitao, H. Nakai, 
 T. Vreven, K. Throssell, J. A. Montgomery, Jr., J. E. Peralta, 
 F. Ogliaro, M. J. Bearpark, J. J. Heyd, E. N. Brothers, K. N. Kudin, 
 V. N. Staroverov, T. A. Keith, R. Kobayashi, J. Normand, 
 K. Raghavachari, A. P. Rendell, J. C. Burant, S. S. Iyengar, 
 J. Tomasi, M. Cossi, J. M. Millam, M. Klene, C. Adamo, R. Cammi, 
 J. W. Ochterski, R. L. Martin, K. Morokuma, O. Farkas, 
 J. B. Foresman, and D. J. Fox, Gaussian, Inc., Wallingford CT, 2016.
 
 ******************************************
 Gaussian 16:  ES64L-G16RevA.03 25-Dec-2016
                11-Feb-2020 
 ******************************************
 %chk=checkpoint.chk
 %mem=3GB
 %nprocshared=4
 Will use up to    4 processors via shared memory.
 -------------------------------------------------------------------
 #t pop=none jul-cc-pvdz guess=read ub97d3 empiricaldispersion=gd3bj
 -------------------------------------------------------------------
 ------------------------------
 theory_abbreviation b97d3_d3bj
 ------------------------------
 Symbolic Z-matrix:
 Charge =  0 Multiplicity = 6
 O                    -0.28541  -0.23446  -0.73773 
 C                    -1.08196  -1.20088  -0.6152 
 C                    -3.2211    0.02199   0.21465 
 C                    -2.43772   1.03191  -0.22167 
 C                    -2.49387   1.51032  -1.64479 
 Fe                    1.47325   0.10774   0.05404 
 Cl                    2.10628   1.97926  -0.86237 
 C                    -1.56978   1.86169   0.67938 
 Cl                    2.54209  -1.69525  -0.59021 
 Cl                    1.27747   0.19052   2.23834 
 H                    -3.88662  -0.44326  -0.51194 
 H                    -2.1175    2.77181   0.96112 
 H                    -1.2762    1.35454   1.59892 
 H                    -0.66487   2.1926    0.16058 
 H                    -2.78348   2.56903  -1.66243 
 H                    -1.50417   1.45037  -2.11304 
 H                    -3.21835   0.95513  -2.24745 
 C                    -3.44712  -0.38632   1.64434 
 H                    -4.35718   0.09275   2.0308 
 H                    -3.59979  -1.46682   1.73945 
 H                    -2.62554  -0.0996    2.30561 
 C                    -1.01642  -2.0904    0.58606 
 H                    -1.91183  -2.70187   0.69844 
 H                    -0.15844  -2.75925   0.41816 
 H                    -0.81169  -1.52543   1.49595 
 C                    -1.76093  -1.71332  -1.8493 
 H                    -1.05834  -2.43429  -2.29394 
 H                    -2.68978  -2.23987  -1.62641 
 H                    -1.92327  -0.91822  -2.5756 
 
                    Distance matrix (angstroms):
                    1          2          3          4          5
     1  O    0.000000
     2  C    1.258356   0.000000
     3  C    3.096948   2.599999   0.000000
     4  C    2.549993   2.641648   1.350556   0.000000
     5  C    2.957075   3.225541   2.490279   1.502424   0.000000
     6  Fe   1.958799   2.947789   4.697880   4.028126   4.537759
     7  Cl   3.261336   4.509908   5.776842   4.685716   4.689721
     8  C    2.837544   3.360536   2.515410   1.501242   2.525694
     9  Cl   3.185975   3.657703   6.067219   5.689621   6.062071
    10  Cl   3.388242   3.955443   4.935666   4.534557   5.571669
    11  H    3.614319   2.907023   1.089643   2.087990   2.653214
    12  H    3.909009   4.397659   3.055596   2.128098   2.919552
    13  H    2.994415   3.386767   2.733956   2.183523   3.468228
    14  H    2.615647   3.505926   3.353925   2.153214   2.658966
    15  H    3.867165   4.266620   3.194109   2.134959   1.097749
    16  H    2.493091   3.074233   3.225878   2.150326   1.096525
    17  H    3.506641   3.446273   2.633003   2.172339   1.093760
    18  C    3.961528   3.370901   1.503928   2.551914   3.914621
    19  H    4.934681   4.404747   2.143372   3.104826   4.357901
    20  H    4.317426   3.457529   2.164472   3.382309   4.641054
    21  H    3.841396   3.482322   2.177517   2.775386   4.267882
    22  C    2.394011   1.496182   3.075837   3.524395   4.486055
    23  H    3.285708   2.160388   3.060661   3.881270   4.855094
    24  H    2.779702   2.085481   4.142056   4.469610   5.285751
    25  H    2.633044   2.152986   3.137123   3.483424   4.680787
    26  C    2.366380   1.498868   3.066489   3.262446   3.312233
    27  H    2.803293   2.083278   4.123580   4.267500   4.247596
    28  H    3.254592   2.164976   2.964430   3.569507   3.755347
    29  H    2.554966   2.151944   3.217747   3.099785   2.662669
                    6          7          8          9         10
     6  Fe   0.000000
     7  Cl   2.177871   0.000000
     8  C    3.567552   3.988017   0.000000
     9  Cl   2.192776   3.710259   5.583116   0.000000
    10  Cl   2.194617   3.674363   3.651028   3.627132   0.000000
    11  H    5.417765   6.473509   3.478471   6.549962   5.885026
    12  H    4.562188   4.668362   1.098955   6.638757   4.451984
    13  H    3.391256   4.229586   1.090389   5.354703   2.878368
    14  H    2.988235   2.961623   1.094320   5.095458   3.478234
    15  H    5.208064   4.989758   2.730831   6.906188   6.112656
    16  H    3.919680   3.857362   2.823310   5.346602   5.315939
    17  H    5.293964   5.596341   3.479358   6.553907   6.396821
    18  C    5.194532   6.536041   3.083678   6.525117   4.796588
    19  H    6.156431   7.328413   3.567214   7.593849   5.639309
    20  H    5.572746   7.155703   4.040244   6.572833   5.175249
    21  H    4.681094   6.062008   2.757883   6.134843   3.914351
    22  C    3.363527   5.330229   3.991730   3.768654   3.632423
    23  H    4.446109   6.363511   4.576392   4.744607   4.572609
    24  H    3.318829   5.405755   4.838718   3.072746   3.751800
    25  H    3.157106   5.134114   3.565683   3.953323   2.803600
    26  C    4.171195   5.437325   4.383087   4.483481   5.437391
    27  H    4.287646   5.616376   5.249536   4.051175   5.734734
    28  H    5.066159   6.433273   4.836714   5.361228   6.048309
    29  H    4.416324   5.250507   4.295081   4.948228   5.886253
                   11         12         13         14         15
    11  H    0.000000
    12  H    3.954290   0.000000
    13  H    3.808167   1.767269   0.000000
    14  H    4.216606   1.756843   1.773389   0.000000
    15  H    3.407991   2.714345   3.792527   2.820205   0.000000
    16  H    3.438813   3.401891   3.720186   2.534692   1.758148
    17  H    2.326812   3.848005   4.327359   3.721588   1.770883
    18  C    2.201354   3.494065   2.783083   4.073491   4.484329
    19  H    2.640881   3.652086   3.357239   4.641148   4.716818
    20  H    2.489719   4.557295   3.657710   4.949538   5.341079
    21  H    3.105969   3.211043   2.105866   3.701302   4.784545
    22  C    3.486655   4.999416   3.600134   4.318420   5.467033
    23  H    3.235142   5.483837   4.203488   5.079374   5.840870
    24  H    4.486453   5.892826   4.423443   4.984344   6.293664
    25  H    3.828576   4.523000   2.919009   3.953303   5.534253
    26  C    2.814283   5.304911   4.640793   4.527386   4.406707
    27  H    3.890874   6.230632   5.436640   5.252395   5.329925
    28  H    2.429463   5.669197   5.031969   5.190415   4.809947
    29  H    2.887739   5.114929   4.796951   4.329835   3.706044
                   16         17         18         19         20
    16  H    0.000000
    17  H    1.789348   0.000000
    18  C    4.611549   4.122843   0.000000
    19  H    5.210966   4.510432   1.098666   0.000000
    20  H    5.267184   4.680453   1.095363   1.758060   0.000000
    21  H    4.815016   4.711078   1.092922   1.763827   1.771712
    22  C    4.478849   4.706649   3.151529   4.244299   2.897056
    23  H    5.031068   4.874307   2.934891   3.945224   2.336288
    24  H    5.093019   5.501377   4.236711   5.325778   3.906284
    25  H    4.728613   5.094930   2.874907   3.933836   2.799323
    26  C    3.185034   3.066475   4.099963   5.005755   4.039960
    27  H    3.914343   4.019452   5.040880   5.997633   4.864478
    28  H    3.906452   3.297443   3.834969   4.647202   3.571371
    29  H    2.449458   2.300955   4.518065   5.307057   4.661681
                   21         22         23         24         25
    21  H    0.000000
    22  C    3.083731   0.000000
    23  H    3.140726   1.090082   0.000000
    24  H    4.089351   1.100764   1.776576   0.000000
    25  H    2.445117   1.090417   1.797313   1.763714   0.000000
    26  C    4.540369   2.574385   2.736961   2.967033   3.482398
    27  H    5.390988   2.900763   3.123197   2.875916   3.905147
    28  H    4.477235   2.778034   2.494702   3.295096   3.713055
    29  H    4.998953   3.491769   3.728380   3.932754   4.264019
                   26         27         28         29
    26  C    0.000000
    27  H    1.100509   0.000000
    28  H    1.090733   1.773408   0.000000
    29  H    1.089057   1.768017   1.798682   0.000000
 Framework group  C1[X(C8H16Cl3FeO)]
 Deg. of freedom    81
                         Standard orientation:                         
 ---------------------------------------------------------------------
 Center     Atomic      Atomic             Coordinates (Angstroms)
 Number     Number       Type             X           Y           Z
 ---------------------------------------------------------------------
      1          8           0       -0.285412   -0.234464   -0.737732
      2          6           0       -1.081961   -1.200878   -0.615198
      3          6           0       -3.221102    0.021994    0.214654
      4          6           0       -2.437721    1.031913   -0.221672
      5          6           0       -2.493870    1.510317   -1.644786
      6         26           0        1.473249    0.107741    0.054039
      7         17           0        2.106283    1.979259   -0.862372
      8          6           0       -1.569784    1.861687    0.679377
      9         17           0        2.542092   -1.695251   -0.590212
     10         17           0        1.277465    0.190515    2.238338
     11          1           0       -3.886624   -0.443257   -0.511944
     12          1           0       -2.117499    2.771814    0.961122
     13          1           0       -1.276198    1.354539    1.598918
     14          1           0       -0.664867    2.192605    0.160576
     15          1           0       -2.783479    2.569028   -1.662428
     16          1           0       -1.504167    1.450371   -2.113040
     17          1           0       -3.218354    0.955132   -2.247449
     18          6           0       -3.447118   -0.386321    1.644338
     19          1           0       -4.357176    0.092752    2.030796
     20          1           0       -3.599785   -1.466815    1.739445
     21          1           0       -2.625540   -0.099604    2.305611
     22          6           0       -1.016419   -2.090399    0.586059
     23          1           0       -1.911829   -2.701865    0.698436
     24          1           0       -0.158440   -2.759250    0.418155
     25          1           0       -0.811688   -1.525434    1.495954
     26          6           0       -1.760926   -1.713323   -1.849302
     27          1           0       -1.058344   -2.434291   -2.293942
     28          1           0       -2.689777   -2.239871   -1.626407
     29          1           0       -1.923267   -0.918223   -2.575599
 ---------------------------------------------------------------------
 Rotational constants (GHZ):           0.5780197           0.3265260           0.3077081
   427 basis functions,  1056 primitive gaussians,   461 cartesian basis functions
    77 alpha electrons       72 beta electrons
       nuclear repulsion energy      1633.3658626007 Hartrees.
 NAtoms=   29 NActive=   29 NUniq=   29 SFac= 1.00D+00 NAtFMM=   60 NAOKFM=F Big=F
 Nuclear repulsion after empirical dispersion term =     1633.2649453807 Hartrees.
 Initial guess from the checkpoint file:  "checkpoint.chk"
 B after Tr=     0.000000    0.000000    0.000000
         Rot=    1.000000    0.000000    0.000000    0.000000 Ang=   0.00 deg.
 Initial guess <Sx>= 0.0000 <Sy>= 0.0000 <Sz>= 2.5000 <S**2>= 8.7617 S= 2.5020
 EnCoef did     1 forward-backward iterations
 SCF Done:  E(UB97D3) =  -3034.63263233     A.U. after   17 cycles
            NFock= 17  Conv=0.40D-08     -V/T= 2.0019
 <Sx>= 0.0000 <Sy>= 0.0000 <Sz>= 2.5000 <S**2>= 8.7599 S= 2.5016
 <L.S>= 0.000000000000E+00
 Annihilation of the first spin contaminant:
 S**2 before annihilation     8.7599,   after     8.7500
 1\1\GINC-HOLY7C04209\SP\UB97D3\Jul-CC-pVDZ\C8H16Cl3Fe1O1(6)\EKWAN\11-F
 eb-2020\0\\#t pop=none jul-cc-pvdz guess=read ub97d3 empiricaldispersi
 on=gd3bj\\theory_abbreviation b97d3_d3bj\\0,6\O,0,-0.285412,-0.234464,
 -0.737732\C,0,-1.081961,-1.200878,-0.615198\C,0,-3.221102,0.021994,0.2
 14654\C,0,-2.437721,1.031913,-0.221672\C,0,-2.49387,1.510317,-1.644786
 \Fe,0,1.473249,0.107741,0.054039\Cl,0,2.106283,1.979259,-0.862372\C,0,
 -1.569784,1.861687,0.679377\Cl,0,2.542092,-1.695251,-0.590212\Cl,0,1.2
 77465,0.190515,2.238338\H,0,-3.886624,-0.443257,-0.511944\H,0,-2.11749
 9,2.771814,0.961122\H,0,-1.276198,1.354539,1.598918\H,0,-0.664867,2.19
 2605,0.160576\H,0,-2.783479,2.569028,-1.662428\H,0,-1.504167,1.450371,
 -2.11304\H,0,-3.218354,0.955132,-2.247449\C,0,-3.447118,-0.386321,1.64
 4338\H,0,-4.357176,0.092752,2.030796\H,0,-3.599785,-1.466815,1.739445\
 H,0,-2.62554,-0.099604,2.305611\C,0,-1.016419,-2.090399,0.586059\H,0,-
 1.911829,-2.701865,0.698436\H,0,-0.15844,-2.75925,0.418155\H,0,-0.8116
 88,-1.525434,1.495954\C,0,-1.760926,-1.713323,-1.849302\H,0,-1.058344,
 -2.434291,-2.293942\H,0,-2.689777,-2.239871,-1.626407\H,0,-1.923267,-0
 .918223,-2.575599\\Version=ES64L-G16RevA.03\HF=-3034.6326323\S2=8.7598
 61\S2-1=0.\S2A=8.750031\RMSD=3.987e-09\PG=C01 [X(C8H16Cl3Fe1O1)]\\@


 NO HUMAN INVESTIGATION CAN BECOME REAL SCIENCE
 WITHOUT GOING THROUGH MATHEMATICAL PEOPLE.
 -- LEONARDO DA VINCI, IN "PENSIERI" CA. 1492
 Job cpu time:       0 days  0 hours 54 minutes  4.0 seconds.
 Elapsed time:       0 days  0 hours 13 minutes 33.5 seconds.
 File lengths (MBytes):  RWF=    174 Int=      0 D2E=      0 Chk=     13 Scr=      1
 Normal termination of Gaussian 16 at Tue Feb 11 23:14:25 2020.
