 Entering Gaussian System, Link 0=g16
 Input=simple-grid-175-205-b3lyp_d3bj-631gd-gas-singlepoint-DFT-juldz2-gas.gjf
 Output=simple-grid-175-205-b3lyp_d3bj-631gd-gas-singlepoint-DFT-juldz2-gas.out
 Initial command:
 /n/sw/g16_nehalem/g16/l1.exe "/scratch/Gau-180298.inp" -scrdir="/scratch/"
 Entering Link 1 = /n/sw/g16_nehalem/g16/l1.exe PID=    180304.
  
 Copyright (c) 1988,1990,1992,1993,1995,1998,2003,2009,2016,
            Gaussian, Inc.  All Rights Reserved.
  
 This is part of the Gaussian(R) 16 program.  It is based on
 the Gaussian(R) 09 system (copyright 2009, Gaussian, Inc.),
 the Gaussian(R) 03 system (copyright 2003, Gaussian, Inc.),
 the Gaussian(R) 98 system (copyright 1998, Gaussian, Inc.),
 the Gaussian(R) 94 system (copyright 1995, Gaussian, Inc.),
 the Gaussian 92(TM) system (copyright 1992, Gaussian, Inc.),
 the Gaussian 90(TM) system (copyright 1990, Gaussian, Inc.),
 the Gaussian 88(TM) system (copyright 1988, Gaussian, Inc.),
 the Gaussian 86(TM) system (copyright 1986, Carnegie Mellon
 University), and the Gaussian 82(TM) system (copyright 1983,
 Carnegie Mellon University). Gaussian is a federally registered
 trademark of Gaussian, Inc.
  
 This software contains proprietary and confidential information,
 including trade secrets, belonging to Gaussian, Inc.
  
 This software is provided under written license and may be
 used, copied, transmitted, or stored only in accord with that
 written license.
  
 The following legend is applicable only to US Government
 contracts under FAR:
  
                    RESTRICTED RIGHTS LEGEND
  
 Use, reproduction and disclosure by the US Government is
 subject to restrictions as set forth in subparagraphs (a)
 and (c) of the Commercial Computer Software - Restricted
 Rights clause in FAR 52.227-19.
  
 Gaussian, Inc.
 340 Quinnipiac St., Bldg. 40, Wallingford CT 06492
  
  
 ---------------------------------------------------------------
 Warning -- This program may not be used in any manner that
 competes with the business of Gaussian, Inc. or will provide
 assistance to any competitor of Gaussian, Inc.  The licensee
 of this program is prohibited from giving any competitor of
 Gaussian, Inc. access to this program.  By using this program,
 the user acknowledges that Gaussian, Inc. is engaged in the
 business of creating and licensing software in the field of
 computational chemistry and represents and warrants to the
 licensee that it is not a competitor of Gaussian, Inc. and that
 it will not use this program in any manner prohibited above.
 ---------------------------------------------------------------
  

 Cite this work as:
 Gaussian 16, Revision A.03,
 M. J. Frisch, G. W. Trucks, H. B. Schlegel, G. E. Scuseria, 
 M. A. Robb, J. R. Cheeseman, G. Scalmani, V. Barone, 
 G. A. Petersson, H. Nakatsuji, X. Li, M. Caricato, A. V. Marenich, 
 J. Bloino, B. G. Janesko, R. Gomperts, B. Mennucci, H. P. Hratchian, 
 J. V. Ortiz, A. F. Izmaylov, J. L. Sonnenberg, D. Williams-Young, 
 F. Ding, F. Lipparini, F. Egidi, J. Goings, B. Peng, A. Petrone, 
 T. Henderson, D. Ranasinghe, V. G. Zakrzewski, J. Gao, N. Rega, 
 G. Zheng, W. Liang, M. Hada, M. Ehara, K. Toyota, R. Fukuda, 
 J. Hasegawa, M. Ishida, T. Nakajima, Y. Honda, O. Kitao, H. Nakai, 
 T. Vreven, K. Throssell, J. A. Montgomery, Jr., J. E. Peralta, 
 F. Ogliaro, M. J. Bearpark, J. J. Heyd, E. N. Brothers, K. N. Kudin, 
 V. N. Staroverov, T. A. Keith, R. Kobayashi, J. Normand, 
 K. Raghavachari, A. P. Rendell, J. C. Burant, S. S. Iyengar, 
 J. Tomasi, M. Cossi, J. M. Millam, M. Klene, C. Adamo, R. Cammi, 
 J. W. Ochterski, R. L. Martin, K. Morokuma, O. Farkas, 
 J. B. Foresman, and D. J. Fox, Gaussian, Inc., Wallingford CT, 2016.
 
 ******************************************
 Gaussian 16:  ES64L-G16RevA.03 25-Dec-2016
                11-Feb-2020 
 ******************************************
 %chk=checkpoint.chk
 %mem=3GB
 %nprocshared=4
 Will use up to    4 processors via shared memory.
 --------------------------------
 #t pop=none jul-cc-pvdz upbe1pbe
 --------------------------------
 ------------------------
 theory_abbreviation pbe0
 ------------------------
 Symbolic Z-matrix:
 Charge =  0 Multiplicity = 6
 O                    -0.40641  -0.18685  -0.52684 
 C                    -1.42243  -1.20481  -0.36079 
 C                    -2.79102  -0.12528  -0.20559 
 C                    -1.95577   1.13149  -0.27396 
 C                    -1.86404   1.86946  -1.55792 
 Fe                    1.37569   0.04089   0.03532 
 Cl                    1.83659   2.01842  -0.84315 
 C                    -1.56631   1.85323   0.96226 
 Cl                    2.47855  -1.69322  -0.72782 
 Cl                    1.35372   0.15016   2.24628 
 H                    -3.38079  -0.22543  -1.12037 
 H                    -2.43462   2.46302   1.26032 
 H                    -1.32917   1.18174   1.78775 
 H                    -0.72306   2.52348   0.7825 
 H                    -2.66304   2.6291   -1.55099 
 H                    -0.90432   2.38608  -1.64364 
 H                    -2.02081   1.21675  -2.41801 
 C                    -3.66474  -0.32006   1.02322 
 H                    -4.4522    0.44134   1.07462 
 H                    -4.15625  -1.2963    0.973 
 H                    -3.09569  -0.28177   1.95494 
 C                    -1.18571  -2.04214   0.8769 
 H                    -2.00284  -2.75438   1.02928 
 H                    -0.2584   -2.61212   0.74407 
 H                    -1.06848  -1.42845   1.77195 
 C                    -1.51826  -2.02642  -1.62889 
 H                    -0.57062  -2.5555   -1.78177 
 H                    -2.32585  -2.7635   -1.56009 
 H                    -1.69151  -1.38633  -2.49877 
 
                    Distance matrix (angstroms):
                    1          2          3          4          5
     1  O    0.000000
     2  C    1.447793   0.000000
     3  C    2.406941   1.749999   0.000000
     4  C    2.049998   2.397970   1.510559   0.000000
     5  C    2.723282   3.328553   2.582074   1.483773   0.000000
     6  Fe   1.882489   3.088392   4.176975   3.519044   4.046968
     7  Cl   3.161376   4.609018   5.139714   3.936060   3.771963
     8  C    2.779336   3.335076   2.603508   1.483513   2.537757
     9  Cl   3.260752   3.948534   5.522637   5.277132   5.678013
    10  Cl   3.301785   4.042249   4.823521   4.274025   5.270854
    11  H    3.033270   2.317607   1.093017   2.142038   2.623082
    12  H    3.785417   4.135873   2.995858   2.087169   2.936046
    13  H    2.842857   3.212556   2.796188   2.155407   3.457247
    14  H    3.026638   3.961861   3.502666   2.138527   2.684611
    15  H    3.751113   4.201722   3.068072   2.091379   1.102493
    16  H    2.848712   3.848194   3.454643   2.134376   1.093297
    17  H    2.855335   3.233286   2.699835   2.146735   1.091039
    18  C    3.610701   2.779606   1.520297   2.590423   3.833913
    19  H    4.396331   3.734928   2.172442   2.920130   3.958335
    20  H    4.188280   3.043209   2.150398   3.505881   4.656379
    21  H    3.660657   3.002393   2.187500   2.874837   4.299410
    22  C    2.453544   1.512964   2.724552   3.462575   4.657163
    23  H    3.400334   2.161100   3.009700   4.098858   5.300265
    24  H    2.742084   2.134535   3.674290   4.234627   5.287896
    25  H    2.695240   2.173455   2.928491   3.395043   4.753652
    26  C    2.415521   1.514035   2.694448   3.464051   3.911842
    27  H    2.685570   2.137553   3.649727   4.217346   4.615551
    28  H    3.375050   2.164256   3.001883   4.118502   4.655924
    29  H    2.641729   2.162472   2.838635   3.370312   3.393394
                    6          7          8          9         10
     6  Fe   0.000000
     7  Cl   2.212408   0.000000
     8  C    3.577590   3.855711   0.000000
     9  Cl   2.192216   3.768506   5.638664   0.000000
    10  Cl   2.213763   3.642542   3.616036   3.675397   0.000000
    11  H    4.902109   5.686187   3.456945   6.053130   5.821594
    12  H    4.678224   4.781786   1.102108   6.735444   4.546747
    13  H    3.418890   4.200440   1.090214   5.393718   2.910723
    14  H    3.335609   3.074026   1.092071   5.505625   3.476824
    15  H    5.052379   4.595715   2.849771   6.767269   6.057945
    16  H    3.676585   2.878980   2.740959   5.378029   5.022900
    17  H    4.351746   4.242915   3.469568   5.618617   5.854967
    18  C    5.148999   6.262306   3.021644   6.533890   5.186706
    19  H    5.933365   6.761204   3.214719   7.472644   5.930115
    20  H    5.767988   7.085186   4.077676   6.860823   5.837230
    21  H    4.876703   6.119434   2.807599   6.345192   4.479806
    22  C    3.407056   5.346117   3.914852   4.015424   3.623544
    23  H    4.496215   6.405214   4.628726   4.929128   4.602600
    24  H    3.195470   5.324481   4.658065   3.240636   3.533516
    25  H    3.338981   5.211434   3.416554   4.347455   2.929851
    26  C    3.926619   5.313482   4.665621   4.110650   5.291758
    27  H    3.719027   5.253218   5.287527   3.339423   5.220040
    28  H    4.910328   6.380169   5.315387   4.992032   6.042937
    29  H    4.226852   5.175016   4.742265   4.540906   5.843771
                   11         12         13         14         15
    11  H    0.000000
    12  H    3.713575   0.000000
    13  H    3.827059   1.772530   0.000000
    14  H    4.270937   1.778032   1.782740   0.000000
    15  H    2.974710   2.825462   3.875721   3.036418   0.000000
    16  H    3.636853   3.283400   3.661331   2.436775   1.777845
    17  H    2.369246   3.905710   4.262395   3.692554   1.777332
    18  C    2.164385   3.052042   2.880069   4.098435   4.040735
    19  H    2.531888   2.862219   3.287864   4.281019   3.857618
    20  H    2.475941   4.144760   3.846670   5.139435   4.899892
    21  H    3.089002   2.907464   2.300083   3.856601   4.577317
    22  C    3.479647   4.690763   3.353155   4.589974   5.467874
    23  H    3.593792   5.240328   4.064743   5.436408   6.006285
    24  H    4.349918   5.546121   4.077889   5.156720   6.206444
    25  H    3.893529   4.155912   2.623221   4.088528   5.481627
    26  C    2.640302   5.416852   4.690570   5.210444   4.794832
    27  H    3.709955   6.157458   5.223389   5.691635   5.595666
    28  H    2.783541   5.939954   5.269375   6.000734   5.403136
    29  H    2.470092   5.431426   5.010035   5.195303   4.238604
                   16         17         18         19         20
    16  H    0.000000
    17  H    1.792632   0.000000
    18  C    4.696308   4.111745   0.000000
    19  H    4.874260   4.325673   1.096572   0.000000
    20  H    5.566128   4.730171   1.094139   1.765589   0.000000
    21  H    4.986907   4.745905   1.092417   1.771431   1.765862
    22  C    5.103084   4.708953   3.022017   4.108135   3.064254
    23  H    5.897082   5.258710   2.947515   4.026667   2.601219
    24  H    5.576772   5.269261   4.115170   5.198159   4.120321
    25  H    5.122874   5.045773   2.920564   3.928353   3.192199
    26  C    4.455032   3.375415   3.814804   4.691140   3.776490
    27  H    4.954757   4.091173   4.736956   5.675093   4.693729
    28  H    5.342836   4.083072   3.799547   4.661985   3.452480
    29  H    3.947400   2.625065   4.175521   4.871434   4.258663
                   21         22         23         24         25
    21  H    0.000000
    22  C    2.812313   0.000000
    23  H    2.857439   1.094627   0.000000
    24  H    3.866126   1.096547   1.773319   0.000000
    25  H    2.336222   1.091552   1.784010   1.764610   0.000000
    26  C    4.286709   2.527809   2.798321   2.749772   3.482184
    27  H    5.050621   2.776759   3.161142   2.545695   3.761257
    28  H    4.371164   2.785537   2.609459   3.099425   3.803403
    29  H    4.798669   3.475782   3.796789   3.751318   4.316132
                   26         27         28         29
    26  C    0.000000
    27  H    1.096050   0.000000
    28  H    1.095541   1.781357   0.000000
    29  H    1.093811   1.771283   1.783282   0.000000
 Framework group  C1[X(C8H16Cl3FeO)]
 Deg. of freedom    81
                         Standard orientation:                         
 ---------------------------------------------------------------------
 Center     Atomic      Atomic             Coordinates (Angstroms)
 Number     Number       Type             X           Y           Z
 ---------------------------------------------------------------------
      1          8           0       -0.406408   -0.186854   -0.526836
      2          6           0       -1.422434   -1.204805   -0.360793
      3          6           0       -2.791019   -0.125277   -0.205585
      4          6           0       -1.955766    1.131491   -0.273959
      5          6           0       -1.864037    1.869464   -1.557923
      6         26           0        1.375691    0.040890    0.035322
      7         17           0        1.836588    2.018415   -0.843154
      8          6           0       -1.566310    1.853229    0.962257
      9         17           0        2.478549   -1.693218   -0.727820
     10         17           0        1.353720    0.150162    2.246277
     11          1           0       -3.380792   -0.225425   -1.120366
     12          1           0       -2.434618    2.463017    1.260321
     13          1           0       -1.329171    1.181740    1.787747
     14          1           0       -0.723061    2.523480    0.782498
     15          1           0       -2.663038    2.629096   -1.550991
     16          1           0       -0.904319    2.386081   -1.643639
     17          1           0       -2.020805    1.216751   -2.418014
     18          6           0       -3.664741   -0.320064    1.023224
     19          1           0       -4.452200    0.441340    1.074621
     20          1           0       -4.156250   -1.296300    0.972999
     21          1           0       -3.095686   -0.281768    1.954935
     22          6           0       -1.185705   -2.042143    0.876900
     23          1           0       -2.002839   -2.754379    1.029280
     24          1           0       -0.258397   -2.612119    0.744072
     25          1           0       -1.068477   -1.428447    1.771953
     26          6           0       -1.518262   -2.026420   -1.628889
     27          1           0       -0.570617   -2.555496   -1.781770
     28          1           0       -2.325845   -2.763500   -1.560094
     29          1           0       -1.691510   -1.386326   -2.498767
 ---------------------------------------------------------------------
 Rotational constants (GHZ):           0.5708283           0.3626154           0.3248275
   427 basis functions,  1056 primitive gaussians,   461 cartesian basis functions
    77 alpha electrons       72 beta electrons
       nuclear repulsion energy      1659.9448616382 Hartrees.
 NAtoms=   29 NActive=   29 NUniq=   29 SFac= 1.00D+00 NAtFMM=   60 NAOKFM=F Big=F
 ExpMin= 1.40D-02 ExpMax= 4.32D+06 ExpMxC= 4.91D+03 IAcc=3 IRadAn=         5 AccDes= 0.00D+00
 Harris functional with IExCor= 1009 and IRadAn=       5 diagonalized for initial guess.
 HarFok:  IExCor= 1009 AccDes= 0.00D+00 IRadAn=         5 IDoV= 1 UseB2=F ITyADJ=14
 ICtDFT=  3500011 ScaDFX=  1.000000  1.000000  1.000000  1.000000
 FoFCou: FMM=F IPFlag=           0 FMFlag=      100000 FMFlg1=           0
         NFxFlg=           0 DoJE=T BraDBF=F KetDBF=T FulRan=T
         wScrn=  0.000000 ICntrl=       500 IOpCl=  0 I1Cent=   200000004 NGrid=           0
         NMat0=    1 NMatS0=      1 NMatT0=    0 NMatD0=    1 NMtDS0=    0 NMtDT0=    0
 Petite list used in FoFCou.
 Initial guess <Sx>= 0.0000 <Sy>= 0.0000 <Sz>= 2.5000 <S**2>= 8.7500 S= 2.5000
 EnCoef did   100 forward-backward iterations
 SCF Done:  E(UPBE1PBE) =  -3033.11452757     A.U. after   20 cycles
            NFock= 20  Conv=0.41D-08     -V/T= 2.0022
 <Sx>= 0.0000 <Sy>= 0.0000 <Sz>= 2.5000 <S**2>= 8.7627 S= 2.5021
 <L.S>= 0.000000000000E+00
 Annihilation of the first spin contaminant:
 S**2 before annihilation     8.7627,   after     8.7501
 1\1\GINC-HOLY7C04509\SP\UPBE1PBE\Jul-CC-pVDZ\C8H16Cl3Fe1O1(6)\EKWAN\11
 -Feb-2020\0\\#t pop=none jul-cc-pvdz upbe1pbe\\theory_abbreviation pbe
 0\\0,6\O,0,-0.406408,-0.186854,-0.526836\C,0,-1.422434,-1.204805,-0.36
 0793\C,0,-2.791019,-0.125277,-0.205585\C,0,-1.955766,1.131491,-0.27395
 9\C,0,-1.864037,1.869464,-1.557923\Fe,0,1.375691,0.04089,0.035322\Cl,0
 ,1.836588,2.018415,-0.843154\C,0,-1.56631,1.853229,0.962257\Cl,0,2.478
 549,-1.693218,-0.72782\Cl,0,1.35372,0.150162,2.246277\H,0,-3.380792,-0
 .225425,-1.120366\H,0,-2.434618,2.463017,1.260321\H,0,-1.329171,1.1817
 4,1.787747\H,0,-0.723061,2.52348,0.782498\H,0,-2.663038,2.629096,-1.55
 0991\H,0,-0.904319,2.386081,-1.643639\H,0,-2.020805,1.216751,-2.418014
 \C,0,-3.664741,-0.320064,1.023224\H,0,-4.4522,0.44134,1.074621\H,0,-4.
 15625,-1.2963,0.972999\H,0,-3.095686,-0.281768,1.954935\C,0,-1.185705,
 -2.042143,0.8769\H,0,-2.002839,-2.754379,1.02928\H,0,-0.258397,-2.6121
 19,0.744072\H,0,-1.068477,-1.428447,1.771953\C,0,-1.518262,-2.02642,-1
 .628889\H,0,-0.570617,-2.555496,-1.78177\H,0,-2.325845,-2.7635,-1.5600
 94\H,0,-1.69151,-1.386326,-2.498767\\Version=ES64L-G16RevA.03\HF=-3033
 .1145276\S2=8.762692\S2-1=0.\S2A=8.75005\RMSD=4.066e-09\PG=C01 [X(C8H1
 6Cl3Fe1O1)]\\@


 THOSE WHO TRY TO PASS CHEMISTRY OFF AS A NEW SCIENCE
 SHOW HOW LITTLE KNOWLEDGE THEY HAVE OF THE CHARACTER
 AND LITERATURE OF THE ANCIENTS.
   -- NICOLAS LEFEVRE
 "COURS DE CHYMIE" J.-N.LELOUP, PARIS, 1751
 Job cpu time:       0 days  1 hours 25 minutes 45.4 seconds.
 Elapsed time:       0 days  0 hours 21 minutes 32.0 seconds.
 File lengths (MBytes):  RWF=    173 Int=      0 D2E=      0 Chk=     13 Scr=      1
 Normal termination of Gaussian 16 at Tue Feb 11 13:56:43 2020.
 Initial command:
 /n/sw/g16_nehalem/g16/l1.exe "/scratch/Gau-180298.inp" -scrdir="/scratch/"
 Entering Link 1 = /n/sw/g16_nehalem/g16/l1.exe PID=    182104.
  
 Copyright (c) 1988,1990,1992,1993,1995,1998,2003,2009,2016,
            Gaussian, Inc.  All Rights Reserved.
  
 This is part of the Gaussian(R) 16 program.  It is based on
 the Gaussian(R) 09 system (copyright 2009, Gaussian, Inc.),
 the Gaussian(R) 03 system (copyright 2003, Gaussian, Inc.),
 the Gaussian(R) 98 system (copyright 1998, Gaussian, Inc.),
 the Gaussian(R) 94 system (copyright 1995, Gaussian, Inc.),
 the Gaussian 92(TM) system (copyright 1992, Gaussian, Inc.),
 the Gaussian 90(TM) system (copyright 1990, Gaussian, Inc.),
 the Gaussian 88(TM) system (copyright 1988, Gaussian, Inc.),
 the Gaussian 86(TM) system (copyright 1986, Carnegie Mellon
 University), and the Gaussian 82(TM) system (copyright 1983,
 Carnegie Mellon University). Gaussian is a federally registered
 trademark of Gaussian, Inc.
  
 This software contains proprietary and confidential information,
 including trade secrets, belonging to Gaussian, Inc.
  
 This software is provided under written license and may be
 used, copied, transmitted, or stored only in accord with that
 written license.
  
 The following legend is applicable only to US Government
 contracts under FAR:
  
                    RESTRICTED RIGHTS LEGEND
  
 Use, reproduction and disclosure by the US Government is
 subject to restrictions as set forth in subparagraphs (a)
 and (c) of the Commercial Computer Software - Restricted
 Rights clause in FAR 52.227-19.
  
 Gaussian, Inc.
 340 Quinnipiac St., Bldg. 40, Wallingford CT 06492
  
  
 ---------------------------------------------------------------
 Warning -- This program may not be used in any manner that
 competes with the business of Gaussian, Inc. or will provide
 assistance to any competitor of Gaussian, Inc.  The licensee
 of this program is prohibited from giving any competitor of
 Gaussian, Inc. access to this program.  By using this program,
 the user acknowledges that Gaussian, Inc. is engaged in the
 business of creating and licensing software in the field of
 computational chemistry and represents and warrants to the
 licensee that it is not a competitor of Gaussian, Inc. and that
 it will not use this program in any manner prohibited above.
 ---------------------------------------------------------------
  

 Cite this work as:
 Gaussian 16, Revision A.03,
 M. J. Frisch, G. W. Trucks, H. B. Schlegel, G. E. Scuseria, 
 M. A. Robb, J. R. Cheeseman, G. Scalmani, V. Barone, 
 G. A. Petersson, H. Nakatsuji, X. Li, M. Caricato, A. V. Marenich, 
 J. Bloino, B. G. Janesko, R. Gomperts, B. Mennucci, H. P. Hratchian, 
 J. V. Ortiz, A. F. Izmaylov, J. L. Sonnenberg, D. Williams-Young, 
 F. Ding, F. Lipparini, F. Egidi, J. Goings, B. Peng, A. Petrone, 
 T. Henderson, D. Ranasinghe, V. G. Zakrzewski, J. Gao, N. Rega, 
 G. Zheng, W. Liang, M. Hada, M. Ehara, K. Toyota, R. Fukuda, 
 J. Hasegawa, M. Ishida, T. Nakajima, Y. Honda, O. Kitao, H. Nakai, 
 T. Vreven, K. Throssell, J. A. Montgomery, Jr., J. E. Peralta, 
 F. Ogliaro, M. J. Bearpark, J. J. Heyd, E. N. Brothers, K. N. Kudin, 
 V. N. Staroverov, T. A. Keith, R. Kobayashi, J. Normand, 
 K. Raghavachari, A. P. Rendell, J. C. Burant, S. S. Iyengar, 
 J. Tomasi, M. Cossi, J. M. Millam, M. Klene, C. Adamo, R. Cammi, 
 J. W. Ochterski, R. L. Martin, K. Morokuma, O. Farkas, 
 J. B. Foresman, and D. J. Fox, Gaussian, Inc., Wallingford CT, 2016.
 
 ******************************************
 Gaussian 16:  ES64L-G16RevA.03 25-Dec-2016
                11-Feb-2020 
 ******************************************
 %chk=checkpoint.chk
 %mem=3GB
 %nprocshared=4
 Will use up to    4 processors via shared memory.
 ---------------------------------------------------------------------
 #t pop=none jul-cc-pvdz guess=read upbe1pbe empiricaldispersion=gd3bj
 ---------------------------------------------------------------------
 -----------------------------
 theory_abbreviation pbe0_d3bj
 -----------------------------
 Symbolic Z-matrix:
 Charge =  0 Multiplicity = 6
 O                    -0.40641  -0.18685  -0.52684 
 C                    -1.42243  -1.20481  -0.36079 
 C                    -2.79102  -0.12528  -0.20559 
 C                    -1.95577   1.13149  -0.27396 
 C                    -1.86404   1.86946  -1.55792 
 Fe                    1.37569   0.04089   0.03532 
 Cl                    1.83659   2.01842  -0.84315 
 C                    -1.56631   1.85323   0.96226 
 Cl                    2.47855  -1.69322  -0.72782 
 Cl                    1.35372   0.15016   2.24628 
 H                    -3.38079  -0.22543  -1.12037 
 H                    -2.43462   2.46302   1.26032 
 H                    -1.32917   1.18174   1.78775 
 H                    -0.72306   2.52348   0.7825 
 H                    -2.66304   2.6291   -1.55099 
 H                    -0.90432   2.38608  -1.64364 
 H                    -2.02081   1.21675  -2.41801 
 C                    -3.66474  -0.32006   1.02322 
 H                    -4.4522    0.44134   1.07462 
 H                    -4.15625  -1.2963    0.973 
 H                    -3.09569  -0.28177   1.95494 
 C                    -1.18571  -2.04214   0.8769 
 H                    -2.00284  -2.75438   1.02928 
 H                    -0.2584   -2.61212   0.74407 
 H                    -1.06848  -1.42845   1.77195 
 C                    -1.51826  -2.02642  -1.62889 
 H                    -0.57062  -2.5555   -1.78177 
 H                    -2.32585  -2.7635   -1.56009 
 H                    -1.69151  -1.38633  -2.49877 
 
                    Distance matrix (angstroms):
                    1          2          3          4          5
     1  O    0.000000
     2  C    1.447793   0.000000
     3  C    2.406941   1.749999   0.000000
     4  C    2.049998   2.397970   1.510559   0.000000
     5  C    2.723282   3.328553   2.582074   1.483773   0.000000
     6  Fe   1.882489   3.088392   4.176975   3.519044   4.046968
     7  Cl   3.161376   4.609018   5.139714   3.936060   3.771963
     8  C    2.779336   3.335076   2.603508   1.483513   2.537757
     9  Cl   3.260752   3.948534   5.522637   5.277132   5.678013
    10  Cl   3.301785   4.042249   4.823521   4.274025   5.270854
    11  H    3.033270   2.317607   1.093017   2.142038   2.623082
    12  H    3.785417   4.135873   2.995858   2.087169   2.936046
    13  H    2.842857   3.212556   2.796188   2.155407   3.457247
    14  H    3.026638   3.961861   3.502666   2.138527   2.684611
    15  H    3.751113   4.201722   3.068072   2.091379   1.102493
    16  H    2.848712   3.848194   3.454643   2.134376   1.093297
    17  H    2.855335   3.233286   2.699835   2.146735   1.091039
    18  C    3.610701   2.779606   1.520297   2.590423   3.833913
    19  H    4.396331   3.734928   2.172442   2.920130   3.958335
    20  H    4.188280   3.043209   2.150398   3.505881   4.656379
    21  H    3.660657   3.002393   2.187500   2.874837   4.299410
    22  C    2.453544   1.512964   2.724552   3.462575   4.657163
    23  H    3.400334   2.161100   3.009700   4.098858   5.300265
    24  H    2.742084   2.134535   3.674290   4.234627   5.287896
    25  H    2.695240   2.173455   2.928491   3.395043   4.753652
    26  C    2.415521   1.514035   2.694448   3.464051   3.911842
    27  H    2.685570   2.137553   3.649727   4.217346   4.615551
    28  H    3.375050   2.164256   3.001883   4.118502   4.655924
    29  H    2.641729   2.162472   2.838635   3.370312   3.393394
                    6          7          8          9         10
     6  Fe   0.000000
     7  Cl   2.212408   0.000000
     8  C    3.577590   3.855711   0.000000
     9  Cl   2.192216   3.768506   5.638664   0.000000
    10  Cl   2.213763   3.642542   3.616036   3.675397   0.000000
    11  H    4.902109   5.686187   3.456945   6.053130   5.821594
    12  H    4.678224   4.781786   1.102108   6.735444   4.546747
    13  H    3.418890   4.200440   1.090214   5.393718   2.910723
    14  H    3.335609   3.074026   1.092071   5.505625   3.476824
    15  H    5.052379   4.595715   2.849771   6.767269   6.057945
    16  H    3.676585   2.878980   2.740959   5.378029   5.022900
    17  H    4.351746   4.242915   3.469568   5.618617   5.854967
    18  C    5.148999   6.262306   3.021644   6.533890   5.186706
    19  H    5.933365   6.761204   3.214719   7.472644   5.930115
    20  H    5.767988   7.085186   4.077676   6.860823   5.837230
    21  H    4.876703   6.119434   2.807599   6.345192   4.479806
    22  C    3.407056   5.346117   3.914852   4.015424   3.623544
    23  H    4.496215   6.405214   4.628726   4.929128   4.602600
    24  H    3.195470   5.324481   4.658065   3.240636   3.533516
    25  H    3.338981   5.211434   3.416554   4.347455   2.929851
    26  C    3.926619   5.313482   4.665621   4.110650   5.291758
    27  H    3.719027   5.253218   5.287527   3.339423   5.220040
    28  H    4.910328   6.380169   5.315387   4.992032   6.042937
    29  H    4.226852   5.175016   4.742265   4.540906   5.843771
                   11         12         13         14         15
    11  H    0.000000
    12  H    3.713575   0.000000
    13  H    3.827059   1.772530   0.000000
    14  H    4.270937   1.778032   1.782740   0.000000
    15  H    2.974710   2.825462   3.875721   3.036418   0.000000
    16  H    3.636853   3.283400   3.661331   2.436775   1.777845
    17  H    2.369246   3.905710   4.262395   3.692554   1.777332
    18  C    2.164385   3.052042   2.880069   4.098435   4.040735
    19  H    2.531888   2.862219   3.287864   4.281019   3.857618
    20  H    2.475941   4.144760   3.846670   5.139435   4.899892
    21  H    3.089002   2.907464   2.300083   3.856601   4.577317
    22  C    3.479647   4.690763   3.353155   4.589974   5.467874
    23  H    3.593792   5.240328   4.064743   5.436408   6.006285
    24  H    4.349918   5.546121   4.077889   5.156720   6.206444
    25  H    3.893529   4.155912   2.623221   4.088528   5.481627
    26  C    2.640302   5.416852   4.690570   5.210444   4.794832
    27  H    3.709955   6.157458   5.223389   5.691635   5.595666
    28  H    2.783541   5.939954   5.269375   6.000734   5.403136
    29  H    2.470092   5.431426   5.010035   5.195303   4.238604
                   16         17         18         19         20
    16  H    0.000000
    17  H    1.792632   0.000000
    18  C    4.696308   4.111745   0.000000
    19  H    4.874260   4.325673   1.096572   0.000000
    20  H    5.566128   4.730171   1.094139   1.765589   0.000000
    21  H    4.986907   4.745905   1.092417   1.771431   1.765862
    22  C    5.103084   4.708953   3.022017   4.108135   3.064254
    23  H    5.897082   5.258710   2.947515   4.026667   2.601219
    24  H    5.576772   5.269261   4.115170   5.198159   4.120321
    25  H    5.122874   5.045773   2.920564   3.928353   3.192199
    26  C    4.455032   3.375415   3.814804   4.691140   3.776490
    27  H    4.954757   4.091173   4.736956   5.675093   4.693729
    28  H    5.342836   4.083072   3.799547   4.661985   3.452480
    29  H    3.947400   2.625065   4.175521   4.871434   4.258663
                   21         22         23         24         25
    21  H    0.000000
    22  C    2.812313   0.000000
    23  H    2.857439   1.094627   0.000000
    24  H    3.866126   1.096547   1.773319   0.000000
    25  H    2.336222   1.091552   1.784010   1.764610   0.000000
    26  C    4.286709   2.527809   2.798321   2.749772   3.482184
    27  H    5.050621   2.776759   3.161142   2.545695   3.761257
    28  H    4.371164   2.785537   2.609459   3.099425   3.803403
    29  H    4.798669   3.475782   3.796789   3.751318   4.316132
                   26         27         28         29
    26  C    0.000000
    27  H    1.096050   0.000000
    28  H    1.095541   1.781357   0.000000
    29  H    1.093811   1.771283   1.783282   0.000000
 Framework group  C1[X(C8H16Cl3FeO)]
 Deg. of freedom    81
                         Standard orientation:                         
 ---------------------------------------------------------------------
 Center     Atomic      Atomic             Coordinates (Angstroms)
 Number     Number       Type             X           Y           Z
 ---------------------------------------------------------------------
      1          8           0       -0.406408   -0.186854   -0.526836
      2          6           0       -1.422434   -1.204805   -0.360793
      3          6           0       -2.791019   -0.125277   -0.205585
      4          6           0       -1.955766    1.131491   -0.273959
      5          6           0       -1.864037    1.869464   -1.557923
      6         26           0        1.375691    0.040890    0.035322
      7         17           0        1.836588    2.018415   -0.843154
      8          6           0       -1.566310    1.853229    0.962257
      9         17           0        2.478549   -1.693218   -0.727820
     10         17           0        1.353720    0.150162    2.246277
     11          1           0       -3.380792   -0.225425   -1.120366
     12          1           0       -2.434618    2.463017    1.260321
     13          1           0       -1.329171    1.181740    1.787747
     14          1           0       -0.723061    2.523480    0.782498
     15          1           0       -2.663038    2.629096   -1.550991
     16          1           0       -0.904319    2.386081   -1.643639
     17          1           0       -2.020805    1.216751   -2.418014
     18          6           0       -3.664741   -0.320064    1.023224
     19          1           0       -4.452200    0.441340    1.074621
     20          1           0       -4.156250   -1.296300    0.972999
     21          1           0       -3.095686   -0.281768    1.954935
     22          6           0       -1.185705   -2.042143    0.876900
     23          1           0       -2.002839   -2.754379    1.029280
     24          1           0       -0.258397   -2.612119    0.744072
     25          1           0       -1.068477   -1.428447    1.771953
     26          6           0       -1.518262   -2.026420   -1.628889
     27          1           0       -0.570617   -2.555496   -1.781770
     28          1           0       -2.325845   -2.763500   -1.560094
     29          1           0       -1.691510   -1.386326   -2.498767
 ---------------------------------------------------------------------
 Rotational constants (GHZ):           0.5708283           0.3626154           0.3248275
   427 basis functions,  1056 primitive gaussians,   461 cartesian basis functions
    77 alpha electrons       72 beta electrons
       nuclear repulsion energy      1659.9448616382 Hartrees.
 NAtoms=   29 NActive=   29 NUniq=   29 SFac= 1.00D+00 NAtFMM=   60 NAOKFM=F Big=F
 Nuclear repulsion after empirical dispersion term =     1659.9079483217 Hartrees.
 Initial guess from the checkpoint file:  "checkpoint.chk"
 B after Tr=     0.000000    0.000000    0.000000
         Rot=    1.000000    0.000000    0.000000    0.000000 Ang=   0.00 deg.
 Initial guess <Sx>= 0.0000 <Sy>= 0.0000 <Sz>= 2.5000 <S**2>= 8.7627 S= 2.5021
 SCF Done:  E(UPBE1PBE) =  -3033.15144089     A.U. after    1 cycles
            NFock=  1  Conv=0.26D-08     -V/T= 2.0022
 <Sx>= 0.0000 <Sy>= 0.0000 <Sz>= 2.5000 <S**2>= 8.7627 S= 2.5021
 <L.S>= 0.000000000000E+00
 Annihilation of the first spin contaminant:
 S**2 before annihilation     8.7627,   after     8.7501
 1\1\GINC-HOLY7C04509\SP\UPBE1PBE\Jul-CC-pVDZ\C8H16Cl3Fe1O1(6)\EKWAN\11
 -Feb-2020\0\\#t pop=none jul-cc-pvdz guess=read upbe1pbe empiricaldisp
 ersion=gd3bj\\theory_abbreviation pbe0_d3bj\\0,6\O,0,-0.406408,-0.1868
 54,-0.526836\C,0,-1.422434,-1.204805,-0.360793\C,0,-2.791019,-0.125277
 ,-0.205585\C,0,-1.955766,1.131491,-0.273959\C,0,-1.864037,1.869464,-1.
 557923\Fe,0,1.375691,0.04089,0.035322\Cl,0,1.836588,2.018415,-0.843154
 \C,0,-1.56631,1.853229,0.962257\Cl,0,2.478549,-1.693218,-0.72782\Cl,0,
 1.35372,0.150162,2.246277\H,0,-3.380792,-0.225425,-1.120366\H,0,-2.434
 618,2.463017,1.260321\H,0,-1.329171,1.18174,1.787747\H,0,-0.723061,2.5
 2348,0.782498\H,0,-2.663038,2.629096,-1.550991\H,0,-0.904319,2.386081,
 -1.643639\H,0,-2.020805,1.216751,-2.418014\C,0,-3.664741,-0.320064,1.0
 23224\H,0,-4.4522,0.44134,1.074621\H,0,-4.15625,-1.2963,0.972999\H,0,-
 3.095686,-0.281768,1.954935\C,0,-1.185705,-2.042143,0.8769\H,0,-2.0028
 39,-2.754379,1.02928\H,0,-0.258397,-2.612119,0.744072\H,0,-1.068477,-1
 .428447,1.771953\C,0,-1.518262,-2.02642,-1.628889\H,0,-0.570617,-2.555
 496,-1.78177\H,0,-2.325845,-2.7635,-1.560094\H,0,-1.69151,-1.386326,-2
 .498767\\Version=ES64L-G16RevA.03\HF=-3033.1514409\S2=8.762692\S2-1=0.
 \S2A=8.75005\RMSD=2.646e-09\PG=C01 [X(C8H16Cl3Fe1O1)]\\@


 STEINBACH'S GUIDELINES FOR SYSTEMS PROGRAMMING:
 NEVER TEST FOR AN ERROR CONDITION YOU DON'T KNOW HOW
 TO HANDLE.
 Job cpu time:       0 days  0 hours  4 minutes 58.6 seconds.
 Elapsed time:       0 days  0 hours  1 minutes 18.0 seconds.
 File lengths (MBytes):  RWF=    170 Int=      0 D2E=      0 Chk=     13 Scr=      1
 Normal termination of Gaussian 16 at Tue Feb 11 13:58:02 2020.
 Initial command:
 /n/sw/g16_nehalem/g16/l1.exe "/scratch/Gau-180298.inp" -scrdir="/scratch/"
 Entering Link 1 = /n/sw/g16_nehalem/g16/l1.exe PID=    182363.
  
 Copyright (c) 1988,1990,1992,1993,1995,1998,2003,2009,2016,
            Gaussian, Inc.  All Rights Reserved.
  
 This is part of the Gaussian(R) 16 program.  It is based on
 the Gaussian(R) 09 system (copyright 2009, Gaussian, Inc.),
 the Gaussian(R) 03 system (copyright 2003, Gaussian, Inc.),
 the Gaussian(R) 98 system (copyright 1998, Gaussian, Inc.),
 the Gaussian(R) 94 system (copyright 1995, Gaussian, Inc.),
 the Gaussian 92(TM) system (copyright 1992, Gaussian, Inc.),
 the Gaussian 90(TM) system (copyright 1990, Gaussian, Inc.),
 the Gaussian 88(TM) system (copyright 1988, Gaussian, Inc.),
 the Gaussian 86(TM) system (copyright 1986, Carnegie Mellon
 University), and the Gaussian 82(TM) system (copyright 1983,
 Carnegie Mellon University). Gaussian is a federally registered
 trademark of Gaussian, Inc.
  
 This software contains proprietary and confidential information,
 including trade secrets, belonging to Gaussian, Inc.
  
 This software is provided under written license and may be
 used, copied, transmitted, or stored only in accord with that
 written license.
  
 The following legend is applicable only to US Government
 contracts under FAR:
  
                    RESTRICTED RIGHTS LEGEND
  
 Use, reproduction and disclosure by the US Government is
 subject to restrictions as set forth in subparagraphs (a)
 and (c) of the Commercial Computer Software - Restricted
 Rights clause in FAR 52.227-19.
  
 Gaussian, Inc.
 340 Quinnipiac St., Bldg. 40, Wallingford CT 06492
  
  
 ---------------------------------------------------------------
 Warning -- This program may not be used in any manner that
 competes with the business of Gaussian, Inc. or will provide
 assistance to any competitor of Gaussian, Inc.  The licensee
 of this program is prohibited from giving any competitor of
 Gaussian, Inc. access to this program.  By using this program,
 the user acknowledges that Gaussian, Inc. is engaged in the
 business of creating and licensing software in the field of
 computational chemistry and represents and warrants to the
 licensee that it is not a competitor of Gaussian, Inc. and that
 it will not use this program in any manner prohibited above.
 ---------------------------------------------------------------
  

 Cite this work as:
 Gaussian 16, Revision A.03,
 M. J. Frisch, G. W. Trucks, H. B. Schlegel, G. E. Scuseria, 
 M. A. Robb, J. R. Cheeseman, G. Scalmani, V. Barone, 
 G. A. Petersson, H. Nakatsuji, X. Li, M. Caricato, A. V. Marenich, 
 J. Bloino, B. G. Janesko, R. Gomperts, B. Mennucci, H. P. Hratchian, 
 J. V. Ortiz, A. F. Izmaylov, J. L. Sonnenberg, D. Williams-Young, 
 F. Ding, F. Lipparini, F. Egidi, J. Goings, B. Peng, A. Petrone, 
 T. Henderson, D. Ranasinghe, V. G. Zakrzewski, J. Gao, N. Rega, 
 G. Zheng, W. Liang, M. Hada, M. Ehara, K. Toyota, R. Fukuda, 
 J. Hasegawa, M. Ishida, T. Nakajima, Y. Honda, O. Kitao, H. Nakai, 
 T. Vreven, K. Throssell, J. A. Montgomery, Jr., J. E. Peralta, 
 F. Ogliaro, M. J. Bearpark, J. J. Heyd, E. N. Brothers, K. N. Kudin, 
 V. N. Staroverov, T. A. Keith, R. Kobayashi, J. Normand, 
 K. Raghavachari, A. P. Rendell, J. C. Burant, S. S. Iyengar, 
 J. Tomasi, M. Cossi, J. M. Millam, M. Klene, C. Adamo, R. Cammi, 
 J. W. Ochterski, R. L. Martin, K. Morokuma, O. Farkas, 
 J. B. Foresman, and D. J. Fox, Gaussian, Inc., Wallingford CT, 2016.
 
 ******************************************
 Gaussian 16:  ES64L-G16RevA.03 25-Dec-2016
                11-Feb-2020 
 ******************************************
 %chk=checkpoint.chk
 %mem=3GB
 %nprocshared=4
 Will use up to    4 processors via shared memory.
 -----------------------------------------
 #t pop=none jul-cc-pvdz guess=read ub3lyp
 -----------------------------------------
 -------------------------
 theory_abbreviation b3lyp
 -------------------------
 Symbolic Z-matrix:
 Charge =  0 Multiplicity = 6
 O                    -0.40641  -0.18685  -0.52684 
 C                    -1.42243  -1.20481  -0.36079 
 C                    -2.79102  -0.12528  -0.20559 
 C                    -1.95577   1.13149  -0.27396 
 C                    -1.86404   1.86946  -1.55792 
 Fe                    1.37569   0.04089   0.03532 
 Cl                    1.83659   2.01842  -0.84315 
 C                    -1.56631   1.85323   0.96226 
 Cl                    2.47855  -1.69322  -0.72782 
 Cl                    1.35372   0.15016   2.24628 
 H                    -3.38079  -0.22543  -1.12037 
 H                    -2.43462   2.46302   1.26032 
 H                    -1.32917   1.18174   1.78775 
 H                    -0.72306   2.52348   0.7825 
 H                    -2.66304   2.6291   -1.55099 
 H                    -0.90432   2.38608  -1.64364 
 H                    -2.02081   1.21675  -2.41801 
 C                    -3.66474  -0.32006   1.02322 
 H                    -4.4522    0.44134   1.07462 
 H                    -4.15625  -1.2963    0.973 
 H                    -3.09569  -0.28177   1.95494 
 C                    -1.18571  -2.04214   0.8769 
 H                    -2.00284  -2.75438   1.02928 
 H                    -0.2584   -2.61212   0.74407 
 H                    -1.06848  -1.42845   1.77195 
 C                    -1.51826  -2.02642  -1.62889 
 H                    -0.57062  -2.5555   -1.78177 
 H                    -2.32585  -2.7635   -1.56009 
 H                    -1.69151  -1.38633  -2.49877 
 
                    Distance matrix (angstroms):
                    1          2          3          4          5
     1  O    0.000000
     2  C    1.447793   0.000000
     3  C    2.406941   1.749999   0.000000
     4  C    2.049998   2.397970   1.510559   0.000000
     5  C    2.723282   3.328553   2.582074   1.483773   0.000000
     6  Fe   1.882489   3.088392   4.176975   3.519044   4.046968
     7  Cl   3.161376   4.609018   5.139714   3.936060   3.771963
     8  C    2.779336   3.335076   2.603508   1.483513   2.537757
     9  Cl   3.260752   3.948534   5.522637   5.277132   5.678013
    10  Cl   3.301785   4.042249   4.823521   4.274025   5.270854
    11  H    3.033270   2.317607   1.093017   2.142038   2.623082
    12  H    3.785417   4.135873   2.995858   2.087169   2.936046
    13  H    2.842857   3.212556   2.796188   2.155407   3.457247
    14  H    3.026638   3.961861   3.502666   2.138527   2.684611
    15  H    3.751113   4.201722   3.068072   2.091379   1.102493
    16  H    2.848712   3.848194   3.454643   2.134376   1.093297
    17  H    2.855335   3.233286   2.699835   2.146735   1.091039
    18  C    3.610701   2.779606   1.520297   2.590423   3.833913
    19  H    4.396331   3.734928   2.172442   2.920130   3.958335
    20  H    4.188280   3.043209   2.150398   3.505881   4.656379
    21  H    3.660657   3.002393   2.187500   2.874837   4.299410
    22  C    2.453544   1.512964   2.724552   3.462575   4.657163
    23  H    3.400334   2.161100   3.009700   4.098858   5.300265
    24  H    2.742084   2.134535   3.674290   4.234627   5.287896
    25  H    2.695240   2.173455   2.928491   3.395043   4.753652
    26  C    2.415521   1.514035   2.694448   3.464051   3.911842
    27  H    2.685570   2.137553   3.649727   4.217346   4.615551
    28  H    3.375050   2.164256   3.001883   4.118502   4.655924
    29  H    2.641729   2.162472   2.838635   3.370312   3.393394
                    6          7          8          9         10
     6  Fe   0.000000
     7  Cl   2.212408   0.000000
     8  C    3.577590   3.855711   0.000000
     9  Cl   2.192216   3.768506   5.638664   0.000000
    10  Cl   2.213763   3.642542   3.616036   3.675397   0.000000
    11  H    4.902109   5.686187   3.456945   6.053130   5.821594
    12  H    4.678224   4.781786   1.102108   6.735444   4.546747
    13  H    3.418890   4.200440   1.090214   5.393718   2.910723
    14  H    3.335609   3.074026   1.092071   5.505625   3.476824
    15  H    5.052379   4.595715   2.849771   6.767269   6.057945
    16  H    3.676585   2.878980   2.740959   5.378029   5.022900
    17  H    4.351746   4.242915   3.469568   5.618617   5.854967
    18  C    5.148999   6.262306   3.021644   6.533890   5.186706
    19  H    5.933365   6.761204   3.214719   7.472644   5.930115
    20  H    5.767988   7.085186   4.077676   6.860823   5.837230
    21  H    4.876703   6.119434   2.807599   6.345192   4.479806
    22  C    3.407056   5.346117   3.914852   4.015424   3.623544
    23  H    4.496215   6.405214   4.628726   4.929128   4.602600
    24  H    3.195470   5.324481   4.658065   3.240636   3.533516
    25  H    3.338981   5.211434   3.416554   4.347455   2.929851
    26  C    3.926619   5.313482   4.665621   4.110650   5.291758
    27  H    3.719027   5.253218   5.287527   3.339423   5.220040
    28  H    4.910328   6.380169   5.315387   4.992032   6.042937
    29  H    4.226852   5.175016   4.742265   4.540906   5.843771
                   11         12         13         14         15
    11  H    0.000000
    12  H    3.713575   0.000000
    13  H    3.827059   1.772530   0.000000
    14  H    4.270937   1.778032   1.782740   0.000000
    15  H    2.974710   2.825462   3.875721   3.036418   0.000000
    16  H    3.636853   3.283400   3.661331   2.436775   1.777845
    17  H    2.369246   3.905710   4.262395   3.692554   1.777332
    18  C    2.164385   3.052042   2.880069   4.098435   4.040735
    19  H    2.531888   2.862219   3.287864   4.281019   3.857618
    20  H    2.475941   4.144760   3.846670   5.139435   4.899892
    21  H    3.089002   2.907464   2.300083   3.856601   4.577317
    22  C    3.479647   4.690763   3.353155   4.589974   5.467874
    23  H    3.593792   5.240328   4.064743   5.436408   6.006285
    24  H    4.349918   5.546121   4.077889   5.156720   6.206444
    25  H    3.893529   4.155912   2.623221   4.088528   5.481627
    26  C    2.640302   5.416852   4.690570   5.210444   4.794832
    27  H    3.709955   6.157458   5.223389   5.691635   5.595666
    28  H    2.783541   5.939954   5.269375   6.000734   5.403136
    29  H    2.470092   5.431426   5.010035   5.195303   4.238604
                   16         17         18         19         20
    16  H    0.000000
    17  H    1.792632   0.000000
    18  C    4.696308   4.111745   0.000000
    19  H    4.874260   4.325673   1.096572   0.000000
    20  H    5.566128   4.730171   1.094139   1.765589   0.000000
    21  H    4.986907   4.745905   1.092417   1.771431   1.765862
    22  C    5.103084   4.708953   3.022017   4.108135   3.064254
    23  H    5.897082   5.258710   2.947515   4.026667   2.601219
    24  H    5.576772   5.269261   4.115170   5.198159   4.120321
    25  H    5.122874   5.045773   2.920564   3.928353   3.192199
    26  C    4.455032   3.375415   3.814804   4.691140   3.776490
    27  H    4.954757   4.091173   4.736956   5.675093   4.693729
    28  H    5.342836   4.083072   3.799547   4.661985   3.452480
    29  H    3.947400   2.625065   4.175521   4.871434   4.258663
                   21         22         23         24         25
    21  H    0.000000
    22  C    2.812313   0.000000
    23  H    2.857439   1.094627   0.000000
    24  H    3.866126   1.096547   1.773319   0.000000
    25  H    2.336222   1.091552   1.784010   1.764610   0.000000
    26  C    4.286709   2.527809   2.798321   2.749772   3.482184
    27  H    5.050621   2.776759   3.161142   2.545695   3.761257
    28  H    4.371164   2.785537   2.609459   3.099425   3.803403
    29  H    4.798669   3.475782   3.796789   3.751318   4.316132
                   26         27         28         29
    26  C    0.000000
    27  H    1.096050   0.000000
    28  H    1.095541   1.781357   0.000000
    29  H    1.093811   1.771283   1.783282   0.000000
 Framework group  C1[X(C8H16Cl3FeO)]
 Deg. of freedom    81
                         Standard orientation:                         
 ---------------------------------------------------------------------
 Center     Atomic      Atomic             Coordinates (Angstroms)
 Number     Number       Type             X           Y           Z
 ---------------------------------------------------------------------
      1          8           0       -0.406408   -0.186854   -0.526836
      2          6           0       -1.422434   -1.204805   -0.360793
      3          6           0       -2.791019   -0.125277   -0.205585
      4          6           0       -1.955766    1.131491   -0.273959
      5          6           0       -1.864037    1.869464   -1.557923
      6         26           0        1.375691    0.040890    0.035322
      7         17           0        1.836588    2.018415   -0.843154
      8          6           0       -1.566310    1.853229    0.962257
      9         17           0        2.478549   -1.693218   -0.727820
     10         17           0        1.353720    0.150162    2.246277
     11          1           0       -3.380792   -0.225425   -1.120366
     12          1           0       -2.434618    2.463017    1.260321
     13          1           0       -1.329171    1.181740    1.787747
     14          1           0       -0.723061    2.523480    0.782498
     15          1           0       -2.663038    2.629096   -1.550991
     16          1           0       -0.904319    2.386081   -1.643639
     17          1           0       -2.020805    1.216751   -2.418014
     18          6           0       -3.664741   -0.320064    1.023224
     19          1           0       -4.452200    0.441340    1.074621
     20          1           0       -4.156250   -1.296300    0.972999
     21          1           0       -3.095686   -0.281768    1.954935
     22          6           0       -1.185705   -2.042143    0.876900
     23          1           0       -2.002839   -2.754379    1.029280
     24          1           0       -0.258397   -2.612119    0.744072
     25          1           0       -1.068477   -1.428447    1.771953
     26          6           0       -1.518262   -2.026420   -1.628889
     27          1           0       -0.570617   -2.555496   -1.781770
     28          1           0       -2.325845   -2.763500   -1.560094
     29          1           0       -1.691510   -1.386326   -2.498767
 ---------------------------------------------------------------------
 Rotational constants (GHZ):           0.5708283           0.3626154           0.3248275
   427 basis functions,  1056 primitive gaussians,   461 cartesian basis functions
    77 alpha electrons       72 beta electrons
       nuclear repulsion energy      1659.9448616382 Hartrees.
 NAtoms=   29 NActive=   29 NUniq=   29 SFac= 1.00D+00 NAtFMM=   60 NAOKFM=F Big=F
 Initial guess from the checkpoint file:  "checkpoint.chk"
 B after Tr=     0.000000    0.000000    0.000000
         Rot=    1.000000    0.000000    0.000000    0.000000 Ang=   0.00 deg.
 Initial guess <Sx>= 0.0000 <Sy>= 0.0000 <Sz>= 2.5000 <S**2>= 8.7627 S= 2.5021
 SCF Done:  E(UB3LYP) =  -3034.32765125     A.U. after   13 cycles
            NFock= 13  Conv=0.71D-08     -V/T= 2.0025
 <Sx>= 0.0000 <Sy>= 0.0000 <Sz>= 2.5000 <S**2>= 8.7620 S= 2.5020
 <L.S>= 0.000000000000E+00
 Annihilation of the first spin contaminant:
 S**2 before annihilation     8.7620,   after     8.7500
 1\1\GINC-HOLY7C04509\SP\UB3LYP\Jul-CC-pVDZ\C8H16Cl3Fe1O1(6)\EKWAN\11-F
 eb-2020\0\\#t pop=none jul-cc-pvdz guess=read ub3lyp\\theory_abbreviat
 ion b3lyp\\0,6\O,0,-0.406408,-0.186854,-0.526836\C,0,-1.422434,-1.2048
 05,-0.360793\C,0,-2.791019,-0.125277,-0.205585\C,0,-1.955766,1.131491,
 -0.273959\C,0,-1.864037,1.869464,-1.557923\Fe,0,1.375691,0.04089,0.035
 322\Cl,0,1.836588,2.018415,-0.843154\C,0,-1.56631,1.853229,0.962257\Cl
 ,0,2.478549,-1.693218,-0.72782\Cl,0,1.35372,0.150162,2.246277\H,0,-3.3
 80792,-0.225425,-1.120366\H,0,-2.434618,2.463017,1.260321\H,0,-1.32917
 1,1.18174,1.787747\H,0,-0.723061,2.52348,0.782498\H,0,-2.663038,2.6290
 96,-1.550991\H,0,-0.904319,2.386081,-1.643639\H,0,-2.020805,1.216751,-
 2.418014\C,0,-3.664741,-0.320064,1.023224\H,0,-4.4522,0.44134,1.074621
 \H,0,-4.15625,-1.2963,0.972999\H,0,-3.095686,-0.281768,1.954935\C,0,-1
 .185705,-2.042143,0.8769\H,0,-2.002839,-2.754379,1.02928\H,0,-0.258397
 ,-2.612119,0.744072\H,0,-1.068477,-1.428447,1.771953\C,0,-1.518262,-2.
 02642,-1.628889\H,0,-0.570617,-2.555496,-1.78177\H,0,-2.325845,-2.7635
 ,-1.560094\H,0,-1.69151,-1.386326,-2.498767\\Version=ES64L-G16RevA.03\
 HF=-3034.3276512\S2=8.762017\S2-1=0.\S2A=8.750045\RMSD=7.124e-09\PG=C0
 1 [X(C8H16Cl3Fe1O1)]\\@


 LOGIC IS A SYSTEMATIC METHOD OF COMING TO THE
 WRONG CONCLUSION WITH CONFIDENCE.
 Job cpu time:       0 days  0 hours 54 minutes 20.4 seconds.
 Elapsed time:       0 days  0 hours 13 minutes 38.5 seconds.
 File lengths (MBytes):  RWF=    174 Int=      0 D2E=      0 Chk=     13 Scr=      1
 Normal termination of Gaussian 16 at Tue Feb 11 14:11:41 2020.
 Initial command:
 /n/sw/g16_nehalem/g16/l1.exe "/scratch/Gau-180298.inp" -scrdir="/scratch/"
 Entering Link 1 = /n/sw/g16_nehalem/g16/l1.exe PID=    183375.
  
 Copyright (c) 1988,1990,1992,1993,1995,1998,2003,2009,2016,
            Gaussian, Inc.  All Rights Reserved.
  
 This is part of the Gaussian(R) 16 program.  It is based on
 the Gaussian(R) 09 system (copyright 2009, Gaussian, Inc.),
 the Gaussian(R) 03 system (copyright 2003, Gaussian, Inc.),
 the Gaussian(R) 98 system (copyright 1998, Gaussian, Inc.),
 the Gaussian(R) 94 system (copyright 1995, Gaussian, Inc.),
 the Gaussian 92(TM) system (copyright 1992, Gaussian, Inc.),
 the Gaussian 90(TM) system (copyright 1990, Gaussian, Inc.),
 the Gaussian 88(TM) system (copyright 1988, Gaussian, Inc.),
 the Gaussian 86(TM) system (copyright 1986, Carnegie Mellon
 University), and the Gaussian 82(TM) system (copyright 1983,
 Carnegie Mellon University). Gaussian is a federally registered
 trademark of Gaussian, Inc.
  
 This software contains proprietary and confidential information,
 including trade secrets, belonging to Gaussian, Inc.
  
 This software is provided under written license and may be
 used, copied, transmitted, or stored only in accord with that
 written license.
  
 The following legend is applicable only to US Government
 contracts under FAR:
  
                    RESTRICTED RIGHTS LEGEND
  
 Use, reproduction and disclosure by the US Government is
 subject to restrictions as set forth in subparagraphs (a)
 and (c) of the Commercial Computer Software - Restricted
 Rights clause in FAR 52.227-19.
  
 Gaussian, Inc.
 340 Quinnipiac St., Bldg. 40, Wallingford CT 06492
  
  
 ---------------------------------------------------------------
 Warning -- This program may not be used in any manner that
 competes with the business of Gaussian, Inc. or will provide
 assistance to any competitor of Gaussian, Inc.  The licensee
 of this program is prohibited from giving any competitor of
 Gaussian, Inc. access to this program.  By using this program,
 the user acknowledges that Gaussian, Inc. is engaged in the
 business of creating and licensing software in the field of
 computational chemistry and represents and warrants to the
 licensee that it is not a competitor of Gaussian, Inc. and that
 it will not use this program in any manner prohibited above.
 ---------------------------------------------------------------
  

 Cite this work as:
 Gaussian 16, Revision A.03,
 M. J. Frisch, G. W. Trucks, H. B. Schlegel, G. E. Scuseria, 
 M. A. Robb, J. R. Cheeseman, G. Scalmani, V. Barone, 
 G. A. Petersson, H. Nakatsuji, X. Li, M. Caricato, A. V. Marenich, 
 J. Bloino, B. G. Janesko, R. Gomperts, B. Mennucci, H. P. Hratchian, 
 J. V. Ortiz, A. F. Izmaylov, J. L. Sonnenberg, D. Williams-Young, 
 F. Ding, F. Lipparini, F. Egidi, J. Goings, B. Peng, A. Petrone, 
 T. Henderson, D. Ranasinghe, V. G. Zakrzewski, J. Gao, N. Rega, 
 G. Zheng, W. Liang, M. Hada, M. Ehara, K. Toyota, R. Fukuda, 
 J. Hasegawa, M. Ishida, T. Nakajima, Y. Honda, O. Kitao, H. Nakai, 
 T. Vreven, K. Throssell, J. A. Montgomery, Jr., J. E. Peralta, 
 F. Ogliaro, M. J. Bearpark, J. J. Heyd, E. N. Brothers, K. N. Kudin, 
 V. N. Staroverov, T. A. Keith, R. Kobayashi, J. Normand, 
 K. Raghavachari, A. P. Rendell, J. C. Burant, S. S. Iyengar, 
 J. Tomasi, M. Cossi, J. M. Millam, M. Klene, C. Adamo, R. Cammi, 
 J. W. Ochterski, R. L. Martin, K. Morokuma, O. Farkas, 
 J. B. Foresman, and D. J. Fox, Gaussian, Inc., Wallingford CT, 2016.
 
 ******************************************
 Gaussian 16:  ES64L-G16RevA.03 25-Dec-2016
                11-Feb-2020 
 ******************************************
 %chk=checkpoint.chk
 %mem=3GB
 %nprocshared=4
 Will use up to    4 processors via shared memory.
 -------------------------------------------------------------------
 #t pop=none jul-cc-pvdz guess=read ub3lyp empiricaldispersion=gd3bj
 -------------------------------------------------------------------
 ------------------------------
 theory_abbreviation b3lyp_d3bj
 ------------------------------
 Symbolic Z-matrix:
 Charge =  0 Multiplicity = 6
 O                    -0.40641  -0.18685  -0.52684 
 C                    -1.42243  -1.20481  -0.36079 
 C                    -2.79102  -0.12528  -0.20559 
 C                    -1.95577   1.13149  -0.27396 
 C                    -1.86404   1.86946  -1.55792 
 Fe                    1.37569   0.04089   0.03532 
 Cl                    1.83659   2.01842  -0.84315 
 C                    -1.56631   1.85323   0.96226 
 Cl                    2.47855  -1.69322  -0.72782 
 Cl                    1.35372   0.15016   2.24628 
 H                    -3.38079  -0.22543  -1.12037 
 H                    -2.43462   2.46302   1.26032 
 H                    -1.32917   1.18174   1.78775 
 H                    -0.72306   2.52348   0.7825 
 H                    -2.66304   2.6291   -1.55099 
 H                    -0.90432   2.38608  -1.64364 
 H                    -2.02081   1.21675  -2.41801 
 C                    -3.66474  -0.32006   1.02322 
 H                    -4.4522    0.44134   1.07462 
 H                    -4.15625  -1.2963    0.973 
 H                    -3.09569  -0.28177   1.95494 
 C                    -1.18571  -2.04214   0.8769 
 H                    -2.00284  -2.75438   1.02928 
 H                    -0.2584   -2.61212   0.74407 
 H                    -1.06848  -1.42845   1.77195 
 C                    -1.51826  -2.02642  -1.62889 
 H                    -0.57062  -2.5555   -1.78177 
 H                    -2.32585  -2.7635   -1.56009 
 H                    -1.69151  -1.38633  -2.49877 
 
                    Distance matrix (angstroms):
                    1          2          3          4          5
     1  O    0.000000
     2  C    1.447793   0.000000
     3  C    2.406941   1.749999   0.000000
     4  C    2.049998   2.397970   1.510559   0.000000
     5  C    2.723282   3.328553   2.582074   1.483773   0.000000
     6  Fe   1.882489   3.088392   4.176975   3.519044   4.046968
     7  Cl   3.161376   4.609018   5.139714   3.936060   3.771963
     8  C    2.779336   3.335076   2.603508   1.483513   2.537757
     9  Cl   3.260752   3.948534   5.522637   5.277132   5.678013
    10  Cl   3.301785   4.042249   4.823521   4.274025   5.270854
    11  H    3.033270   2.317607   1.093017   2.142038   2.623082
    12  H    3.785417   4.135873   2.995858   2.087169   2.936046
    13  H    2.842857   3.212556   2.796188   2.155407   3.457247
    14  H    3.026638   3.961861   3.502666   2.138527   2.684611
    15  H    3.751113   4.201722   3.068072   2.091379   1.102493
    16  H    2.848712   3.848194   3.454643   2.134376   1.093297
    17  H    2.855335   3.233286   2.699835   2.146735   1.091039
    18  C    3.610701   2.779606   1.520297   2.590423   3.833913
    19  H    4.396331   3.734928   2.172442   2.920130   3.958335
    20  H    4.188280   3.043209   2.150398   3.505881   4.656379
    21  H    3.660657   3.002393   2.187500   2.874837   4.299410
    22  C    2.453544   1.512964   2.724552   3.462575   4.657163
    23  H    3.400334   2.161100   3.009700   4.098858   5.300265
    24  H    2.742084   2.134535   3.674290   4.234627   5.287896
    25  H    2.695240   2.173455   2.928491   3.395043   4.753652
    26  C    2.415521   1.514035   2.694448   3.464051   3.911842
    27  H    2.685570   2.137553   3.649727   4.217346   4.615551
    28  H    3.375050   2.164256   3.001883   4.118502   4.655924
    29  H    2.641729   2.162472   2.838635   3.370312   3.393394
                    6          7          8          9         10
     6  Fe   0.000000
     7  Cl   2.212408   0.000000
     8  C    3.577590   3.855711   0.000000
     9  Cl   2.192216   3.768506   5.638664   0.000000
    10  Cl   2.213763   3.642542   3.616036   3.675397   0.000000
    11  H    4.902109   5.686187   3.456945   6.053130   5.821594
    12  H    4.678224   4.781786   1.102108   6.735444   4.546747
    13  H    3.418890   4.200440   1.090214   5.393718   2.910723
    14  H    3.335609   3.074026   1.092071   5.505625   3.476824
    15  H    5.052379   4.595715   2.849771   6.767269   6.057945
    16  H    3.676585   2.878980   2.740959   5.378029   5.022900
    17  H    4.351746   4.242915   3.469568   5.618617   5.854967
    18  C    5.148999   6.262306   3.021644   6.533890   5.186706
    19  H    5.933365   6.761204   3.214719   7.472644   5.930115
    20  H    5.767988   7.085186   4.077676   6.860823   5.837230
    21  H    4.876703   6.119434   2.807599   6.345192   4.479806
    22  C    3.407056   5.346117   3.914852   4.015424   3.623544
    23  H    4.496215   6.405214   4.628726   4.929128   4.602600
    24  H    3.195470   5.324481   4.658065   3.240636   3.533516
    25  H    3.338981   5.211434   3.416554   4.347455   2.929851
    26  C    3.926619   5.313482   4.665621   4.110650   5.291758
    27  H    3.719027   5.253218   5.287527   3.339423   5.220040
    28  H    4.910328   6.380169   5.315387   4.992032   6.042937
    29  H    4.226852   5.175016   4.742265   4.540906   5.843771
                   11         12         13         14         15
    11  H    0.000000
    12  H    3.713575   0.000000
    13  H    3.827059   1.772530   0.000000
    14  H    4.270937   1.778032   1.782740   0.000000
    15  H    2.974710   2.825462   3.875721   3.036418   0.000000
    16  H    3.636853   3.283400   3.661331   2.436775   1.777845
    17  H    2.369246   3.905710   4.262395   3.692554   1.777332
    18  C    2.164385   3.052042   2.880069   4.098435   4.040735
    19  H    2.531888   2.862219   3.287864   4.281019   3.857618
    20  H    2.475941   4.144760   3.846670   5.139435   4.899892
    21  H    3.089002   2.907464   2.300083   3.856601   4.577317
    22  C    3.479647   4.690763   3.353155   4.589974   5.467874
    23  H    3.593792   5.240328   4.064743   5.436408   6.006285
    24  H    4.349918   5.546121   4.077889   5.156720   6.206444
    25  H    3.893529   4.155912   2.623221   4.088528   5.481627
    26  C    2.640302   5.416852   4.690570   5.210444   4.794832
    27  H    3.709955   6.157458   5.223389   5.691635   5.595666
    28  H    2.783541   5.939954   5.269375   6.000734   5.403136
    29  H    2.470092   5.431426   5.010035   5.195303   4.238604
                   16         17         18         19         20
    16  H    0.000000
    17  H    1.792632   0.000000
    18  C    4.696308   4.111745   0.000000
    19  H    4.874260   4.325673   1.096572   0.000000
    20  H    5.566128   4.730171   1.094139   1.765589   0.000000
    21  H    4.986907   4.745905   1.092417   1.771431   1.765862
    22  C    5.103084   4.708953   3.022017   4.108135   3.064254
    23  H    5.897082   5.258710   2.947515   4.026667   2.601219
    24  H    5.576772   5.269261   4.115170   5.198159   4.120321
    25  H    5.122874   5.045773   2.920564   3.928353   3.192199
    26  C    4.455032   3.375415   3.814804   4.691140   3.776490
    27  H    4.954757   4.091173   4.736956   5.675093   4.693729
    28  H    5.342836   4.083072   3.799547   4.661985   3.452480
    29  H    3.947400   2.625065   4.175521   4.871434   4.258663
                   21         22         23         24         25
    21  H    0.000000
    22  C    2.812313   0.000000
    23  H    2.857439   1.094627   0.000000
    24  H    3.866126   1.096547   1.773319   0.000000
    25  H    2.336222   1.091552   1.784010   1.764610   0.000000
    26  C    4.286709   2.527809   2.798321   2.749772   3.482184
    27  H    5.050621   2.776759   3.161142   2.545695   3.761257
    28  H    4.371164   2.785537   2.609459   3.099425   3.803403
    29  H    4.798669   3.475782   3.796789   3.751318   4.316132
                   26         27         28         29
    26  C    0.000000
    27  H    1.096050   0.000000
    28  H    1.095541   1.781357   0.000000
    29  H    1.093811   1.771283   1.783282   0.000000
 Framework group  C1[X(C8H16Cl3FeO)]
 Deg. of freedom    81
                         Standard orientation:                         
 ---------------------------------------------------------------------
 Center     Atomic      Atomic             Coordinates (Angstroms)
 Number     Number       Type             X           Y           Z
 ---------------------------------------------------------------------
      1          8           0       -0.406408   -0.186854   -0.526836
      2          6           0       -1.422434   -1.204805   -0.360793
      3          6           0       -2.791019   -0.125277   -0.205585
      4          6           0       -1.955766    1.131491   -0.273959
      5          6           0       -1.864037    1.869464   -1.557923
      6         26           0        1.375691    0.040890    0.035322
      7         17           0        1.836588    2.018415   -0.843154
      8          6           0       -1.566310    1.853229    0.962257
      9         17           0        2.478549   -1.693218   -0.727820
     10         17           0        1.353720    0.150162    2.246277
     11          1           0       -3.380792   -0.225425   -1.120366
     12          1           0       -2.434618    2.463017    1.260321
     13          1           0       -1.329171    1.181740    1.787747
     14          1           0       -0.723061    2.523480    0.782498
     15          1           0       -2.663038    2.629096   -1.550991
     16          1           0       -0.904319    2.386081   -1.643639
     17          1           0       -2.020805    1.216751   -2.418014
     18          6           0       -3.664741   -0.320064    1.023224
     19          1           0       -4.452200    0.441340    1.074621
     20          1           0       -4.156250   -1.296300    0.972999
     21          1           0       -3.095686   -0.281768    1.954935
     22          6           0       -1.185705   -2.042143    0.876900
     23          1           0       -2.002839   -2.754379    1.029280
     24          1           0       -0.258397   -2.612119    0.744072
     25          1           0       -1.068477   -1.428447    1.771953
     26          6           0       -1.518262   -2.026420   -1.628889
     27          1           0       -0.570617   -2.555496   -1.781770
     28          1           0       -2.325845   -2.763500   -1.560094
     29          1           0       -1.691510   -1.386326   -2.498767
 ---------------------------------------------------------------------
 Rotational constants (GHZ):           0.5708283           0.3626154           0.3248275
   427 basis functions,  1056 primitive gaussians,   461 cartesian basis functions
    77 alpha electrons       72 beta electrons
       nuclear repulsion energy      1659.9448616382 Hartrees.
 NAtoms=   29 NActive=   29 NUniq=   29 SFac= 1.00D+00 NAtFMM=   60 NAOKFM=F Big=F
 Nuclear repulsion after empirical dispersion term =     1659.8761905089 Hartrees.
 Initial guess from the checkpoint file:  "checkpoint.chk"
 B after Tr=     0.000000    0.000000    0.000000
         Rot=    1.000000    0.000000    0.000000    0.000000 Ang=   0.00 deg.
 Initial guess <Sx>= 0.0000 <Sy>= 0.0000 <Sz>= 2.5000 <S**2>= 8.7620 S= 2.5020
 SCF Done:  E(UB3LYP) =  -3034.39632238     A.U. after    1 cycles
            NFock=  1  Conv=0.47D-08     -V/T= 2.0025
 <Sx>= 0.0000 <Sy>= 0.0000 <Sz>= 2.5000 <S**2>= 8.7620 S= 2.5020
 <L.S>= 0.000000000000E+00
 Annihilation of the first spin contaminant:
 S**2 before annihilation     8.7620,   after     8.7500
 1\1\GINC-HOLY7C04509\SP\UB3LYP\Jul-CC-pVDZ\C8H16Cl3Fe1O1(6)\EKWAN\11-F
 eb-2020\0\\#t pop=none jul-cc-pvdz guess=read ub3lyp empiricaldispersi
 on=gd3bj\\theory_abbreviation b3lyp_d3bj\\0,6\O,0,-0.406408,-0.186854,
 -0.526836\C,0,-1.422434,-1.204805,-0.360793\C,0,-2.791019,-0.125277,-0
 .205585\C,0,-1.955766,1.131491,-0.273959\C,0,-1.864037,1.869464,-1.557
 923\Fe,0,1.375691,0.04089,0.035322\Cl,0,1.836588,2.018415,-0.843154\C,
 0,-1.56631,1.853229,0.962257\Cl,0,2.478549,-1.693218,-0.72782\Cl,0,1.3
 5372,0.150162,2.246277\H,0,-3.380792,-0.225425,-1.120366\H,0,-2.434618
 ,2.463017,1.260321\H,0,-1.329171,1.18174,1.787747\H,0,-0.723061,2.5234
 8,0.782498\H,0,-2.663038,2.629096,-1.550991\H,0,-0.904319,2.386081,-1.
 643639\H,0,-2.020805,1.216751,-2.418014\C,0,-3.664741,-0.320064,1.0232
 24\H,0,-4.4522,0.44134,1.074621\H,0,-4.15625,-1.2963,0.972999\H,0,-3.0
 95686,-0.281768,1.954935\C,0,-1.185705,-2.042143,0.8769\H,0,-2.002839,
 -2.754379,1.02928\H,0,-0.258397,-2.612119,0.744072\H,0,-1.068477,-1.42
 8447,1.771953\C,0,-1.518262,-2.02642,-1.628889\H,0,-0.570617,-2.555496
 ,-1.78177\H,0,-2.325845,-2.7635,-1.560094\H,0,-1.69151,-1.386326,-2.49
 8767\\Version=ES64L-G16RevA.03\HF=-3034.3963224\S2=8.762017\S2-1=0.\S2
 A=8.750045\RMSD=4.669e-09\PG=C01 [X(C8H16Cl3Fe1O1)]\\@


 IT IS NOT EASY TO DESCRIBE
     THE SEA WITH THE MOUTH

                   -- KOKYU
 Job cpu time:       0 days  0 hours  4 minutes 40.6 seconds.
 Elapsed time:       0 days  0 hours  1 minutes 11.5 seconds.
 File lengths (MBytes):  RWF=    170 Int=      0 D2E=      0 Chk=     13 Scr=      1
 Normal termination of Gaussian 16 at Tue Feb 11 14:12:53 2020.
 Initial command:
 /n/sw/g16_nehalem/g16/l1.exe "/scratch/Gau-180298.inp" -scrdir="/scratch/"
 Entering Link 1 = /n/sw/g16_nehalem/g16/l1.exe PID=    183544.
  
 Copyright (c) 1988,1990,1992,1993,1995,1998,2003,2009,2016,
            Gaussian, Inc.  All Rights Reserved.
  
 This is part of the Gaussian(R) 16 program.  It is based on
 the Gaussian(R) 09 system (copyright 2009, Gaussian, Inc.),
 the Gaussian(R) 03 system (copyright 2003, Gaussian, Inc.),
 the Gaussian(R) 98 system (copyright 1998, Gaussian, Inc.),
 the Gaussian(R) 94 system (copyright 1995, Gaussian, Inc.),
 the Gaussian 92(TM) system (copyright 1992, Gaussian, Inc.),
 the Gaussian 90(TM) system (copyright 1990, Gaussian, Inc.),
 the Gaussian 88(TM) system (copyright 1988, Gaussian, Inc.),
 the Gaussian 86(TM) system (copyright 1986, Carnegie Mellon
 University), and the Gaussian 82(TM) system (copyright 1983,
 Carnegie Mellon University). Gaussian is a federally registered
 trademark of Gaussian, Inc.
  
 This software contains proprietary and confidential information,
 including trade secrets, belonging to Gaussian, Inc.
  
 This software is provided under written license and may be
 used, copied, transmitted, or stored only in accord with that
 written license.
  
 The following legend is applicable only to US Government
 contracts under FAR:
  
                    RESTRICTED RIGHTS LEGEND
  
 Use, reproduction and disclosure by the US Government is
 subject to restrictions as set forth in subparagraphs (a)
 and (c) of the Commercial Computer Software - Restricted
 Rights clause in FAR 52.227-19.
  
 Gaussian, Inc.
 340 Quinnipiac St., Bldg. 40, Wallingford CT 06492
  
  
 ---------------------------------------------------------------
 Warning -- This program may not be used in any manner that
 competes with the business of Gaussian, Inc. or will provide
 assistance to any competitor of Gaussian, Inc.  The licensee
 of this program is prohibited from giving any competitor of
 Gaussian, Inc. access to this program.  By using this program,
 the user acknowledges that Gaussian, Inc. is engaged in the
 business of creating and licensing software in the field of
 computational chemistry and represents and warrants to the
 licensee that it is not a competitor of Gaussian, Inc. and that
 it will not use this program in any manner prohibited above.
 ---------------------------------------------------------------
  

 Cite this work as:
 Gaussian 16, Revision A.03,
 M. J. Frisch, G. W. Trucks, H. B. Schlegel, G. E. Scuseria, 
 M. A. Robb, J. R. Cheeseman, G. Scalmani, V. Barone, 
 G. A. Petersson, H. Nakatsuji, X. Li, M. Caricato, A. V. Marenich, 
 J. Bloino, B. G. Janesko, R. Gomperts, B. Mennucci, H. P. Hratchian, 
 J. V. Ortiz, A. F. Izmaylov, J. L. Sonnenberg, D. Williams-Young, 
 F. Ding, F. Lipparini, F. Egidi, J. Goings, B. Peng, A. Petrone, 
 T. Henderson, D. Ranasinghe, V. G. Zakrzewski, J. Gao, N. Rega, 
 G. Zheng, W. Liang, M. Hada, M. Ehara, K. Toyota, R. Fukuda, 
 J. Hasegawa, M. Ishida, T. Nakajima, Y. Honda, O. Kitao, H. Nakai, 
 T. Vreven, K. Throssell, J. A. Montgomery, Jr., J. E. Peralta, 
 F. Ogliaro, M. J. Bearpark, J. J. Heyd, E. N. Brothers, K. N. Kudin, 
 V. N. Staroverov, T. A. Keith, R. Kobayashi, J. Normand, 
 K. Raghavachari, A. P. Rendell, J. C. Burant, S. S. Iyengar, 
 J. Tomasi, M. Cossi, J. M. Millam, M. Klene, C. Adamo, R. Cammi, 
 J. W. Ochterski, R. L. Martin, K. Morokuma, O. Farkas, 
 J. B. Foresman, and D. J. Fox, Gaussian, Inc., Wallingford CT, 2016.
 
 ******************************************
 Gaussian 16:  ES64L-G16RevA.03 25-Dec-2016
                11-Feb-2020 
 ******************************************
 %chk=checkpoint.chk
 %mem=3GB
 %nprocshared=4
 Will use up to    4 processors via shared memory.
 ----------------------------------------
 #t pop=none jul-cc-pvdz guess=read ub97d
 ----------------------------------------
 ------------------------
 theory_abbreviation b97d
 ------------------------
 Symbolic Z-matrix:
 Charge =  0 Multiplicity = 6
 O                    -0.40641  -0.18685  -0.52684 
 C                    -1.42243  -1.20481  -0.36079 
 C                    -2.79102  -0.12528  -0.20559 
 C                    -1.95577   1.13149  -0.27396 
 C                    -1.86404   1.86946  -1.55792 
 Fe                    1.37569   0.04089   0.03532 
 Cl                    1.83659   2.01842  -0.84315 
 C                    -1.56631   1.85323   0.96226 
 Cl                    2.47855  -1.69322  -0.72782 
 Cl                    1.35372   0.15016   2.24628 
 H                    -3.38079  -0.22543  -1.12037 
 H                    -2.43462   2.46302   1.26032 
 H                    -1.32917   1.18174   1.78775 
 H                    -0.72306   2.52348   0.7825 
 H                    -2.66304   2.6291   -1.55099 
 H                    -0.90432   2.38608  -1.64364 
 H                    -2.02081   1.21675  -2.41801 
 C                    -3.66474  -0.32006   1.02322 
 H                    -4.4522    0.44134   1.07462 
 H                    -4.15625  -1.2963    0.973 
 H                    -3.09569  -0.28177   1.95494 
 C                    -1.18571  -2.04214   0.8769 
 H                    -2.00284  -2.75438   1.02928 
 H                    -0.2584   -2.61212   0.74407 
 H                    -1.06848  -1.42845   1.77195 
 C                    -1.51826  -2.02642  -1.62889 
 H                    -0.57062  -2.5555   -1.78177 
 H                    -2.32585  -2.7635   -1.56009 
 H                    -1.69151  -1.38633  -2.49877 
 
                    Distance matrix (angstroms):
                    1          2          3          4          5
     1  O    0.000000
     2  C    1.447793   0.000000
     3  C    2.406941   1.749999   0.000000
     4  C    2.049998   2.397970   1.510559   0.000000
     5  C    2.723282   3.328553   2.582074   1.483773   0.000000
     6  Fe   1.882489   3.088392   4.176975   3.519044   4.046968
     7  Cl   3.161376   4.609018   5.139714   3.936060   3.771963
     8  C    2.779336   3.335076   2.603508   1.483513   2.537757
     9  Cl   3.260752   3.948534   5.522637   5.277132   5.678013
    10  Cl   3.301785   4.042249   4.823521   4.274025   5.270854
    11  H    3.033270   2.317607   1.093017   2.142038   2.623082
    12  H    3.785417   4.135873   2.995858   2.087169   2.936046
    13  H    2.842857   3.212556   2.796188   2.155407   3.457247
    14  H    3.026638   3.961861   3.502666   2.138527   2.684611
    15  H    3.751113   4.201722   3.068072   2.091379   1.102493
    16  H    2.848712   3.848194   3.454643   2.134376   1.093297
    17  H    2.855335   3.233286   2.699835   2.146735   1.091039
    18  C    3.610701   2.779606   1.520297   2.590423   3.833913
    19  H    4.396331   3.734928   2.172442   2.920130   3.958335
    20  H    4.188280   3.043209   2.150398   3.505881   4.656379
    21  H    3.660657   3.002393   2.187500   2.874837   4.299410
    22  C    2.453544   1.512964   2.724552   3.462575   4.657163
    23  H    3.400334   2.161100   3.009700   4.098858   5.300265
    24  H    2.742084   2.134535   3.674290   4.234627   5.287896
    25  H    2.695240   2.173455   2.928491   3.395043   4.753652
    26  C    2.415521   1.514035   2.694448   3.464051   3.911842
    27  H    2.685570   2.137553   3.649727   4.217346   4.615551
    28  H    3.375050   2.164256   3.001883   4.118502   4.655924
    29  H    2.641729   2.162472   2.838635   3.370312   3.393394
                    6          7          8          9         10
     6  Fe   0.000000
     7  Cl   2.212408   0.000000
     8  C    3.577590   3.855711   0.000000
     9  Cl   2.192216   3.768506   5.638664   0.000000
    10  Cl   2.213763   3.642542   3.616036   3.675397   0.000000
    11  H    4.902109   5.686187   3.456945   6.053130   5.821594
    12  H    4.678224   4.781786   1.102108   6.735444   4.546747
    13  H    3.418890   4.200440   1.090214   5.393718   2.910723
    14  H    3.335609   3.074026   1.092071   5.505625   3.476824
    15  H    5.052379   4.595715   2.849771   6.767269   6.057945
    16  H    3.676585   2.878980   2.740959   5.378029   5.022900
    17  H    4.351746   4.242915   3.469568   5.618617   5.854967
    18  C    5.148999   6.262306   3.021644   6.533890   5.186706
    19  H    5.933365   6.761204   3.214719   7.472644   5.930115
    20  H    5.767988   7.085186   4.077676   6.860823   5.837230
    21  H    4.876703   6.119434   2.807599   6.345192   4.479806
    22  C    3.407056   5.346117   3.914852   4.015424   3.623544
    23  H    4.496215   6.405214   4.628726   4.929128   4.602600
    24  H    3.195470   5.324481   4.658065   3.240636   3.533516
    25  H    3.338981   5.211434   3.416554   4.347455   2.929851
    26  C    3.926619   5.313482   4.665621   4.110650   5.291758
    27  H    3.719027   5.253218   5.287527   3.339423   5.220040
    28  H    4.910328   6.380169   5.315387   4.992032   6.042937
    29  H    4.226852   5.175016   4.742265   4.540906   5.843771
                   11         12         13         14         15
    11  H    0.000000
    12  H    3.713575   0.000000
    13  H    3.827059   1.772530   0.000000
    14  H    4.270937   1.778032   1.782740   0.000000
    15  H    2.974710   2.825462   3.875721   3.036418   0.000000
    16  H    3.636853   3.283400   3.661331   2.436775   1.777845
    17  H    2.369246   3.905710   4.262395   3.692554   1.777332
    18  C    2.164385   3.052042   2.880069   4.098435   4.040735
    19  H    2.531888   2.862219   3.287864   4.281019   3.857618
    20  H    2.475941   4.144760   3.846670   5.139435   4.899892
    21  H    3.089002   2.907464   2.300083   3.856601   4.577317
    22  C    3.479647   4.690763   3.353155   4.589974   5.467874
    23  H    3.593792   5.240328   4.064743   5.436408   6.006285
    24  H    4.349918   5.546121   4.077889   5.156720   6.206444
    25  H    3.893529   4.155912   2.623221   4.088528   5.481627
    26  C    2.640302   5.416852   4.690570   5.210444   4.794832
    27  H    3.709955   6.157458   5.223389   5.691635   5.595666
    28  H    2.783541   5.939954   5.269375   6.000734   5.403136
    29  H    2.470092   5.431426   5.010035   5.195303   4.238604
                   16         17         18         19         20
    16  H    0.000000
    17  H    1.792632   0.000000
    18  C    4.696308   4.111745   0.000000
    19  H    4.874260   4.325673   1.096572   0.000000
    20  H    5.566128   4.730171   1.094139   1.765589   0.000000
    21  H    4.986907   4.745905   1.092417   1.771431   1.765862
    22  C    5.103084   4.708953   3.022017   4.108135   3.064254
    23  H    5.897082   5.258710   2.947515   4.026667   2.601219
    24  H    5.576772   5.269261   4.115170   5.198159   4.120321
    25  H    5.122874   5.045773   2.920564   3.928353   3.192199
    26  C    4.455032   3.375415   3.814804   4.691140   3.776490
    27  H    4.954757   4.091173   4.736956   5.675093   4.693729
[...]
 ---------------------------------------------------------------------
 Rotational constants (GHZ):           0.5708283           0.3626154           0.3248275
   427 basis functions,  1056 primitive gaussians,   461 cartesian basis functions
    77 alpha electrons       72 beta electrons
       nuclear repulsion energy      1659.9448616382 Hartrees.
 NAtoms=   29 NActive=   29 NUniq=   29 SFac= 1.00D+00 NAtFMM=   60 NAOKFM=F Big=F
 Nuclear repulsion after empirical dispersion term =     1659.9424407907 Hartrees.
 Initial guess from the checkpoint file:  "checkpoint.chk"
 B after Tr=     0.000000    0.000000    0.000000
         Rot=    1.000000    0.000000    0.000000    0.000000 Ang=   0.00 deg.
 Initial guess <Sx>= 0.0000 <Sy>= 0.0000 <Sz>= 2.5000 <S**2>= 8.7618 S= 2.5020
 SCF Done:  E(UM06L) =  -3034.19111288     A.U. after   18 cycles
            NFock= 18  Conv=0.42D-08     -V/T= 2.0021
 <Sx>= 0.0000 <Sy>= 0.0000 <Sz>= 2.5000 <S**2>= 8.7621 S= 2.5020
 <L.S>= 0.000000000000E+00
 Annihilation of the first spin contaminant:
 S**2 before annihilation     8.7621,   after     8.7500
 1\1\GINC-HOLY7C04509\SP\UM06L\Jul-CC-pVDZ\C8H16Cl3Fe1O1(6)\EKWAN\11-Fe
 b-2020\0\\#t pop=none jul-cc-pvdz guess=read um06l empiricaldispersion
 =gd3\\theory_abbreviation m06l_d3\\0,6\O,0,-0.406408,-0.186854,-0.5268
 36\C,0,-1.422434,-1.204805,-0.360793\C,0,-2.791019,-0.125277,-0.205585
 \C,0,-1.955766,1.131491,-0.273959\C,0,-1.864037,1.869464,-1.557923\Fe,
 0,1.375691,0.04089,0.035322\Cl,0,1.836588,2.018415,-0.843154\C,0,-1.56
 631,1.853229,0.962257\Cl,0,2.478549,-1.693218,-0.72782\Cl,0,1.35372,0.
 150162,2.246277\H,0,-3.380792,-0.225425,-1.120366\H,0,-2.434618,2.4630
 17,1.260321\H,0,-1.329171,1.18174,1.787747\H,0,-0.723061,2.52348,0.782
 498\H,0,-2.663038,2.629096,-1.550991\H,0,-0.904319,2.386081,-1.643639\
 H,0,-2.020805,1.216751,-2.418014\C,0,-3.664741,-0.320064,1.023224\H,0,
 -4.4522,0.44134,1.074621\H,0,-4.15625,-1.2963,0.972999\H,0,-3.095686,-
 0.281768,1.954935\C,0,-1.185705,-2.042143,0.8769\H,0,-2.002839,-2.7543
 79,1.02928\H,0,-0.258397,-2.612119,0.744072\H,0,-1.068477,-1.428447,1.
 771953\C,0,-1.518262,-2.02642,-1.628889\H,0,-0.570617,-2.555496,-1.781
 77\H,0,-2.325845,-2.7635,-1.560094\H,0,-1.69151,-1.386326,-2.498767\\V
 ersion=ES64L-G16RevA.03\HF=-3034.1911129\S2=8.762093\S2-1=0.\S2A=8.750
 047\RMSD=4.171e-09\PG=C01 [X(C8H16Cl3Fe1O1)]\\@


 PERICLES, SOPHOCLES,
 PELOPONESIAN WAR,
 FRENCH VERBS, LATIN VERBS
 H2SO4.
 Job cpu time:       0 days  1 hours 21 minutes 34.7 seconds.
 Elapsed time:       0 days  0 hours 20 minutes 27.3 seconds.
 File lengths (MBytes):  RWF=    174 Int=      0 D2E=      0 Chk=     13 Scr=      1
 Normal termination of Gaussian 16 at Tue Feb 11 23:38:07 2020.
 Initial command:
 /n/sw/g16_nehalem/g16/l1.exe "/scratch/Gau-180298.inp" -scrdir="/scratch/"
 Entering Link 1 = /n/sw/g16_nehalem/g16/l1.exe PID=    236453.
  
 Copyright (c) 1988,1990,1992,1993,1995,1998,2003,2009,2016,
            Gaussian, Inc.  All Rights Reserved.
  
 This is part of the Gaussian(R) 16 program.  It is based on
 the Gaussian(R) 09 system (copyright 2009, Gaussian, Inc.),
 the Gaussian(R) 03 system (copyright 2003, Gaussian, Inc.),
 the Gaussian(R) 98 system (copyright 1998, Gaussian, Inc.),
 the Gaussian(R) 94 system (copyright 1995, Gaussian, Inc.),
 the Gaussian 92(TM) system (copyright 1992, Gaussian, Inc.),
 the Gaussian 90(TM) system (copyright 1990, Gaussian, Inc.),
 the Gaussian 88(TM) system (copyright 1988, Gaussian, Inc.),
 the Gaussian 86(TM) system (copyright 1986, Carnegie Mellon
 University), and the Gaussian 82(TM) system (copyright 1983,
 Carnegie Mellon University). Gaussian is a federally registered
 trademark of Gaussian, Inc.
  
 This software contains proprietary and confidential information,
 including trade secrets, belonging to Gaussian, Inc.
  
 This software is provided under written license and may be
 used, copied, transmitted, or stored only in accord with that
 written license.
  
 The following legend is applicable only to US Government
 contracts under FAR:
  
                    RESTRICTED RIGHTS LEGEND
  
 Use, reproduction and disclosure by the US Government is
 subject to restrictions as set forth in subparagraphs (a)
 and (c) of the Commercial Computer Software - Restricted
 Rights clause in FAR 52.227-19.
  
 Gaussian, Inc.
 340 Quinnipiac St., Bldg. 40, Wallingford CT 06492
  
  
 ---------------------------------------------------------------
 Warning -- This program may not be used in any manner that
 competes with the business of Gaussian, Inc. or will provide
 assistance to any competitor of Gaussian, Inc.  The licensee
 of this program is prohibited from giving any competitor of
 Gaussian, Inc. access to this program.  By using this program,
 the user acknowledges that Gaussian, Inc. is engaged in the
 business of creating and licensing software in the field of
 computational chemistry and represents and warrants to the
 licensee that it is not a competitor of Gaussian, Inc. and that
 it will not use this program in any manner prohibited above.
 ---------------------------------------------------------------
  

 Cite this work as:
 Gaussian 16, Revision A.03,
 M. J. Frisch, G. W. Trucks, H. B. Schlegel, G. E. Scuseria, 
 M. A. Robb, J. R. Cheeseman, G. Scalmani, V. Barone, 
 G. A. Petersson, H. Nakatsuji, X. Li, M. Caricato, A. V. Marenich, 
 J. Bloino, B. G. Janesko, R. Gomperts, B. Mennucci, H. P. Hratchian, 
 J. V. Ortiz, A. F. Izmaylov, J. L. Sonnenberg, D. Williams-Young, 
 F. Ding, F. Lipparini, F. Egidi, J. Goings, B. Peng, A. Petrone, 
 T. Henderson, D. Ranasinghe, V. G. Zakrzewski, J. Gao, N. Rega, 
 G. Zheng, W. Liang, M. Hada, M. Ehara, K. Toyota, R. Fukuda, 
 J. Hasegawa, M. Ishida, T. Nakajima, Y. Honda, O. Kitao, H. Nakai, 
 T. Vreven, K. Throssell, J. A. Montgomery, Jr., J. E. Peralta, 
 F. Ogliaro, M. J. Bearpark, J. J. Heyd, E. N. Brothers, K. N. Kudin, 
 V. N. Staroverov, T. A. Keith, R. Kobayashi, J. Normand, 
 K. Raghavachari, A. P. Rendell, J. C. Burant, S. S. Iyengar, 
 J. Tomasi, M. Cossi, J. M. Millam, M. Klene, C. Adamo, R. Cammi, 
 J. W. Ochterski, R. L. Martin, K. Morokuma, O. Farkas, 
 J. B. Foresman, and D. J. Fox, Gaussian, Inc., Wallingford CT, 2016.
 
 ******************************************
 Gaussian 16:  ES64L-G16RevA.03 25-Dec-2016
                11-Feb-2020 
 ******************************************
 %chk=checkpoint.chk
 %mem=3GB
 %nprocshared=4
 Will use up to    4 processors via shared memory.
 -------------------------------------------------------------------
 #t pop=none jul-cc-pvdz guess=read ub97d3 empiricaldispersion=gd3bj
 -------------------------------------------------------------------
 ------------------------------
 theory_abbreviation b97d3_d3bj
 ------------------------------
 Symbolic Z-matrix:
 Charge =  0 Multiplicity = 6
 O                    -0.40641  -0.18685  -0.52684 
 C                    -1.42243  -1.20481  -0.36079 
 C                    -2.79102  -0.12528  -0.20559 
 C                    -1.95577   1.13149  -0.27396 
 C                    -1.86404   1.86946  -1.55792 
 Fe                    1.37569   0.04089   0.03532 
 Cl                    1.83659   2.01842  -0.84315 
 C                    -1.56631   1.85323   0.96226 
 Cl                    2.47855  -1.69322  -0.72782 
 Cl                    1.35372   0.15016   2.24628 
 H                    -3.38079  -0.22543  -1.12037 
 H                    -2.43462   2.46302   1.26032 
 H                    -1.32917   1.18174   1.78775 
 H                    -0.72306   2.52348   0.7825 
 H                    -2.66304   2.6291   -1.55099 
 H                    -0.90432   2.38608  -1.64364 
 H                    -2.02081   1.21675  -2.41801 
 C                    -3.66474  -0.32006   1.02322 
 H                    -4.4522    0.44134   1.07462 
 H                    -4.15625  -1.2963    0.973 
 H                    -3.09569  -0.28177   1.95494 
 C                    -1.18571  -2.04214   0.8769 
 H                    -2.00284  -2.75438   1.02928 
 H                    -0.2584   -2.61212   0.74407 
 H                    -1.06848  -1.42845   1.77195 
 C                    -1.51826  -2.02642  -1.62889 
 H                    -0.57062  -2.5555   -1.78177 
 H                    -2.32585  -2.7635   -1.56009 
 H                    -1.69151  -1.38633  -2.49877 
 
                    Distance matrix (angstroms):
                    1          2          3          4          5
     1  O    0.000000
     2  C    1.447793   0.000000
     3  C    2.406941   1.749999   0.000000
     4  C    2.049998   2.397970   1.510559   0.000000
     5  C    2.723282   3.328553   2.582074   1.483773   0.000000
     6  Fe   1.882489   3.088392   4.176975   3.519044   4.046968
     7  Cl   3.161376   4.609018   5.139714   3.936060   3.771963
     8  C    2.779336   3.335076   2.603508   1.483513   2.537757
     9  Cl   3.260752   3.948534   5.522637   5.277132   5.678013
    10  Cl   3.301785   4.042249   4.823521   4.274025   5.270854
    11  H    3.033270   2.317607   1.093017   2.142038   2.623082
    12  H    3.785417   4.135873   2.995858   2.087169   2.936046
    13  H    2.842857   3.212556   2.796188   2.155407   3.457247
    14  H    3.026638   3.961861   3.502666   2.138527   2.684611
    15  H    3.751113   4.201722   3.068072   2.091379   1.102493
    16  H    2.848712   3.848194   3.454643   2.134376   1.093297
    17  H    2.855335   3.233286   2.699835   2.146735   1.091039
    18  C    3.610701   2.779606   1.520297   2.590423   3.833913
    19  H    4.396331   3.734928   2.172442   2.920130   3.958335
    20  H    4.188280   3.043209   2.150398   3.505881   4.656379
    21  H    3.660657   3.002393   2.187500   2.874837   4.299410
    22  C    2.453544   1.512964   2.724552   3.462575   4.657163
    23  H    3.400334   2.161100   3.009700   4.098858   5.300265
    24  H    2.742084   2.134535   3.674290   4.234627   5.287896
    25  H    2.695240   2.173455   2.928491   3.395043   4.753652
    26  C    2.415521   1.514035   2.694448   3.464051   3.911842
    27  H    2.685570   2.137553   3.649727   4.217346   4.615551
    28  H    3.375050   2.164256   3.001883   4.118502   4.655924
    29  H    2.641729   2.162472   2.838635   3.370312   3.393394
                    6          7          8          9         10
     6  Fe   0.000000
     7  Cl   2.212408   0.000000
     8  C    3.577590   3.855711   0.000000
     9  Cl   2.192216   3.768506   5.638664   0.000000
    10  Cl   2.213763   3.642542   3.616036   3.675397   0.000000
    11  H    4.902109   5.686187   3.456945   6.053130   5.821594
    12  H    4.678224   4.781786   1.102108   6.735444   4.546747
    13  H    3.418890   4.200440   1.090214   5.393718   2.910723
    14  H    3.335609   3.074026   1.092071   5.505625   3.476824
    15  H    5.052379   4.595715   2.849771   6.767269   6.057945
    16  H    3.676585   2.878980   2.740959   5.378029   5.022900
    17  H    4.351746   4.242915   3.469568   5.618617   5.854967
    18  C    5.148999   6.262306   3.021644   6.533890   5.186706
    19  H    5.933365   6.761204   3.214719   7.472644   5.930115
    20  H    5.767988   7.085186   4.077676   6.860823   5.837230
    21  H    4.876703   6.119434   2.807599   6.345192   4.479806
    22  C    3.407056   5.346117   3.914852   4.015424   3.623544
    23  H    4.496215   6.405214   4.628726   4.929128   4.602600
    24  H    3.195470   5.324481   4.658065   3.240636   3.533516
    25  H    3.338981   5.211434   3.416554   4.347455   2.929851
    26  C    3.926619   5.313482   4.665621   4.110650   5.291758
    27  H    3.719027   5.253218   5.287527   3.339423   5.220040
    28  H    4.910328   6.380169   5.315387   4.992032   6.042937
    29  H    4.226852   5.175016   4.742265   4.540906   5.843771
                   11         12         13         14         15
    11  H    0.000000
    12  H    3.713575   0.000000
    13  H    3.827059   1.772530   0.000000
    14  H    4.270937   1.778032   1.782740   0.000000
    15  H    2.974710   2.825462   3.875721   3.036418   0.000000
    16  H    3.636853   3.283400   3.661331   2.436775   1.777845
    17  H    2.369246   3.905710   4.262395   3.692554   1.777332
    18  C    2.164385   3.052042   2.880069   4.098435   4.040735
    19  H    2.531888   2.862219   3.287864   4.281019   3.857618
    20  H    2.475941   4.144760   3.846670   5.139435   4.899892
    21  H    3.089002   2.907464   2.300083   3.856601   4.577317
    22  C    3.479647   4.690763   3.353155   4.589974   5.467874
    23  H    3.593792   5.240328   4.064743   5.436408   6.006285
    24  H    4.349918   5.546121   4.077889   5.156720   6.206444
    25  H    3.893529   4.155912   2.623221   4.088528   5.481627
    26  C    2.640302   5.416852   4.690570   5.210444   4.794832
    27  H    3.709955   6.157458   5.223389   5.691635   5.595666
    28  H    2.783541   5.939954   5.269375   6.000734   5.403136
    29  H    2.470092   5.431426   5.010035   5.195303   4.238604
                   16         17         18         19         20
    16  H    0.000000
    17  H    1.792632   0.000000
    18  C    4.696308   4.111745   0.000000
    19  H    4.874260   4.325673   1.096572   0.000000
    20  H    5.566128   4.730171   1.094139   1.765589   0.000000
    21  H    4.986907   4.745905   1.092417   1.771431   1.765862
    22  C    5.103084   4.708953   3.022017   4.108135   3.064254
    23  H    5.897082   5.258710   2.947515   4.026667   2.601219
    24  H    5.576772   5.269261   4.115170   5.198159   4.120321
    25  H    5.122874   5.045773   2.920564   3.928353   3.192199
    26  C    4.455032   3.375415   3.814804   4.691140   3.776490
    27  H    4.954757   4.091173   4.736956   5.675093   4.693729
    28  H    5.342836   4.083072   3.799547   4.661985   3.452480
    29  H    3.947400   2.625065   4.175521   4.871434   4.258663
                   21         22         23         24         25
    21  H    0.000000
    22  C    2.812313   0.000000
    23  H    2.857439   1.094627   0.000000
    24  H    3.866126   1.096547   1.773319   0.000000
    25  H    2.336222   1.091552   1.784010   1.764610   0.000000
    26  C    4.286709   2.527809   2.798321   2.749772   3.482184
    27  H    5.050621   2.776759   3.161142   2.545695   3.761257
    28  H    4.371164   2.785537   2.609459   3.099425   3.803403
    29  H    4.798669   3.475782   3.796789   3.751318   4.316132
                   26         27         28         29
    26  C    0.000000
    27  H    1.096050   0.000000
    28  H    1.095541   1.781357   0.000000
    29  H    1.093811   1.771283   1.783282   0.000000
 Framework group  C1[X(C8H16Cl3FeO)]
 Deg. of freedom    81
                         Standard orientation:                         
 ---------------------------------------------------------------------
 Center     Atomic      Atomic             Coordinates (Angstroms)
 Number     Number       Type             X           Y           Z
 ---------------------------------------------------------------------
      1          8           0       -0.406408   -0.186854   -0.526836
      2          6           0       -1.422434   -1.204805   -0.360793
      3          6           0       -2.791019   -0.125277   -0.205585
      4          6           0       -1.955766    1.131491   -0.273959
      5          6           0       -1.864037    1.869464   -1.557923
      6         26           0        1.375691    0.040890    0.035322
      7         17           0        1.836588    2.018415   -0.843154
      8          6           0       -1.566310    1.853229    0.962257
      9         17           0        2.478549   -1.693218   -0.727820
     10         17           0        1.353720    0.150162    2.246277
     11          1           0       -3.380792   -0.225425   -1.120366
     12          1           0       -2.434618    2.463017    1.260321
     13          1           0       -1.329171    1.181740    1.787747
     14          1           0       -0.723061    2.523480    0.782498
     15          1           0       -2.663038    2.629096   -1.550991
     16          1           0       -0.904319    2.386081   -1.643639
     17          1           0       -2.020805    1.216751   -2.418014
     18          6           0       -3.664741   -0.320064    1.023224
     19          1           0       -4.452200    0.441340    1.074621
     20          1           0       -4.156250   -1.296300    0.972999
     21          1           0       -3.095686   -0.281768    1.954935
     22          6           0       -1.185705   -2.042143    0.876900
     23          1           0       -2.002839   -2.754379    1.029280
     24          1           0       -0.258397   -2.612119    0.744072
     25          1           0       -1.068477   -1.428447    1.771953
     26          6           0       -1.518262   -2.026420   -1.628889
     27          1           0       -0.570617   -2.555496   -1.781770
     28          1           0       -2.325845   -2.763500   -1.560094
     29          1           0       -1.691510   -1.386326   -2.498767
 ---------------------------------------------------------------------
 Rotational constants (GHZ):           0.5708283           0.3626154           0.3248275
   427 basis functions,  1056 primitive gaussians,   461 cartesian basis functions
    77 alpha electrons       72 beta electrons
       nuclear repulsion energy      1659.9448616382 Hartrees.
 NAtoms=   29 NActive=   29 NUniq=   29 SFac= 1.00D+00 NAtFMM=   60 NAOKFM=F Big=F
 Nuclear repulsion after empirical dispersion term =     1659.8446122435 Hartrees.
 Initial guess from the checkpoint file:  "checkpoint.chk"
 B after Tr=     0.000000    0.000000    0.000000
         Rot=    1.000000    0.000000    0.000000    0.000000 Ang=   0.00 deg.
 Initial guess <Sx>= 0.0000 <Sy>= 0.0000 <Sz>= 2.5000 <S**2>= 8.7621 S= 2.5020
 EnCoef did     5 forward-backward iterations
 SCF Done:  E(UB97D3) =  -3034.61415485     A.U. after   16 cycles
            NFock= 16  Conv=0.52D-08     -V/T= 2.0020
 <Sx>= 0.0000 <Sy>= 0.0000 <Sz>= 2.5000 <S**2>= 8.7604 S= 2.5017
 <L.S>= 0.000000000000E+00
 Annihilation of the first spin contaminant:
 S**2 before annihilation     8.7604,   after     8.7500
 1\1\GINC-HOLY7C04509\SP\UB97D3\Jul-CC-pVDZ\C8H16Cl3Fe1O1(6)\EKWAN\11-F
 eb-2020\0\\#t pop=none jul-cc-pvdz guess=read ub97d3 empiricaldispersi
 on=gd3bj\\theory_abbreviation b97d3_d3bj\\0,6\O,0,-0.406408,-0.186854,
 -0.526836\C,0,-1.422434,-1.204805,-0.360793\C,0,-2.791019,-0.125277,-0
 .205585\C,0,-1.955766,1.131491,-0.273959\C,0,-1.864037,1.869464,-1.557
 923\Fe,0,1.375691,0.04089,0.035322\Cl,0,1.836588,2.018415,-0.843154\C,
 0,-1.56631,1.853229,0.962257\Cl,0,2.478549,-1.693218,-0.72782\Cl,0,1.3
 5372,0.150162,2.246277\H,0,-3.380792,-0.225425,-1.120366\H,0,-2.434618
 ,2.463017,1.260321\H,0,-1.329171,1.18174,1.787747\H,0,-0.723061,2.5234
 8,0.782498\H,0,-2.663038,2.629096,-1.550991\H,0,-0.904319,2.386081,-1.
 643639\H,0,-2.020805,1.216751,-2.418014\C,0,-3.664741,-0.320064,1.0232
 24\H,0,-4.4522,0.44134,1.074621\H,0,-4.15625,-1.2963,0.972999\H,0,-3.0
 95686,-0.281768,1.954935\C,0,-1.185705,-2.042143,0.8769\H,0,-2.002839,
 -2.754379,1.02928\H,0,-0.258397,-2.612119,0.744072\H,0,-1.068477,-1.42
 8447,1.771953\C,0,-1.518262,-2.02642,-1.628889\H,0,-0.570617,-2.555496
 ,-1.78177\H,0,-2.325845,-2.7635,-1.560094\H,0,-1.69151,-1.386326,-2.49
 8767\\Version=ES64L-G16RevA.03\HF=-3034.6141548\S2=8.760363\S2-1=0.\S2
 A=8.750034\RMSD=5.199e-09\PG=C01 [X(C8H16Cl3Fe1O1)]\\@


 A MAN THINKING OR WORKING IS ALWAYS ALONE, 
 LET HIM BE WHERE HE WILL.

                                    -- THOREAU
 Job cpu time:       0 days  0 hours 52 minutes 40.1 seconds.
 Elapsed time:       0 days  0 hours 13 minutes 12.4 seconds.
 File lengths (MBytes):  RWF=    174 Int=      0 D2E=      0 Chk=     13 Scr=      1
 Normal termination of Gaussian 16 at Tue Feb 11 23:51:20 2020.
