 Entering Gaussian System, Link 0=g16
 Input=simple-grid-230-250-b3lyp_d3bj-631gd-gas-singlepoint-DFT-juldz2-gas.gjf
 Output=simple-grid-230-250-b3lyp_d3bj-631gd-gas-singlepoint-DFT-juldz2-gas.out
 Initial command:
 /n/sw/g16_nehalem/g16/l1.exe "/scratch/Gau-431635.inp" -scrdir="/scratch/"
 Entering Link 1 = /n/sw/g16_nehalem/g16/l1.exe PID=    431639.
  
 Copyright (c) 1988,1990,1992,1993,1995,1998,2003,2009,2016,
            Gaussian, Inc.  All Rights Reserved.
  
 This is part of the Gaussian(R) 16 program.  It is based on
 the Gaussian(R) 09 system (copyright 2009, Gaussian, Inc.),
 the Gaussian(R) 03 system (copyright 2003, Gaussian, Inc.),
 the Gaussian(R) 98 system (copyright 1998, Gaussian, Inc.),
 the Gaussian(R) 94 system (copyright 1995, Gaussian, Inc.),
 the Gaussian 92(TM) system (copyright 1992, Gaussian, Inc.),
 the Gaussian 90(TM) system (copyright 1990, Gaussian, Inc.),
 the Gaussian 88(TM) system (copyright 1988, Gaussian, Inc.),
 the Gaussian 86(TM) system (copyright 1986, Carnegie Mellon
 University), and the Gaussian 82(TM) system (copyright 1983,
 Carnegie Mellon University). Gaussian is a federally registered
 trademark of Gaussian, Inc.
  
 This software contains proprietary and confidential information,
 including trade secrets, belonging to Gaussian, Inc.
  
 This software is provided under written license and may be
 used, copied, transmitted, or stored only in accord with that
 written license.
  
 The following legend is applicable only to US Government
 contracts under FAR:
  
                    RESTRICTED RIGHTS LEGEND
  
 Use, reproduction and disclosure by the US Government is
 subject to restrictions as set forth in subparagraphs (a)
 and (c) of the Commercial Computer Software - Restricted
 Rights clause in FAR 52.227-19.
  
 Gaussian, Inc.
 340 Quinnipiac St., Bldg. 40, Wallingford CT 06492
  
  
 ---------------------------------------------------------------
 Warning -- This program may not be used in any manner that
 competes with the business of Gaussian, Inc. or will provide
 assistance to any competitor of Gaussian, Inc.  The licensee
 of this program is prohibited from giving any competitor of
 Gaussian, Inc. access to this program.  By using this program,
 the user acknowledges that Gaussian, Inc. is engaged in the
 business of creating and licensing software in the field of
 computational chemistry and represents and warrants to the
 licensee that it is not a competitor of Gaussian, Inc. and that
 it will not use this program in any manner prohibited above.
 ---------------------------------------------------------------
  

 Cite this work as:
 Gaussian 16, Revision A.03,
 M. J. Frisch, G. W. Trucks, H. B. Schlegel, G. E. Scuseria, 
 M. A. Robb, J. R. Cheeseman, G. Scalmani, V. Barone, 
 G. A. Petersson, H. Nakatsuji, X. Li, M. Caricato, A. V. Marenich, 
 J. Bloino, B. G. Janesko, R. Gomperts, B. Mennucci, H. P. Hratchian, 
 J. V. Ortiz, A. F. Izmaylov, J. L. Sonnenberg, D. Williams-Young, 
 F. Ding, F. Lipparini, F. Egidi, J. Goings, B. Peng, A. Petrone, 
 T. Henderson, D. Ranasinghe, V. G. Zakrzewski, J. Gao, N. Rega, 
 G. Zheng, W. Liang, M. Hada, M. Ehara, K. Toyota, R. Fukuda, 
 J. Hasegawa, M. Ishida, T. Nakajima, Y. Honda, O. Kitao, H. Nakai, 
 T. Vreven, K. Throssell, J. A. Montgomery, Jr., J. E. Peralta, 
 F. Ogliaro, M. J. Bearpark, J. J. Heyd, E. N. Brothers, K. N. Kudin, 
 V. N. Staroverov, T. A. Keith, R. Kobayashi, J. Normand, 
 K. Raghavachari, A. P. Rendell, J. C. Burant, S. S. Iyengar, 
 J. Tomasi, M. Cossi, J. M. Millam, M. Klene, C. Adamo, R. Cammi, 
 J. W. Ochterski, R. L. Martin, K. Morokuma, O. Farkas, 
 J. B. Foresman, and D. J. Fox, Gaussian, Inc., Wallingford CT, 2016.
 
 ******************************************
 Gaussian 16:  ES64L-G16RevA.03 25-Dec-2016
                11-Feb-2020 
 ******************************************
 %chk=checkpoint.chk
 %mem=3GB
 %nprocshared=4
 Will use up to    4 processors via shared memory.
 --------------------------------
 #t pop=none jul-cc-pvdz upbe1pbe
 --------------------------------
 ------------------------
 theory_abbreviation pbe0
 ------------------------
 Symbolic Z-matrix:
 Charge =  0 Multiplicity = 6
 O                    -0.30005  -0.17283  -0.73043 
 C                    -1.1726   -1.09877  -0.61692 
 C                    -3.05111  -0.09721   0.25376 
 C                    -2.41956   1.0296   -0.17196 
 C                    -2.58021   1.55192  -1.56604 
 Fe                    1.44838   0.09509   0.03578 
 Cl                    2.0825    2.02001  -0.78257 
 C                    -1.56847   1.8801    0.71666 
 Cl                    2.5431   -1.66937  -0.6739 
 Cl                    1.2452    0.09971   2.23192 
 H                    -3.74189  -0.56888  -0.44223 
 H                    -2.17268   2.73235   1.05971 
 H                    -1.19404   1.36045   1.59805 
 H                    -0.71894   2.29535   0.16565 
 H                    -2.89945   2.60083  -1.52149 
 H                    -1.61248   1.54277  -2.08286 
 H                    -3.31811   0.99588  -2.14907 
 C                    -3.22264  -0.49779   1.69707 
 H                    -4.09663   0.01828   2.1162 
 H                    -3.40804  -1.57028   1.80055 
 H                    -2.36319  -0.23893   2.31976 
 C                    -1.01679  -2.11472   0.48007 
 H                    -1.89098  -2.75798   0.58309 
 H                    -0.16259  -2.73755   0.17518 
 H                    -0.75612  -1.65606   1.43357 
 C                    -1.79981  -1.58414  -1.89918 
 H                    -1.03924  -2.22541  -2.36686 
 H                    -2.69573  -2.18355  -1.7303 
 H                    -2.00387  -0.76678  -2.58906 
 
                    Distance matrix (angstroms):
                    1          2          3          4          5
     1  O    0.000000
     2  C    1.277342   0.000000
     3  C    2.922788   2.299999   0.000000
     4  C    2.500009   2.506560   1.360071   0.000000
     5  C    2.978612   3.147755   2.500608   1.497358   0.000000
     6  Fe   1.927654   2.953107   4.508866   3.984641   4.573582
     7  Cl   3.238486   4.511087   5.648940   4.649974   4.751187
     8  C    2.813806   3.287676   2.514406   1.495773   2.518335
     9  Cl   3.213451   3.759682   5.884500   5.671355   6.117255
    10  Cl   3.352252   3.924025   4.733938   4.480377   5.582754
    11  H    3.476518   2.629170   1.088139   2.092066   2.666504
    12  H    3.892488   4.299854   3.070440   2.115968   2.907583
    13  H    2.927801   3.309729   2.716724   2.178141   3.459711
    14  H    2.659016   3.512591   3.342322   2.146672   2.648726
    15  H    3.882762   4.181782   3.233250   2.126094   1.097320
    16  H    2.548493   3.052904   3.196713   2.136880   1.097127
    17  H    3.533707   3.367232   2.653243   2.171975   1.092519
    18  C    3.813128   3.149348   1.507664   2.543847   3.906654
    19  H    4.749096   4.155443   2.138962   3.011817   4.267376
    20  H    4.244802   3.326205   2.165616   3.409877   4.665549
    21  H    3.683017   3.283428   2.182125   2.796606   4.284117
    22  C    2.397905   1.503259   2.874022   3.504227   4.480518
    23  H    3.307477   2.170035   2.921307   3.898106   4.865080
    24  H    2.723382   2.081616   3.914221   4.405204   5.222669
    25  H    2.662870   2.165297   3.014790   3.543660   4.755639
    26  C    2.367920   1.507707   2.900323   3.193589   3.248828
    27  H    2.727152   2.085521   3.929946   4.161478   4.157412
    28  H    3.283595   2.176299   2.900961   3.581757   3.740860
    29  H    2.590424   2.165776   3.102681   3.040087   2.599058
                    6          7          8          9         10
     6  Fe   0.000000
     7  Cl   2.185658   0.000000
     8  C    3.570888   3.949286   0.000000
     9  Cl   2.194396   3.719602   5.606905   0.000000
    10  Cl   2.205523   3.670932   3.658220   3.641150   0.000000
    11  H    5.254350   6.382919   3.473363   6.384805   5.698169
    12  H    4.595179   4.691271   1.099585   6.679755   4.470664
    13  H    3.320272   4.103427   1.089540   5.320504   2.818005
    14  H    3.091162   2.970356   1.094415   5.202378   3.598355
    15  H    5.254273   5.069830   2.701894   6.969523   6.125501
    16  H    3.994151   3.946061   2.820114   5.437992   5.372717
    17  H    5.320182   5.664161   3.472094   6.605552   6.389047
    18  C    4.992978   6.374359   3.058080   6.343330   4.539238
    19  H    5.922937   7.112766   3.437538   7.397217   5.343706
    20  H    5.428872   7.050438   4.057578   6.445830   4.962619
    21  H    4.456031   5.872939   2.773408   5.922824   3.625314
    22  C    3.340313   5.319378   4.039664   3.768655   3.617908
    23  H    4.426159   6.362604   4.651196   4.735626   4.551995
    24  H    3.261672   5.347154   4.857202   3.030293   3.776519
    25  H    3.143271   5.146114   3.698422   3.914897   2.779455
    26  C    4.136978   5.413781   4.347079   4.513242   5.401242
    27  H    4.164806   5.502614   5.161719   4.001048   5.636807
    28  H    5.048250   6.434246   4.875604   5.368948   6.036832
    29  H    4.421611   5.265745   4.257149   5.015716   5.877850
                   11         12         13         14         15
    11  H    0.000000
    12  H    3.951752   0.000000
    13  H    3.791645   1.769091   0.000000
    14  H    4.208508   1.761725   1.775258   0.000000
    15  H    3.452760   2.684779   3.765433   2.773871   0.000000
    16  H    3.418349   3.406566   3.709107   2.533893   1.758105
    17  H    2.354008   3.824075   4.322669   3.715132   1.773414
    18  C    2.202565   3.455788   2.752829   4.051593   4.479401
    19  H    2.648808   3.490547   3.239584   4.516467   4.619044
    20  H    2.478772   4.537354   3.678579   4.984700   5.356559
    21  H    3.104552   3.233037   2.108500   3.710298   4.806969
    22  C    3.265945   5.016587   3.654869   4.431282   5.457745
    23  H    3.044548   5.518174   4.298523   5.204236   5.844917
    24  H    4.230331   5.894295   4.458930   5.063568   6.234369
    25  H    3.689906   4.626512   3.052566   4.150020   5.607793
    26  C    2.631566   5.246539   4.611747   4.525734   4.343482
    27  H    3.708448   6.132325   5.348163   5.191670   5.240950
    28  H    2.315322   5.676597   5.088505   5.250032   4.793261
    29  H    2.769246   5.058253   4.765799   4.314643   3.644525
                   16         17         18         19         20
    16  H    0.000000
    17  H    1.792383   0.000000
    18  C    4.587420   4.127101   0.000000
    19  H    5.111479   4.444583   1.098117   0.000000
    20  H    5.291122   4.710915   1.093302   1.759923   0.000000
    21  H    4.808439   4.733604   1.092427   1.764199   1.770248
    22  C    4.505622   4.678056   2.993548   4.088037   2.785347
    23  H    5.067669   4.857243   2.850038   3.863023   2.279098
    24  H    5.051934   5.412753   4.086149   5.180627   3.812782
    25  H    4.830233   5.141192   2.737657   3.798481   2.678567
    26  C    3.137894   3.004027   4.017172   4.895558   4.034180
    27  H    3.822089   3.951878   4.926202   5.871938   4.838152
    28  H    3.896554   3.266721   3.855683   4.648243   3.653815
    29  H    2.396547   2.242269   4.464155   5.209169   4.678241
                   21         22         23         24         25
    21  H    0.000000
    22  C    2.952262   0.000000
    23  H    3.095903   1.090236   0.000000
    24  H    3.960431   1.100246   1.775995   0.000000
    25  H    2.318685   1.089714   1.795954   1.762227   0.000000
    26  C    4.463907   2.560362   2.747341   2.883366   3.493091
    27  H    5.259596   2.849168   3.116299   2.737292   3.853255
    28  H    4.505007   2.776561   2.515821   3.217850   3.748385
    29  H    4.950174   3.494396   3.747017   3.862029   4.304562
                   26         27         28         29
    26  C    0.000000
    27  H    1.099275   0.000000
    28  H    1.091093   1.775084   0.000000
    29  H    1.088876   1.762803   1.795369   0.000000
 Framework group  C1[X(C8H16Cl3FeO)]
 Deg. of freedom    81
                         Standard orientation:                         
 ---------------------------------------------------------------------
 Center     Atomic      Atomic             Coordinates (Angstroms)
 Number     Number       Type             X           Y           Z
 ---------------------------------------------------------------------
      1          8           0       -0.300046   -0.172832   -0.730433
      2          6           0       -1.172599   -1.098773   -0.616915
      3          6           0       -3.051108   -0.097210    0.253757
      4          6           0       -2.419555    1.029598   -0.171963
      5          6           0       -2.580205    1.551919   -1.566041
      6         26           0        1.448378    0.095091    0.035779
      7         17           0        2.082502    2.020006   -0.782567
      8          6           0       -1.568473    1.880100    0.716656
      9         17           0        2.543095   -1.669369   -0.673904
     10         17           0        1.245201    0.099709    2.231919
     11          1           0       -3.741886   -0.568881   -0.442231
     12          1           0       -2.172685    2.732352    1.059705
     13          1           0       -1.194042    1.360447    1.598053
     14          1           0       -0.718941    2.295351    0.165651
     15          1           0       -2.899447    2.600828   -1.521488
     16          1           0       -1.612477    1.542765   -2.082864
     17          1           0       -3.318105    0.995878   -2.149068
     18          6           0       -3.222641   -0.497791    1.697073
     19          1           0       -4.096631    0.018284    2.116202
     20          1           0       -3.408039   -1.570279    1.800548
     21          1           0       -2.363194   -0.238927    2.319758
     22          6           0       -1.016789   -2.114716    0.480068
     23          1           0       -1.890983   -2.757978    0.583091
     24          1           0       -0.162588   -2.737551    0.175178
     25          1           0       -0.756117   -1.656062    1.433569
     26          6           0       -1.799805   -1.584142   -1.899182
     27          1           0       -1.039237   -2.225405   -2.366861
     28          1           0       -2.695727   -2.183547   -1.730299
     29          1           0       -2.003874   -0.766783   -2.589059
 ---------------------------------------------------------------------
 Rotational constants (GHZ):           0.5800436           0.3347365           0.3149918
   427 basis functions,  1056 primitive gaussians,   461 cartesian basis functions
    77 alpha electrons       72 beta electrons
       nuclear repulsion energy      1643.4379678309 Hartrees.
 NAtoms=   29 NActive=   29 NUniq=   29 SFac= 1.00D+00 NAtFMM=   60 NAOKFM=F Big=F
 ExpMin= 1.40D-02 ExpMax= 4.32D+06 ExpMxC= 4.91D+03 IAcc=3 IRadAn=         5 AccDes= 0.00D+00
 Harris functional with IExCor= 1009 and IRadAn=       5 diagonalized for initial guess.
 HarFok:  IExCor= 1009 AccDes= 0.00D+00 IRadAn=         5 IDoV= 1 UseB2=F ITyADJ=14
 ICtDFT=  3500011 ScaDFX=  1.000000  1.000000  1.000000  1.000000
 FoFCou: FMM=F IPFlag=           0 FMFlag=      100000 FMFlg1=           0
         NFxFlg=           0 DoJE=T BraDBF=F KetDBF=T FulRan=T
         wScrn=  0.000000 ICntrl=       500 IOpCl=  0 I1Cent=   200000004 NGrid=           0
         NMat0=    1 NMatS0=      1 NMatT0=    0 NMatD0=    1 NMtDS0=    0 NMtDT0=    0
 Petite list used in FoFCou.
 Initial guess <Sx>= 0.0000 <Sy>= 0.0000 <Sz>= 2.5000 <S**2>= 8.7500 S= 2.5000
 EnCoef did   100 forward-backward iterations
 SCF Done:  E(UPBE1PBE) =  -3033.11817311     A.U. after   20 cycles
            NFock= 20  Conv=0.71D-08     -V/T= 2.0021
 <Sx>= 0.0000 <Sy>= 0.0000 <Sz>= 2.5000 <S**2>= 8.7626 S= 2.5021
 <L.S>= 0.000000000000E+00
 Annihilation of the first spin contaminant:
 S**2 before annihilation     8.7626,   after     8.7500
 1\1\GINC-HOLY7C10503\SP\UPBE1PBE\Jul-CC-pVDZ\C8H16Cl3Fe1O1(6)\EKWAN\11
 -Feb-2020\0\\#t pop=none jul-cc-pvdz upbe1pbe\\theory_abbreviation pbe
 0\\0,6\O,0,-0.300046,-0.172832,-0.730433\C,0,-1.172599,-1.098773,-0.61
 6915\C,0,-3.051108,-0.09721,0.253757\C,0,-2.419555,1.029598,-0.171963\
 C,0,-2.580205,1.551919,-1.566041\Fe,0,1.448378,0.095091,0.035779\Cl,0,
 2.082502,2.020006,-0.782567\C,0,-1.568473,1.8801,0.716656\Cl,0,2.54309
 5,-1.669369,-0.673904\Cl,0,1.245201,0.099709,2.231919\H,0,-3.741886,-0
 .568881,-0.442231\H,0,-2.172685,2.732352,1.059705\H,0,-1.194042,1.3604
 47,1.598053\H,0,-0.718941,2.295351,0.165651\H,0,-2.899447,2.600828,-1.
 521488\H,0,-1.612477,1.542765,-2.082864\H,0,-3.318105,0.995878,-2.1490
 68\C,0,-3.222641,-0.497791,1.697073\H,0,-4.096631,0.018284,2.116202\H,
 0,-3.408039,-1.570279,1.800548\H,0,-2.363194,-0.238927,2.319758\C,0,-1
 .016789,-2.114716,0.480068\H,0,-1.890983,-2.757978,0.583091\H,0,-0.162
 588,-2.737551,0.175178\H,0,-0.756117,-1.656062,1.433569\C,0,-1.799805,
 -1.584142,-1.899182\H,0,-1.039237,-2.225405,-2.366861\H,0,-2.695727,-2
 .183547,-1.730299\H,0,-2.003874,-0.766783,-2.589059\\Version=ES64L-G16
 RevA.03\HF=-3033.1181731\S2=8.762572\S2-1=0.\S2A=8.750049\RMSD=7.067e-
 09\PG=C01 [X(C8H16Cl3Fe1O1)]\\@


     ON THE SURVIVAL OF THE FITTEST -
 "STRONG REPRESENTATIVES FROM EACH PAST ERA THRIVE TODAY,
 SUCH AS PROGRAMMING IN THE THIRTY YEAR OLD LANGUAGE KNOWN
 AS FORTRAN, AND EVEN IN THE ANCIENT SCRIPT KNOWN AS DIRECT
 MACHINE CODE. SOME PEOPLE MIGHT LOOK ON SUCH RELICS AS LIVING
 FOSSILS; OTHERS WOULD POINT OUT THAT EVEN A VERY OLD SPECIES
 MIGHT STILL BE FILLING A PARTICULAR ECOLOGICAL NICHE."
     -- ALAN KAY, SCI.AM. SEPTEMBER 1984
 Job cpu time:       0 days  1 hours 24 minutes 57.5 seconds.
 Elapsed time:       0 days  0 hours 21 minutes 19.7 seconds.
 File lengths (MBytes):  RWF=    173 Int=      0 D2E=      0 Chk=     13 Scr=      1
 Normal termination of Gaussian 16 at Tue Feb 11 20:05:34 2020.
 Initial command:
 /n/sw/g16_nehalem/g16/l1.exe "/scratch/Gau-431635.inp" -scrdir="/scratch/"
 Entering Link 1 = /n/sw/g16_nehalem/g16/l1.exe PID=    432997.
  
 Copyright (c) 1988,1990,1992,1993,1995,1998,2003,2009,2016,
            Gaussian, Inc.  All Rights Reserved.
  
 This is part of the Gaussian(R) 16 program.  It is based on
 the Gaussian(R) 09 system (copyright 2009, Gaussian, Inc.),
 the Gaussian(R) 03 system (copyright 2003, Gaussian, Inc.),
 the Gaussian(R) 98 system (copyright 1998, Gaussian, Inc.),
 the Gaussian(R) 94 system (copyright 1995, Gaussian, Inc.),
 the Gaussian 92(TM) system (copyright 1992, Gaussian, Inc.),
 the Gaussian 90(TM) system (copyright 1990, Gaussian, Inc.),
 the Gaussian 88(TM) system (copyright 1988, Gaussian, Inc.),
 the Gaussian 86(TM) system (copyright 1986, Carnegie Mellon
 University), and the Gaussian 82(TM) system (copyright 1983,
 Carnegie Mellon University). Gaussian is a federally registered
 trademark of Gaussian, Inc.
  
 This software contains proprietary and confidential information,
 including trade secrets, belonging to Gaussian, Inc.
  
 This software is provided under written license and may be
 used, copied, transmitted, or stored only in accord with that
 written license.
  
 The following legend is applicable only to US Government
 contracts under FAR:
  
                    RESTRICTED RIGHTS LEGEND
  
 Use, reproduction and disclosure by the US Government is
 subject to restrictions as set forth in subparagraphs (a)
 and (c) of the Commercial Computer Software - Restricted
 Rights clause in FAR 52.227-19.
  
 Gaussian, Inc.
 340 Quinnipiac St., Bldg. 40, Wallingford CT 06492
  
  
 ---------------------------------------------------------------
 Warning -- This program may not be used in any manner that
 competes with the business of Gaussian, Inc. or will provide
 assistance to any competitor of Gaussian, Inc.  The licensee
 of this program is prohibited from giving any competitor of
 Gaussian, Inc. access to this program.  By using this program,
 the user acknowledges that Gaussian, Inc. is engaged in the
 business of creating and licensing software in the field of
 computational chemistry and represents and warrants to the
 licensee that it is not a competitor of Gaussian, Inc. and that
 it will not use this program in any manner prohibited above.
 ---------------------------------------------------------------
  

 Cite this work as:
 Gaussian 16, Revision A.03,
 M. J. Frisch, G. W. Trucks, H. B. Schlegel, G. E. Scuseria, 
 M. A. Robb, J. R. Cheeseman, G. Scalmani, V. Barone, 
 G. A. Petersson, H. Nakatsuji, X. Li, M. Caricato, A. V. Marenich, 
 J. Bloino, B. G. Janesko, R. Gomperts, B. Mennucci, H. P. Hratchian, 
 J. V. Ortiz, A. F. Izmaylov, J. L. Sonnenberg, D. Williams-Young, 
 F. Ding, F. Lipparini, F. Egidi, J. Goings, B. Peng, A. Petrone, 
 T. Henderson, D. Ranasinghe, V. G. Zakrzewski, J. Gao, N. Rega, 
 G. Zheng, W. Liang, M. Hada, M. Ehara, K. Toyota, R. Fukuda, 
 J. Hasegawa, M. Ishida, T. Nakajima, Y. Honda, O. Kitao, H. Nakai, 
 T. Vreven, K. Throssell, J. A. Montgomery, Jr., J. E. Peralta, 
 F. Ogliaro, M. J. Bearpark, J. J. Heyd, E. N. Brothers, K. N. Kudin, 
 V. N. Staroverov, T. A. Keith, R. Kobayashi, J. Normand, 
 K. Raghavachari, A. P. Rendell, J. C. Burant, S. S. Iyengar, 
 J. Tomasi, M. Cossi, J. M. Millam, M. Klene, C. Adamo, R. Cammi, 
 J. W. Ochterski, R. L. Martin, K. Morokuma, O. Farkas, 
 J. B. Foresman, and D. J. Fox, Gaussian, Inc., Wallingford CT, 2016.
 
 ******************************************
 Gaussian 16:  ES64L-G16RevA.03 25-Dec-2016
                11-Feb-2020 
 ******************************************
 %chk=checkpoint.chk
 %mem=3GB
 %nprocshared=4
 Will use up to    4 processors via shared memory.
 ---------------------------------------------------------------------
 #t pop=none jul-cc-pvdz guess=read upbe1pbe empiricaldispersion=gd3bj
 ---------------------------------------------------------------------
 -----------------------------
 theory_abbreviation pbe0_d3bj
 -----------------------------
 Symbolic Z-matrix:
 Charge =  0 Multiplicity = 6
 O                    -0.30005  -0.17283  -0.73043 
 C                    -1.1726   -1.09877  -0.61692 
 C                    -3.05111  -0.09721   0.25376 
 C                    -2.41956   1.0296   -0.17196 
 C                    -2.58021   1.55192  -1.56604 
 Fe                    1.44838   0.09509   0.03578 
 Cl                    2.0825    2.02001  -0.78257 
 C                    -1.56847   1.8801    0.71666 
 Cl                    2.5431   -1.66937  -0.6739 
 Cl                    1.2452    0.09971   2.23192 
 H                    -3.74189  -0.56888  -0.44223 
 H                    -2.17268   2.73235   1.05971 
 H                    -1.19404   1.36045   1.59805 
 H                    -0.71894   2.29535   0.16565 
 H                    -2.89945   2.60083  -1.52149 
 H                    -1.61248   1.54277  -2.08286 
 H                    -3.31811   0.99588  -2.14907 
 C                    -3.22264  -0.49779   1.69707 
 H                    -4.09663   0.01828   2.1162 
 H                    -3.40804  -1.57028   1.80055 
 H                    -2.36319  -0.23893   2.31976 
 C                    -1.01679  -2.11472   0.48007 
 H                    -1.89098  -2.75798   0.58309 
 H                    -0.16259  -2.73755   0.17518 
 H                    -0.75612  -1.65606   1.43357 
 C                    -1.79981  -1.58414  -1.89918 
 H                    -1.03924  -2.22541  -2.36686 
 H                    -2.69573  -2.18355  -1.7303 
 H                    -2.00387  -0.76678  -2.58906 
 
                    Distance matrix (angstroms):
                    1          2          3          4          5
     1  O    0.000000
     2  C    1.277342   0.000000
     3  C    2.922788   2.299999   0.000000
     4  C    2.500009   2.506560   1.360071   0.000000
     5  C    2.978612   3.147755   2.500608   1.497358   0.000000
     6  Fe   1.927654   2.953107   4.508866   3.984641   4.573582
     7  Cl   3.238486   4.511087   5.648940   4.649974   4.751187
     8  C    2.813806   3.287676   2.514406   1.495773   2.518335
     9  Cl   3.213451   3.759682   5.884500   5.671355   6.117255
    10  Cl   3.352252   3.924025   4.733938   4.480377   5.582754
    11  H    3.476518   2.629170   1.088139   2.092066   2.666504
    12  H    3.892488   4.299854   3.070440   2.115968   2.907583
    13  H    2.927801   3.309729   2.716724   2.178141   3.459711
    14  H    2.659016   3.512591   3.342322   2.146672   2.648726
    15  H    3.882762   4.181782   3.233250   2.126094   1.097320
    16  H    2.548493   3.052904   3.196713   2.136880   1.097127
    17  H    3.533707   3.367232   2.653243   2.171975   1.092519
    18  C    3.813128   3.149348   1.507664   2.543847   3.906654
    19  H    4.749096   4.155443   2.138962   3.011817   4.267376
    20  H    4.244802   3.326205   2.165616   3.409877   4.665549
    21  H    3.683017   3.283428   2.182125   2.796606   4.284117
    22  C    2.397905   1.503259   2.874022   3.504227   4.480518
    23  H    3.307477   2.170035   2.921307   3.898106   4.865080
    24  H    2.723382   2.081616   3.914221   4.405204   5.222669
    25  H    2.662870   2.165297   3.014790   3.543660   4.755639
    26  C    2.367920   1.507707   2.900323   3.193589   3.248828
    27  H    2.727152   2.085521   3.929946   4.161478   4.157412
    28  H    3.283595   2.176299   2.900961   3.581757   3.740860
    29  H    2.590424   2.165776   3.102681   3.040087   2.599058
                    6          7          8          9         10
     6  Fe   0.000000
     7  Cl   2.185658   0.000000
     8  C    3.570888   3.949286   0.000000
     9  Cl   2.194396   3.719602   5.606905   0.000000
    10  Cl   2.205523   3.670932   3.658220   3.641150   0.000000
    11  H    5.254350   6.382919   3.473363   6.384805   5.698169
    12  H    4.595179   4.691271   1.099585   6.679755   4.470664
    13  H    3.320272   4.103427   1.089540   5.320504   2.818005
    14  H    3.091162   2.970356   1.094415   5.202378   3.598355
    15  H    5.254273   5.069830   2.701894   6.969523   6.125501
    16  H    3.994151   3.946061   2.820114   5.437992   5.372717
    17  H    5.320182   5.664161   3.472094   6.605552   6.389047
    18  C    4.992978   6.374359   3.058080   6.343330   4.539238
    19  H    5.922937   7.112766   3.437538   7.397217   5.343706
    20  H    5.428872   7.050438   4.057578   6.445830   4.962619
    21  H    4.456031   5.872939   2.773408   5.922824   3.625314
    22  C    3.340313   5.319378   4.039664   3.768655   3.617908
    23  H    4.426159   6.362604   4.651196   4.735626   4.551995
    24  H    3.261672   5.347154   4.857202   3.030293   3.776519
    25  H    3.143271   5.146114   3.698422   3.914897   2.779455
    26  C    4.136978   5.413781   4.347079   4.513242   5.401242
    27  H    4.164806   5.502614   5.161719   4.001048   5.636807
    28  H    5.048250   6.434246   4.875604   5.368948   6.036832
    29  H    4.421611   5.265745   4.257149   5.015716   5.877850
                   11         12         13         14         15
    11  H    0.000000
    12  H    3.951752   0.000000
    13  H    3.791645   1.769091   0.000000
    14  H    4.208508   1.761725   1.775258   0.000000
    15  H    3.452760   2.684779   3.765433   2.773871   0.000000
    16  H    3.418349   3.406566   3.709107   2.533893   1.758105
    17  H    2.354008   3.824075   4.322669   3.715132   1.773414
    18  C    2.202565   3.455788   2.752829   4.051593   4.479401
    19  H    2.648808   3.490547   3.239584   4.516467   4.619044
    20  H    2.478772   4.537354   3.678579   4.984700   5.356559
    21  H    3.104552   3.233037   2.108500   3.710298   4.806969
    22  C    3.265945   5.016587   3.654869   4.431282   5.457745
    23  H    3.044548   5.518174   4.298523   5.204236   5.844917
    24  H    4.230331   5.894295   4.458930   5.063568   6.234369
    25  H    3.689906   4.626512   3.052566   4.150020   5.607793
    26  C    2.631566   5.246539   4.611747   4.525734   4.343482
    27  H    3.708448   6.132325   5.348163   5.191670   5.240950
    28  H    2.315322   5.676597   5.088505   5.250032   4.793261
    29  H    2.769246   5.058253   4.765799   4.314643   3.644525
                   16         17         18         19         20
    16  H    0.000000
    17  H    1.792383   0.000000
    18  C    4.587420   4.127101   0.000000
    19  H    5.111479   4.444583   1.098117   0.000000
    20  H    5.291122   4.710915   1.093302   1.759923   0.000000
    21  H    4.808439   4.733604   1.092427   1.764199   1.770248
    22  C    4.505622   4.678056   2.993548   4.088037   2.785347
    23  H    5.067669   4.857243   2.850038   3.863023   2.279098
    24  H    5.051934   5.412753   4.086149   5.180627   3.812782
    25  H    4.830233   5.141192   2.737657   3.798481   2.678567
    26  C    3.137894   3.004027   4.017172   4.895558   4.034180
    27  H    3.822089   3.951878   4.926202   5.871938   4.838152
    28  H    3.896554   3.266721   3.855683   4.648243   3.653815
    29  H    2.396547   2.242269   4.464155   5.209169   4.678241
                   21         22         23         24         25
    21  H    0.000000
    22  C    2.952262   0.000000
    23  H    3.095903   1.090236   0.000000
    24  H    3.960431   1.100246   1.775995   0.000000
    25  H    2.318685   1.089714   1.795954   1.762227   0.000000
    26  C    4.463907   2.560362   2.747341   2.883366   3.493091
    27  H    5.259596   2.849168   3.116299   2.737292   3.853255
    28  H    4.505007   2.776561   2.515821   3.217850   3.748385
    29  H    4.950174   3.494396   3.747017   3.862029   4.304562
                   26         27         28         29
    26  C    0.000000
    27  H    1.099275   0.000000
    28  H    1.091093   1.775084   0.000000
    29  H    1.088876   1.762803   1.795369   0.000000
 Framework group  C1[X(C8H16Cl3FeO)]
 Deg. of freedom    81
                         Standard orientation:                         
 ---------------------------------------------------------------------
 Center     Atomic      Atomic             Coordinates (Angstroms)
 Number     Number       Type             X           Y           Z
 ---------------------------------------------------------------------
      1          8           0       -0.300046   -0.172832   -0.730433
      2          6           0       -1.172599   -1.098773   -0.616915
      3          6           0       -3.051108   -0.097210    0.253757
      4          6           0       -2.419555    1.029598   -0.171963
      5          6           0       -2.580205    1.551919   -1.566041
      6         26           0        1.448378    0.095091    0.035779
      7         17           0        2.082502    2.020006   -0.782567
      8          6           0       -1.568473    1.880100    0.716656
      9         17           0        2.543095   -1.669369   -0.673904
     10         17           0        1.245201    0.099709    2.231919
     11          1           0       -3.741886   -0.568881   -0.442231
     12          1           0       -2.172685    2.732352    1.059705
     13          1           0       -1.194042    1.360447    1.598053
     14          1           0       -0.718941    2.295351    0.165651
     15          1           0       -2.899447    2.600828   -1.521488
     16          1           0       -1.612477    1.542765   -2.082864
     17          1           0       -3.318105    0.995878   -2.149068
     18          6           0       -3.222641   -0.497791    1.697073
     19          1           0       -4.096631    0.018284    2.116202
     20          1           0       -3.408039   -1.570279    1.800548
     21          1           0       -2.363194   -0.238927    2.319758
     22          6           0       -1.016789   -2.114716    0.480068
     23          1           0       -1.890983   -2.757978    0.583091
     24          1           0       -0.162588   -2.737551    0.175178
     25          1           0       -0.756117   -1.656062    1.433569
     26          6           0       -1.799805   -1.584142   -1.899182
     27          1           0       -1.039237   -2.225405   -2.366861
     28          1           0       -2.695727   -2.183547   -1.730299
     29          1           0       -2.003874   -0.766783   -2.589059
 ---------------------------------------------------------------------
 Rotational constants (GHZ):           0.5800436           0.3347365           0.3149918
   427 basis functions,  1056 primitive gaussians,   461 cartesian basis functions
    77 alpha electrons       72 beta electrons
       nuclear repulsion energy      1643.4379678309 Hartrees.
 NAtoms=   29 NActive=   29 NUniq=   29 SFac= 1.00D+00 NAtFMM=   60 NAOKFM=F Big=F
 Nuclear repulsion after empirical dispersion term =     1643.4002592659 Hartrees.
 Initial guess from the checkpoint file:  "checkpoint.chk"
 B after Tr=     0.000000    0.000000    0.000000
         Rot=    1.000000    0.000000    0.000000    0.000000 Ang=   0.00 deg.
 Initial guess <Sx>= 0.0000 <Sy>= 0.0000 <Sz>= 2.5000 <S**2>= 8.7626 S= 2.5021
 SCF Done:  E(UPBE1PBE) =  -3033.15588168     A.U. after    1 cycles
            NFock=  1  Conv=0.27D-08     -V/T= 2.0021
 <Sx>= 0.0000 <Sy>= 0.0000 <Sz>= 2.5000 <S**2>= 8.7626 S= 2.5021
 <L.S>= 0.000000000000E+00
 Annihilation of the first spin contaminant:
 S**2 before annihilation     8.7626,   after     8.7500
 1\1\GINC-HOLY7C10503\SP\UPBE1PBE\Jul-CC-pVDZ\C8H16Cl3Fe1O1(6)\EKWAN\11
 -Feb-2020\0\\#t pop=none jul-cc-pvdz guess=read upbe1pbe empiricaldisp
 ersion=gd3bj\\theory_abbreviation pbe0_d3bj\\0,6\O,0,-0.300046,-0.1728
 32,-0.730433\C,0,-1.172599,-1.098773,-0.616915\C,0,-3.051108,-0.09721,
 0.253757\C,0,-2.419555,1.029598,-0.171963\C,0,-2.580205,1.551919,-1.56
 6041\Fe,0,1.448378,0.095091,0.035779\Cl,0,2.082502,2.020006,-0.782567\
 C,0,-1.568473,1.8801,0.716656\Cl,0,2.543095,-1.669369,-0.673904\Cl,0,1
 .245201,0.099709,2.231919\H,0,-3.741886,-0.568881,-0.442231\H,0,-2.172
 685,2.732352,1.059705\H,0,-1.194042,1.360447,1.598053\H,0,-0.718941,2.
 295351,0.165651\H,0,-2.899447,2.600828,-1.521488\H,0,-1.612477,1.54276
 5,-2.082864\H,0,-3.318105,0.995878,-2.149068\C,0,-3.222641,-0.497791,1
 .697073\H,0,-4.096631,0.018284,2.116202\H,0,-3.408039,-1.570279,1.8005
 48\H,0,-2.363194,-0.238927,2.319758\C,0,-1.016789,-2.114716,0.480068\H
 ,0,-1.890983,-2.757978,0.583091\H,0,-0.162588,-2.737551,0.175178\H,0,-
 0.756117,-1.656062,1.433569\C,0,-1.799805,-1.584142,-1.899182\H,0,-1.0
 39237,-2.225405,-2.366861\H,0,-2.695727,-2.183547,-1.730299\H,0,-2.003
 874,-0.766783,-2.589059\\Version=ES64L-G16RevA.03\HF=-3033.1558817\S2=
 8.762572\S2-1=0.\S2A=8.750049\RMSD=2.738e-09\PG=C01 [X(C8H16Cl3Fe1O1)]
 \\@


 ADAM SMITH SAID, "THE REAL PRICE OF ANYTHING IS THE TOIL AND TROUBLE
 OF ACQUIRING IT."  BUT IN ALL UNDERTAKINGS WITH NATURE WE SHOULD FIRST
 READ CAREFULLY THE SMALL PRINT IN THE CONTRACT. THIS MIGHT DISCLOSE
 THAT THE REAL PRICE IS TO BE PAID BY THOSE WHO INHERIT THE DEPLETION
 AND DESPOILATION THAT FOLLOWS.
                               -- E. R. HARRISON IN "COSMOLOGY" (1980)
 Job cpu time:       0 days  0 hours  4 minutes 37.0 seconds.
 Elapsed time:       0 days  0 hours  1 minutes 10.0 seconds.
 File lengths (MBytes):  RWF=    170 Int=      0 D2E=      0 Chk=     13 Scr=      1
 Normal termination of Gaussian 16 at Tue Feb 11 20:06:44 2020.
 Initial command:
 /n/sw/g16_nehalem/g16/l1.exe "/scratch/Gau-431635.inp" -scrdir="/scratch/"
 Entering Link 1 = /n/sw/g16_nehalem/g16/l1.exe PID=    433180.
  
 Copyright (c) 1988,1990,1992,1993,1995,1998,2003,2009,2016,
            Gaussian, Inc.  All Rights Reserved.
  
 This is part of the Gaussian(R) 16 program.  It is based on
 the Gaussian(R) 09 system (copyright 2009, Gaussian, Inc.),
 the Gaussian(R) 03 system (copyright 2003, Gaussian, Inc.),
 the Gaussian(R) 98 system (copyright 1998, Gaussian, Inc.),
 the Gaussian(R) 94 system (copyright 1995, Gaussian, Inc.),
 the Gaussian 92(TM) system (copyright 1992, Gaussian, Inc.),
 the Gaussian 90(TM) system (copyright 1990, Gaussian, Inc.),
 the Gaussian 88(TM) system (copyright 1988, Gaussian, Inc.),
 the Gaussian 86(TM) system (copyright 1986, Carnegie Mellon
 University), and the Gaussian 82(TM) system (copyright 1983,
 Carnegie Mellon University). Gaussian is a federally registered
 trademark of Gaussian, Inc.
  
 This software contains proprietary and confidential information,
 including trade secrets, belonging to Gaussian, Inc.
  
 This software is provided under written license and may be
 used, copied, transmitted, or stored only in accord with that
 written license.
  
 The following legend is applicable only to US Government
 contracts under FAR:
  
                    RESTRICTED RIGHTS LEGEND
  
 Use, reproduction and disclosure by the US Government is
 subject to restrictions as set forth in subparagraphs (a)
 and (c) of the Commercial Computer Software - Restricted
 Rights clause in FAR 52.227-19.
  
 Gaussian, Inc.
 340 Quinnipiac St., Bldg. 40, Wallingford CT 06492
  
  
 ---------------------------------------------------------------
 Warning -- This program may not be used in any manner that
 competes with the business of Gaussian, Inc. or will provide
 assistance to any competitor of Gaussian, Inc.  The licensee
 of this program is prohibited from giving any competitor of
 Gaussian, Inc. access to this program.  By using this program,
 the user acknowledges that Gaussian, Inc. is engaged in the
 business of creating and licensing software in the field of
 computational chemistry and represents and warrants to the
 licensee that it is not a competitor of Gaussian, Inc. and that
 it will not use this program in any manner prohibited above.
 ---------------------------------------------------------------
  

 Cite this work as:
 Gaussian 16, Revision A.03,
 M. J. Frisch, G. W. Trucks, H. B. Schlegel, G. E. Scuseria, 
 M. A. Robb, J. R. Cheeseman, G. Scalmani, V. Barone, 
 G. A. Petersson, H. Nakatsuji, X. Li, M. Caricato, A. V. Marenich, 
 J. Bloino, B. G. Janesko, R. Gomperts, B. Mennucci, H. P. Hratchian, 
 J. V. Ortiz, A. F. Izmaylov, J. L. Sonnenberg, D. Williams-Young, 
 F. Ding, F. Lipparini, F. Egidi, J. Goings, B. Peng, A. Petrone, 
 T. Henderson, D. Ranasinghe, V. G. Zakrzewski, J. Gao, N. Rega, 
 G. Zheng, W. Liang, M. Hada, M. Ehara, K. Toyota, R. Fukuda, 
 J. Hasegawa, M. Ishida, T. Nakajima, Y. Honda, O. Kitao, H. Nakai, 
 T. Vreven, K. Throssell, J. A. Montgomery, Jr., J. E. Peralta, 
 F. Ogliaro, M. J. Bearpark, J. J. Heyd, E. N. Brothers, K. N. Kudin, 
 V. N. Staroverov, T. A. Keith, R. Kobayashi, J. Normand, 
 K. Raghavachari, A. P. Rendell, J. C. Burant, S. S. Iyengar, 
 J. Tomasi, M. Cossi, J. M. Millam, M. Klene, C. Adamo, R. Cammi, 
 J. W. Ochterski, R. L. Martin, K. Morokuma, O. Farkas, 
 J. B. Foresman, and D. J. Fox, Gaussian, Inc., Wallingford CT, 2016.
 
 ******************************************
 Gaussian 16:  ES64L-G16RevA.03 25-Dec-2016
                11-Feb-2020 
 ******************************************
 %chk=checkpoint.chk
 %mem=3GB
 %nprocshared=4
 Will use up to    4 processors via shared memory.
 -----------------------------------------
 #t pop=none jul-cc-pvdz guess=read ub3lyp
 -----------------------------------------
 -------------------------
 theory_abbreviation b3lyp
 -------------------------
 Symbolic Z-matrix:
 Charge =  0 Multiplicity = 6
 O                    -0.30005  -0.17283  -0.73043 
 C                    -1.1726   -1.09877  -0.61692 
 C                    -3.05111  -0.09721   0.25376 
 C                    -2.41956   1.0296   -0.17196 
 C                    -2.58021   1.55192  -1.56604 
 Fe                    1.44838   0.09509   0.03578 
 Cl                    2.0825    2.02001  -0.78257 
 C                    -1.56847   1.8801    0.71666 
 Cl                    2.5431   -1.66937  -0.6739 
 Cl                    1.2452    0.09971   2.23192 
 H                    -3.74189  -0.56888  -0.44223 
 H                    -2.17268   2.73235   1.05971 
 H                    -1.19404   1.36045   1.59805 
 H                    -0.71894   2.29535   0.16565 
 H                    -2.89945   2.60083  -1.52149 
 H                    -1.61248   1.54277  -2.08286 
 H                    -3.31811   0.99588  -2.14907 
 C                    -3.22264  -0.49779   1.69707 
 H                    -4.09663   0.01828   2.1162 
 H                    -3.40804  -1.57028   1.80055 
 H                    -2.36319  -0.23893   2.31976 
 C                    -1.01679  -2.11472   0.48007 
 H                    -1.89098  -2.75798   0.58309 
 H                    -0.16259  -2.73755   0.17518 
 H                    -0.75612  -1.65606   1.43357 
 C                    -1.79981  -1.58414  -1.89918 
 H                    -1.03924  -2.22541  -2.36686 
 H                    -2.69573  -2.18355  -1.7303 
 H                    -2.00387  -0.76678  -2.58906 
 
                    Distance matrix (angstroms):
                    1          2          3          4          5
     1  O    0.000000
     2  C    1.277342   0.000000
     3  C    2.922788   2.299999   0.000000
     4  C    2.500009   2.506560   1.360071   0.000000
     5  C    2.978612   3.147755   2.500608   1.497358   0.000000
     6  Fe   1.927654   2.953107   4.508866   3.984641   4.573582
     7  Cl   3.238486   4.511087   5.648940   4.649974   4.751187
     8  C    2.813806   3.287676   2.514406   1.495773   2.518335
     9  Cl   3.213451   3.759682   5.884500   5.671355   6.117255
    10  Cl   3.352252   3.924025   4.733938   4.480377   5.582754
    11  H    3.476518   2.629170   1.088139   2.092066   2.666504
    12  H    3.892488   4.299854   3.070440   2.115968   2.907583
    13  H    2.927801   3.309729   2.716724   2.178141   3.459711
    14  H    2.659016   3.512591   3.342322   2.146672   2.648726
    15  H    3.882762   4.181782   3.233250   2.126094   1.097320
    16  H    2.548493   3.052904   3.196713   2.136880   1.097127
    17  H    3.533707   3.367232   2.653243   2.171975   1.092519
    18  C    3.813128   3.149348   1.507664   2.543847   3.906654
    19  H    4.749096   4.155443   2.138962   3.011817   4.267376
    20  H    4.244802   3.326205   2.165616   3.409877   4.665549
    21  H    3.683017   3.283428   2.182125   2.796606   4.284117
    22  C    2.397905   1.503259   2.874022   3.504227   4.480518
    23  H    3.307477   2.170035   2.921307   3.898106   4.865080
    24  H    2.723382   2.081616   3.914221   4.405204   5.222669
    25  H    2.662870   2.165297   3.014790   3.543660   4.755639
    26  C    2.367920   1.507707   2.900323   3.193589   3.248828
    27  H    2.727152   2.085521   3.929946   4.161478   4.157412
    28  H    3.283595   2.176299   2.900961   3.581757   3.740860
    29  H    2.590424   2.165776   3.102681   3.040087   2.599058
                    6          7          8          9         10
     6  Fe   0.000000
     7  Cl   2.185658   0.000000
     8  C    3.570888   3.949286   0.000000
     9  Cl   2.194396   3.719602   5.606905   0.000000
    10  Cl   2.205523   3.670932   3.658220   3.641150   0.000000
    11  H    5.254350   6.382919   3.473363   6.384805   5.698169
    12  H    4.595179   4.691271   1.099585   6.679755   4.470664
    13  H    3.320272   4.103427   1.089540   5.320504   2.818005
    14  H    3.091162   2.970356   1.094415   5.202378   3.598355
    15  H    5.254273   5.069830   2.701894   6.969523   6.125501
    16  H    3.994151   3.946061   2.820114   5.437992   5.372717
    17  H    5.320182   5.664161   3.472094   6.605552   6.389047
    18  C    4.992978   6.374359   3.058080   6.343330   4.539238
    19  H    5.922937   7.112766   3.437538   7.397217   5.343706
    20  H    5.428872   7.050438   4.057578   6.445830   4.962619
    21  H    4.456031   5.872939   2.773408   5.922824   3.625314
    22  C    3.340313   5.319378   4.039664   3.768655   3.617908
    23  H    4.426159   6.362604   4.651196   4.735626   4.551995
    24  H    3.261672   5.347154   4.857202   3.030293   3.776519
    25  H    3.143271   5.146114   3.698422   3.914897   2.779455
    26  C    4.136978   5.413781   4.347079   4.513242   5.401242
    27  H    4.164806   5.502614   5.161719   4.001048   5.636807
    28  H    5.048250   6.434246   4.875604   5.368948   6.036832
    29  H    4.421611   5.265745   4.257149   5.015716   5.877850
                   11         12         13         14         15
    11  H    0.000000
    12  H    3.951752   0.000000
    13  H    3.791645   1.769091   0.000000
    14  H    4.208508   1.761725   1.775258   0.000000
    15  H    3.452760   2.684779   3.765433   2.773871   0.000000
    16  H    3.418349   3.406566   3.709107   2.533893   1.758105
    17  H    2.354008   3.824075   4.322669   3.715132   1.773414
    18  C    2.202565   3.455788   2.752829   4.051593   4.479401
    19  H    2.648808   3.490547   3.239584   4.516467   4.619044
    20  H    2.478772   4.537354   3.678579   4.984700   5.356559
    21  H    3.104552   3.233037   2.108500   3.710298   4.806969
    22  C    3.265945   5.016587   3.654869   4.431282   5.457745
    23  H    3.044548   5.518174   4.298523   5.204236   5.844917
    24  H    4.230331   5.894295   4.458930   5.063568   6.234369
    25  H    3.689906   4.626512   3.052566   4.150020   5.607793
    26  C    2.631566   5.246539   4.611747   4.525734   4.343482
    27  H    3.708448   6.132325   5.348163   5.191670   5.240950
    28  H    2.315322   5.676597   5.088505   5.250032   4.793261
    29  H    2.769246   5.058253   4.765799   4.314643   3.644525
                   16         17         18         19         20
    16  H    0.000000
    17  H    1.792383   0.000000
    18  C    4.587420   4.127101   0.000000
    19  H    5.111479   4.444583   1.098117   0.000000
    20  H    5.291122   4.710915   1.093302   1.759923   0.000000
    21  H    4.808439   4.733604   1.092427   1.764199   1.770248
    22  C    4.505622   4.678056   2.993548   4.088037   2.785347
    23  H    5.067669   4.857243   2.850038   3.863023   2.279098
    24  H    5.051934   5.412753   4.086149   5.180627   3.812782
    25  H    4.830233   5.141192   2.737657   3.798481   2.678567
    26  C    3.137894   3.004027   4.017172   4.895558   4.034180
    27  H    3.822089   3.951878   4.926202   5.871938   4.838152
    28  H    3.896554   3.266721   3.855683   4.648243   3.653815
    29  H    2.396547   2.242269   4.464155   5.209169   4.678241
                   21         22         23         24         25
    21  H    0.000000
    22  C    2.952262   0.000000
    23  H    3.095903   1.090236   0.000000
    24  H    3.960431   1.100246   1.775995   0.000000
    25  H    2.318685   1.089714   1.795954   1.762227   0.000000
    26  C    4.463907   2.560362   2.747341   2.883366   3.493091
    27  H    5.259596   2.849168   3.116299   2.737292   3.853255
    28  H    4.505007   2.776561   2.515821   3.217850   3.748385
    29  H    4.950174   3.494396   3.747017   3.862029   4.304562
                   26         27         28         29
    26  C    0.000000
    27  H    1.099275   0.000000
    28  H    1.091093   1.775084   0.000000
    29  H    1.088876   1.762803   1.795369   0.000000
 Framework group  C1[X(C8H16Cl3FeO)]
 Deg. of freedom    81
                         Standard orientation:                         
 ---------------------------------------------------------------------
 Center     Atomic      Atomic             Coordinates (Angstroms)
 Number     Number       Type             X           Y           Z
 ---------------------------------------------------------------------
      1          8           0       -0.300046   -0.172832   -0.730433
      2          6           0       -1.172599   -1.098773   -0.616915
      3          6           0       -3.051108   -0.097210    0.253757
      4          6           0       -2.419555    1.029598   -0.171963
      5          6           0       -2.580205    1.551919   -1.566041
      6         26           0        1.448378    0.095091    0.035779
      7         17           0        2.082502    2.020006   -0.782567
      8          6           0       -1.568473    1.880100    0.716656
      9         17           0        2.543095   -1.669369   -0.673904
     10         17           0        1.245201    0.099709    2.231919
     11          1           0       -3.741886   -0.568881   -0.442231
     12          1           0       -2.172685    2.732352    1.059705
     13          1           0       -1.194042    1.360447    1.598053
     14          1           0       -0.718941    2.295351    0.165651
     15          1           0       -2.899447    2.600828   -1.521488
     16          1           0       -1.612477    1.542765   -2.082864
     17          1           0       -3.318105    0.995878   -2.149068
     18          6           0       -3.222641   -0.497791    1.697073
     19          1           0       -4.096631    0.018284    2.116202
     20          1           0       -3.408039   -1.570279    1.800548
     21          1           0       -2.363194   -0.238927    2.319758
     22          6           0       -1.016789   -2.114716    0.480068
     23          1           0       -1.890983   -2.757978    0.583091
     24          1           0       -0.162588   -2.737551    0.175178
     25          1           0       -0.756117   -1.656062    1.433569
     26          6           0       -1.799805   -1.584142   -1.899182
     27          1           0       -1.039237   -2.225405   -2.366861
     28          1           0       -2.695727   -2.183547   -1.730299
     29          1           0       -2.003874   -0.766783   -2.589059
 ---------------------------------------------------------------------
 Rotational constants (GHZ):           0.5800436           0.3347365           0.3149918
   427 basis functions,  1056 primitive gaussians,   461 cartesian basis functions
    77 alpha electrons       72 beta electrons
       nuclear repulsion energy      1643.4379678309 Hartrees.
 NAtoms=   29 NActive=   29 NUniq=   29 SFac= 1.00D+00 NAtFMM=   60 NAOKFM=F Big=F
 Initial guess from the checkpoint file:  "checkpoint.chk"
 B after Tr=     0.000000    0.000000    0.000000
         Rot=    1.000000    0.000000    0.000000    0.000000 Ang=   0.00 deg.
 Initial guess <Sx>= 0.0000 <Sy>= 0.0000 <Sz>= 2.5000 <S**2>= 8.7626 S= 2.5021
 SCF Done:  E(UB3LYP) =  -3034.33354324     A.U. after   13 cycles
            NFock= 13  Conv=0.68D-08     -V/T= 2.0024
 <Sx>= 0.0000 <Sy>= 0.0000 <Sz>= 2.5000 <S**2>= 8.7618 S= 2.5020
 <L.S>= 0.000000000000E+00
 Annihilation of the first spin contaminant:
 S**2 before annihilation     8.7618,   after     8.7500
 1\1\GINC-HOLY7C10503\SP\UB3LYP\Jul-CC-pVDZ\C8H16Cl3Fe1O1(6)\EKWAN\11-F
 eb-2020\0\\#t pop=none jul-cc-pvdz guess=read ub3lyp\\theory_abbreviat
 ion b3lyp\\0,6\O,0,-0.300046,-0.172832,-0.730433\C,0,-1.172599,-1.0987
 73,-0.616915\C,0,-3.051108,-0.09721,0.253757\C,0,-2.419555,1.029598,-0
 .171963\C,0,-2.580205,1.551919,-1.566041\Fe,0,1.448378,0.095091,0.0357
 79\Cl,0,2.082502,2.020006,-0.782567\C,0,-1.568473,1.8801,0.716656\Cl,0
 ,2.543095,-1.669369,-0.673904\Cl,0,1.245201,0.099709,2.231919\H,0,-3.7
 41886,-0.568881,-0.442231\H,0,-2.172685,2.732352,1.059705\H,0,-1.19404
 2,1.360447,1.598053\H,0,-0.718941,2.295351,0.165651\H,0,-2.899447,2.60
 0828,-1.521488\H,0,-1.612477,1.542765,-2.082864\H,0,-3.318105,0.995878
 ,-2.149068\C,0,-3.222641,-0.497791,1.697073\H,0,-4.096631,0.018284,2.1
 16202\H,0,-3.408039,-1.570279,1.800548\H,0,-2.363194,-0.238927,2.31975
 8\C,0,-1.016789,-2.114716,0.480068\H,0,-1.890983,-2.757978,0.583091\H,
 0,-0.162588,-2.737551,0.175178\H,0,-0.756117,-1.656062,1.433569\C,0,-1
 .799805,-1.584142,-1.899182\H,0,-1.039237,-2.225405,-2.366861\H,0,-2.6
 95727,-2.183547,-1.730299\H,0,-2.003874,-0.766783,-2.589059\\Version=E
 S64L-G16RevA.03\HF=-3034.3335432\S2=8.761839\S2-1=0.\S2A=8.750043\RMSD
 =6.841e-09\PG=C01 [X(C8H16Cl3Fe1O1)]\\@


 Experience is what you get when you don't get what you want.
 -- Dan Stanford
 Job cpu time:       0 days  0 hours 54 minutes 17.1 seconds.
 Elapsed time:       0 days  0 hours 13 minutes 36.8 seconds.
 File lengths (MBytes):  RWF=    174 Int=      0 D2E=      0 Chk=     13 Scr=      1
 Normal termination of Gaussian 16 at Tue Feb 11 20:20:22 2020.
 Initial command:
 /n/sw/g16_nehalem/g16/l1.exe "/scratch/Gau-431635.inp" -scrdir="/scratch/"
 Entering Link 1 = /n/sw/g16_nehalem/g16/l1.exe PID=    434153.
  
 Copyright (c) 1988,1990,1992,1993,1995,1998,2003,2009,2016,
            Gaussian, Inc.  All Rights Reserved.
  
 This is part of the Gaussian(R) 16 program.  It is based on
 the Gaussian(R) 09 system (copyright 2009, Gaussian, Inc.),
 the Gaussian(R) 03 system (copyright 2003, Gaussian, Inc.),
 the Gaussian(R) 98 system (copyright 1998, Gaussian, Inc.),
 the Gaussian(R) 94 system (copyright 1995, Gaussian, Inc.),
 the Gaussian 92(TM) system (copyright 1992, Gaussian, Inc.),
 the Gaussian 90(TM) system (copyright 1990, Gaussian, Inc.),
 the Gaussian 88(TM) system (copyright 1988, Gaussian, Inc.),
 the Gaussian 86(TM) system (copyright 1986, Carnegie Mellon
 University), and the Gaussian 82(TM) system (copyright 1983,
 Carnegie Mellon University). Gaussian is a federally registered
 trademark of Gaussian, Inc.
  
 This software contains proprietary and confidential information,
 including trade secrets, belonging to Gaussian, Inc.
  
 This software is provided under written license and may be
 used, copied, transmitted, or stored only in accord with that
 written license.
  
 The following legend is applicable only to US Government
 contracts under FAR:
  
                    RESTRICTED RIGHTS LEGEND
  
 Use, reproduction and disclosure by the US Government is
 subject to restrictions as set forth in subparagraphs (a)
 and (c) of the Commercial Computer Software - Restricted
 Rights clause in FAR 52.227-19.
  
 Gaussian, Inc.
 340 Quinnipiac St., Bldg. 40, Wallingford CT 06492
  
  
 ---------------------------------------------------------------
 Warning -- This program may not be used in any manner that
 competes with the business of Gaussian, Inc. or will provide
 assistance to any competitor of Gaussian, Inc.  The licensee
 of this program is prohibited from giving any competitor of
 Gaussian, Inc. access to this program.  By using this program,
 the user acknowledges that Gaussian, Inc. is engaged in the
 business of creating and licensing software in the field of
 computational chemistry and represents and warrants to the
 licensee that it is not a competitor of Gaussian, Inc. and that
 it will not use this program in any manner prohibited above.
 ---------------------------------------------------------------
  

 Cite this work as:
 Gaussian 16, Revision A.03,
 M. J. Frisch, G. W. Trucks, H. B. Schlegel, G. E. Scuseria, 
 M. A. Robb, J. R. Cheeseman, G. Scalmani, V. Barone, 
 G. A. Petersson, H. Nakatsuji, X. Li, M. Caricato, A. V. Marenich, 
 J. Bloino, B. G. Janesko, R. Gomperts, B. Mennucci, H. P. Hratchian, 
 J. V. Ortiz, A. F. Izmaylov, J. L. Sonnenberg, D. Williams-Young, 
 F. Ding, F. Lipparini, F. Egidi, J. Goings, B. Peng, A. Petrone, 
 T. Henderson, D. Ranasinghe, V. G. Zakrzewski, J. Gao, N. Rega, 
 G. Zheng, W. Liang, M. Hada, M. Ehara, K. Toyota, R. Fukuda, 
 J. Hasegawa, M. Ishida, T. Nakajima, Y. Honda, O. Kitao, H. Nakai, 
 T. Vreven, K. Throssell, J. A. Montgomery, Jr., J. E. Peralta, 
 F. Ogliaro, M. J. Bearpark, J. J. Heyd, E. N. Brothers, K. N. Kudin, 
 V. N. Staroverov, T. A. Keith, R. Kobayashi, J. Normand, 
 K. Raghavachari, A. P. Rendell, J. C. Burant, S. S. Iyengar, 
 J. Tomasi, M. Cossi, J. M. Millam, M. Klene, C. Adamo, R. Cammi, 
 J. W. Ochterski, R. L. Martin, K. Morokuma, O. Farkas, 
 J. B. Foresman, and D. J. Fox, Gaussian, Inc., Wallingford CT, 2016.
 
 ******************************************
 Gaussian 16:  ES64L-G16RevA.03 25-Dec-2016
                11-Feb-2020 
 ******************************************
 %chk=checkpoint.chk
 %mem=3GB
 %nprocshared=4
 Will use up to    4 processors via shared memory.
 -------------------------------------------------------------------
 #t pop=none jul-cc-pvdz guess=read ub3lyp empiricaldispersion=gd3bj
 -------------------------------------------------------------------
 ------------------------------
 theory_abbreviation b3lyp_d3bj
 ------------------------------
 Symbolic Z-matrix:
 Charge =  0 Multiplicity = 6
 O                    -0.30005  -0.17283  -0.73043 
 C                    -1.1726   -1.09877  -0.61692 
 C                    -3.05111  -0.09721   0.25376 
 C                    -2.41956   1.0296   -0.17196 
 C                    -2.58021   1.55192  -1.56604 
 Fe                    1.44838   0.09509   0.03578 
 Cl                    2.0825    2.02001  -0.78257 
 C                    -1.56847   1.8801    0.71666 
 Cl                    2.5431   -1.66937  -0.6739 
 Cl                    1.2452    0.09971   2.23192 
 H                    -3.74189  -0.56888  -0.44223 
 H                    -2.17268   2.73235   1.05971 
 H                    -1.19404   1.36045   1.59805 
 H                    -0.71894   2.29535   0.16565 
 H                    -2.89945   2.60083  -1.52149 
 H                    -1.61248   1.54277  -2.08286 
 H                    -3.31811   0.99588  -2.14907 
 C                    -3.22264  -0.49779   1.69707 
 H                    -4.09663   0.01828   2.1162 
 H                    -3.40804  -1.57028   1.80055 
 H                    -2.36319  -0.23893   2.31976 
 C                    -1.01679  -2.11472   0.48007 
 H                    -1.89098  -2.75798   0.58309 
 H                    -0.16259  -2.73755   0.17518 
 H                    -0.75612  -1.65606   1.43357 
 C                    -1.79981  -1.58414  -1.89918 
 H                    -1.03924  -2.22541  -2.36686 
 H                    -2.69573  -2.18355  -1.7303 
 H                    -2.00387  -0.76678  -2.58906 
 
                    Distance matrix (angstroms):
                    1          2          3          4          5
     1  O    0.000000
     2  C    1.277342   0.000000
     3  C    2.922788   2.299999   0.000000
     4  C    2.500009   2.506560   1.360071   0.000000
     5  C    2.978612   3.147755   2.500608   1.497358   0.000000
     6  Fe   1.927654   2.953107   4.508866   3.984641   4.573582
     7  Cl   3.238486   4.511087   5.648940   4.649974   4.751187
     8  C    2.813806   3.287676   2.514406   1.495773   2.518335
     9  Cl   3.213451   3.759682   5.884500   5.671355   6.117255
    10  Cl   3.352252   3.924025   4.733938   4.480377   5.582754
    11  H    3.476518   2.629170   1.088139   2.092066   2.666504
    12  H    3.892488   4.299854   3.070440   2.115968   2.907583
    13  H    2.927801   3.309729   2.716724   2.178141   3.459711
    14  H    2.659016   3.512591   3.342322   2.146672   2.648726
    15  H    3.882762   4.181782   3.233250   2.126094   1.097320
    16  H    2.548493   3.052904   3.196713   2.136880   1.097127
    17  H    3.533707   3.367232   2.653243   2.171975   1.092519
    18  C    3.813128   3.149348   1.507664   2.543847   3.906654
    19  H    4.749096   4.155443   2.138962   3.011817   4.267376
    20  H    4.244802   3.326205   2.165616   3.409877   4.665549
    21  H    3.683017   3.283428   2.182125   2.796606   4.284117
    22  C    2.397905   1.503259   2.874022   3.504227   4.480518
    23  H    3.307477   2.170035   2.921307   3.898106   4.865080
    24  H    2.723382   2.081616   3.914221   4.405204   5.222669
    25  H    2.662870   2.165297   3.014790   3.543660   4.755639
    26  C    2.367920   1.507707   2.900323   3.193589   3.248828
    27  H    2.727152   2.085521   3.929946   4.161478   4.157412
    28  H    3.283595   2.176299   2.900961   3.581757   3.740860
    29  H    2.590424   2.165776   3.102681   3.040087   2.599058
                    6          7          8          9         10
     6  Fe   0.000000
     7  Cl   2.185658   0.000000
     8  C    3.570888   3.949286   0.000000
     9  Cl   2.194396   3.719602   5.606905   0.000000
    10  Cl   2.205523   3.670932   3.658220   3.641150   0.000000
    11  H    5.254350   6.382919   3.473363   6.384805   5.698169
    12  H    4.595179   4.691271   1.099585   6.679755   4.470664
    13  H    3.320272   4.103427   1.089540   5.320504   2.818005
    14  H    3.091162   2.970356   1.094415   5.202378   3.598355
    15  H    5.254273   5.069830   2.701894   6.969523   6.125501
    16  H    3.994151   3.946061   2.820114   5.437992   5.372717
    17  H    5.320182   5.664161   3.472094   6.605552   6.389047
    18  C    4.992978   6.374359   3.058080   6.343330   4.539238
    19  H    5.922937   7.112766   3.437538   7.397217   5.343706
    20  H    5.428872   7.050438   4.057578   6.445830   4.962619
    21  H    4.456031   5.872939   2.773408   5.922824   3.625314
    22  C    3.340313   5.319378   4.039664   3.768655   3.617908
    23  H    4.426159   6.362604   4.651196   4.735626   4.551995
    24  H    3.261672   5.347154   4.857202   3.030293   3.776519
    25  H    3.143271   5.146114   3.698422   3.914897   2.779455
    26  C    4.136978   5.413781   4.347079   4.513242   5.401242
    27  H    4.164806   5.502614   5.161719   4.001048   5.636807
    28  H    5.048250   6.434246   4.875604   5.368948   6.036832
    29  H    4.421611   5.265745   4.257149   5.015716   5.877850
                   11         12         13         14         15
    11  H    0.000000
    12  H    3.951752   0.000000
    13  H    3.791645   1.769091   0.000000
    14  H    4.208508   1.761725   1.775258   0.000000
    15  H    3.452760   2.684779   3.765433   2.773871   0.000000
    16  H    3.418349   3.406566   3.709107   2.533893   1.758105
    17  H    2.354008   3.824075   4.322669   3.715132   1.773414
    18  C    2.202565   3.455788   2.752829   4.051593   4.479401
    19  H    2.648808   3.490547   3.239584   4.516467   4.619044
    20  H    2.478772   4.537354   3.678579   4.984700   5.356559
    21  H    3.104552   3.233037   2.108500   3.710298   4.806969
    22  C    3.265945   5.016587   3.654869   4.431282   5.457745
    23  H    3.044548   5.518174   4.298523   5.204236   5.844917
    24  H    4.230331   5.894295   4.458930   5.063568   6.234369
    25  H    3.689906   4.626512   3.052566   4.150020   5.607793
    26  C    2.631566   5.246539   4.611747   4.525734   4.343482
    27  H    3.708448   6.132325   5.348163   5.191670   5.240950
    28  H    2.315322   5.676597   5.088505   5.250032   4.793261
    29  H    2.769246   5.058253   4.765799   4.314643   3.644525
                   16         17         18         19         20
    16  H    0.000000
    17  H    1.792383   0.000000
    18  C    4.587420   4.127101   0.000000
    19  H    5.111479   4.444583   1.098117   0.000000
    20  H    5.291122   4.710915   1.093302   1.759923   0.000000
    21  H    4.808439   4.733604   1.092427   1.764199   1.770248
    22  C    4.505622   4.678056   2.993548   4.088037   2.785347
    23  H    5.067669   4.857243   2.850038   3.863023   2.279098
    24  H    5.051934   5.412753   4.086149   5.180627   3.812782
    25  H    4.830233   5.141192   2.737657   3.798481   2.678567
    26  C    3.137894   3.004027   4.017172   4.895558   4.034180
    27  H    3.822089   3.951878   4.926202   5.871938   4.838152
    28  H    3.896554   3.266721   3.855683   4.648243   3.653815
    29  H    2.396547   2.242269   4.464155   5.209169   4.678241
                   21         22         23         24         25
    21  H    0.000000
    22  C    2.952262   0.000000
    23  H    3.095903   1.090236   0.000000
    24  H    3.960431   1.100246   1.775995   0.000000
    25  H    2.318685   1.089714   1.795954   1.762227   0.000000
    26  C    4.463907   2.560362   2.747341   2.883366   3.493091
    27  H    5.259596   2.849168   3.116299   2.737292   3.853255
    28  H    4.505007   2.776561   2.515821   3.217850   3.748385
    29  H    4.950174   3.494396   3.747017   3.862029   4.304562
                   26         27         28         29
    26  C    0.000000
    27  H    1.099275   0.000000
    28  H    1.091093   1.775084   0.000000
    29  H    1.088876   1.762803   1.795369   0.000000
 Framework group  C1[X(C8H16Cl3FeO)]
 Deg. of freedom    81
                         Standard orientation:                         
 ---------------------------------------------------------------------
 Center     Atomic      Atomic             Coordinates (Angstroms)
 Number     Number       Type             X           Y           Z
 ---------------------------------------------------------------------
      1          8           0       -0.300046   -0.172832   -0.730433
      2          6           0       -1.172599   -1.098773   -0.616915
      3          6           0       -3.051108   -0.097210    0.253757
      4          6           0       -2.419555    1.029598   -0.171963
      5          6           0       -2.580205    1.551919   -1.566041
      6         26           0        1.448378    0.095091    0.035779
      7         17           0        2.082502    2.020006   -0.782567
      8          6           0       -1.568473    1.880100    0.716656
      9         17           0        2.543095   -1.669369   -0.673904
     10         17           0        1.245201    0.099709    2.231919
     11          1           0       -3.741886   -0.568881   -0.442231
     12          1           0       -2.172685    2.732352    1.059705
     13          1           0       -1.194042    1.360447    1.598053
     14          1           0       -0.718941    2.295351    0.165651
     15          1           0       -2.899447    2.600828   -1.521488
     16          1           0       -1.612477    1.542765   -2.082864
     17          1           0       -3.318105    0.995878   -2.149068
     18          6           0       -3.222641   -0.497791    1.697073
     19          1           0       -4.096631    0.018284    2.116202
     20          1           0       -3.408039   -1.570279    1.800548
     21          1           0       -2.363194   -0.238927    2.319758
     22          6           0       -1.016789   -2.114716    0.480068
     23          1           0       -1.890983   -2.757978    0.583091
     24          1           0       -0.162588   -2.737551    0.175178
     25          1           0       -0.756117   -1.656062    1.433569
     26          6           0       -1.799805   -1.584142   -1.899182
     27          1           0       -1.039237   -2.225405   -2.366861
     28          1           0       -2.695727   -2.183547   -1.730299
     29          1           0       -2.003874   -0.766783   -2.589059
 ---------------------------------------------------------------------
 Rotational constants (GHZ):           0.5800436           0.3347365           0.3149918
   427 basis functions,  1056 primitive gaussians,   461 cartesian basis functions
    77 alpha electrons       72 beta electrons
       nuclear repulsion energy      1643.4379678309 Hartrees.
 NAtoms=   29 NActive=   29 NUniq=   29 SFac= 1.00D+00 NAtFMM=   60 NAOKFM=F Big=F
 Nuclear repulsion after empirical dispersion term =     1643.3677435503 Hartrees.
 Initial guess from the checkpoint file:  "checkpoint.chk"
 B after Tr=     0.000000    0.000000    0.000000
         Rot=    1.000000    0.000000    0.000000    0.000000 Ang=   0.00 deg.
 Initial guess <Sx>= 0.0000 <Sy>= 0.0000 <Sz>= 2.5000 <S**2>= 8.7618 S= 2.5020
 SCF Done:  E(UB3LYP) =  -3034.40376752     A.U. after    1 cycles
            NFock=  1  Conv=0.42D-08     -V/T= 2.0024
 <Sx>= 0.0000 <Sy>= 0.0000 <Sz>= 2.5000 <S**2>= 8.7618 S= 2.5020
 <L.S>= 0.000000000000E+00
 Annihilation of the first spin contaminant:
 S**2 before annihilation     8.7618,   after     8.7500
 1\1\GINC-HOLY7C10503\SP\UB3LYP\Jul-CC-pVDZ\C8H16Cl3Fe1O1(6)\EKWAN\11-F
 eb-2020\0\\#t pop=none jul-cc-pvdz guess=read ub3lyp empiricaldispersi
 on=gd3bj\\theory_abbreviation b3lyp_d3bj\\0,6\O,0,-0.300046,-0.172832,
 -0.730433\C,0,-1.172599,-1.098773,-0.616915\C,0,-3.051108,-0.09721,0.2
 53757\C,0,-2.419555,1.029598,-0.171963\C,0,-2.580205,1.551919,-1.56604
 1\Fe,0,1.448378,0.095091,0.035779\Cl,0,2.082502,2.020006,-0.782567\C,0
 ,-1.568473,1.8801,0.716656\Cl,0,2.543095,-1.669369,-0.673904\Cl,0,1.24
 5201,0.099709,2.231919\H,0,-3.741886,-0.568881,-0.442231\H,0,-2.172685
 ,2.732352,1.059705\H,0,-1.194042,1.360447,1.598053\H,0,-0.718941,2.295
 351,0.165651\H,0,-2.899447,2.600828,-1.521488\H,0,-1.612477,1.542765,-
 2.082864\H,0,-3.318105,0.995878,-2.149068\C,0,-3.222641,-0.497791,1.69
 7073\H,0,-4.096631,0.018284,2.116202\H,0,-3.408039,-1.570279,1.800548\
 H,0,-2.363194,-0.238927,2.319758\C,0,-1.016789,-2.114716,0.480068\H,0,
 -1.890983,-2.757978,0.583091\H,0,-0.162588,-2.737551,0.175178\H,0,-0.7
 56117,-1.656062,1.433569\C,0,-1.799805,-1.584142,-1.899182\H,0,-1.0392
 37,-2.225405,-2.366861\H,0,-2.695727,-2.183547,-1.730299\H,0,-2.003874
 ,-0.766783,-2.589059\\Version=ES64L-G16RevA.03\HF=-3034.4037675\S2=8.7
 61839\S2-1=0.\S2A=8.750043\RMSD=4.188e-09\PG=C01 [X(C8H16Cl3Fe1O1)]\\@


 TIME IS IN FACT THE HERO OF THE PLOT. THE TIME
 WITH WHICH WE HAVE TO DEAL IS OF THE ORDER OF TWO
 BILLION YEARS...GIVEN SO MUCH TIME, THE "IMPOSSIBLE"
 BECOMES POSSIBLE, THE POSSIBLE PROBABLE, THE PROBABLE
 VIRTUALLY CERTAIN.  ONE HAS ONLY TO WAIT, TIME
 ITSELF PERFORMS THE MIRACLES.
 "ORIGIN OF LIFE" LECTURES, GEORGE WALD, 1954
 Job cpu time:       0 days  0 hours  4 minutes 36.7 seconds.
 Elapsed time:       0 days  0 hours  1 minutes  9.9 seconds.
 File lengths (MBytes):  RWF=    170 Int=      0 D2E=      0 Chk=     13 Scr=      1
 Normal termination of Gaussian 16 at Tue Feb 11 20:21:32 2020.
 Initial command:
 /n/sw/g16_nehalem/g16/l1.exe "/scratch/Gau-431635.inp" -scrdir="/scratch/"
 Entering Link 1 = /n/sw/g16_nehalem/g16/l1.exe PID=    434295.
  
 Copyright (c) 1988,1990,1992,1993,1995,1998,2003,2009,2016,
            Gaussian, Inc.  All Rights Reserved.
  
 This is part of the Gaussian(R) 16 program.  It is based on
 the Gaussian(R) 09 system (copyright 2009, Gaussian, Inc.),
 the Gaussian(R) 03 system (copyright 2003, Gaussian, Inc.),
 the Gaussian(R) 98 system (copyright 1998, Gaussian, Inc.),
 the Gaussian(R) 94 system (copyright 1995, Gaussian, Inc.),
 the Gaussian 92(TM) system (copyright 1992, Gaussian, Inc.),
 the Gaussian 90(TM) system (copyright 1990, Gaussian, Inc.),
 the Gaussian 88(TM) system (copyright 1988, Gaussian, Inc.),
 the Gaussian 86(TM) system (copyright 1986, Carnegie Mellon
 University), and the Gaussian 82(TM) system (copyright 1983,
 Carnegie Mellon University). Gaussian is a federally registered
 trademark of Gaussian, Inc.
  
 This software contains proprietary and confidential information,
 including trade secrets, belonging to Gaussian, Inc.
  
 This software is provided under written license and may be
 used, copied, transmitted, or stored only in accord with that
 written license.
  
 The following legend is applicable only to US Government
 contracts under FAR:
  
                    RESTRICTED RIGHTS LEGEND
  
 Use, reproduction and disclosure by the US Government is
 subject to restrictions as set forth in subparagraphs (a)
 and (c) of the Commercial Computer Software - Restricted
 Rights clause in FAR 52.227-19.
  
 Gaussian, Inc.
 340 Quinnipiac St., Bldg. 40, Wallingford CT 06492
  
  
 ---------------------------------------------------------------
 Warning -- This program may not be used in any manner that
 competes with the business of Gaussian, Inc. or will provide
 assistance to any competitor of Gaussian, Inc.  The licensee
 of this program is prohibited from giving any competitor of
 Gaussian, Inc. access to this program.  By using this program,
 the user acknowledges that Gaussian, Inc. is engaged in the
 business of creating and licensing software in the field of
 computational chemistry and represents and warrants to the
 licensee that it is not a competitor of Gaussian, Inc. and that
 it will not use this program in any manner prohibited above.
 ---------------------------------------------------------------
  

 Cite this work as:
 Gaussian 16, Revision A.03,
 M. J. Frisch, G. W. Trucks, H. B. Schlegel, G. E. Scuseria, 
 M. A. Robb, J. R. Cheeseman, G. Scalmani, V. Barone, 
 G. A. Petersson, H. Nakatsuji, X. Li, M. Caricato, A. V. Marenich, 
 J. Bloino, B. G. Janesko, R. Gomperts, B. Mennucci, H. P. Hratchian, 
 J. V. Ortiz, A. F. Izmaylov, J. L. Sonnenberg, D. Williams-Young, 
 F. Ding, F. Lipparini, F. Egidi, J. Goings, B. Peng, A. Petrone, 
 T. Henderson, D. Ranasinghe, V. G. Zakrzewski, J. Gao, N. Rega, 
 G. Zheng, W. Liang, M. Hada, M. Ehara, K. Toyota, R. Fukuda, 
 J. Hasegawa, M. Ishida, T. Nakajima, Y. Honda, O. Kitao, H. Nakai, 
 T. Vreven, K. Throssell, J. A. Montgomery, Jr., J. E. Peralta, 
 F. Ogliaro, M. J. Bearpark, J. J. Heyd, E. N. Brothers, K. N. Kudin, 
 V. N. Staroverov, T. A. Keith, R. Kobayashi, J. Normand, 
 K. Raghavachari, A. P. Rendell, J. C. Burant, S. S. Iyengar, 
 J. Tomasi, M. Cossi, J. M. Millam, M. Klene, C. Adamo, R. Cammi, 
 J. W. Ochterski, R. L. Martin, K. Morokuma, O. Farkas, 
 J. B. Foresman, and D. J. Fox, Gaussian, Inc., Wallingford CT, 2016.
 
 ******************************************
 Gaussian 16:  ES64L-G16RevA.03 25-Dec-2016
                11-Feb-2020 
 ******************************************
 %chk=checkpoint.chk
 %mem=3GB
 %nprocshared=4
 Will use up to    4 processors via shared memory.
 ----------------------------------------
 #t pop=none jul-cc-pvdz guess=read ub97d
 ----------------------------------------
 ------------------------
 theory_abbreviation b97d
 ------------------------
 Symbolic Z-matrix:
 Charge =  0 Multiplicity = 6
 O                    -0.30005  -0.17283  -0.73043 
 C                    -1.1726   -1.09877  -0.61692 
 C                    -3.05111  -0.09721   0.25376 
 C                    -2.41956   1.0296   -0.17196 
 C                    -2.58021   1.55192  -1.56604 
 Fe                    1.44838   0.09509   0.03578 
 Cl                    2.0825    2.02001  -0.78257 
 C                    -1.56847   1.8801    0.71666 
 Cl                    2.5431   -1.66937  -0.6739 
 Cl                    1.2452    0.09971   2.23192 
 H                    -3.74189  -0.56888  -0.44223 
 H                    -2.17268   2.73235   1.05971 
 H                    -1.19404   1.36045   1.59805 
 H                    -0.71894   2.29535   0.16565 
 H                    -2.89945   2.60083  -1.52149 
 H                    -1.61248   1.54277  -2.08286 
 H                    -3.31811   0.99588  -2.14907 
 C                    -3.22264  -0.49779   1.69707 
 H                    -4.09663   0.01828   2.1162 
 H                    -3.40804  -1.57028   1.80055 
 H                    -2.36319  -0.23893   2.31976 
 C                    -1.01679  -2.11472   0.48007 
 H                    -1.89098  -2.75798   0.58309 
 H                    -0.16259  -2.73755   0.17518 
 H                    -0.75612  -1.65606   1.43357 
 C                    -1.79981  -1.58414  -1.89918 
 H                    -1.03924  -2.22541  -2.36686 
 H                    -2.69573  -2.18355  -1.7303 
 H                    -2.00387  -0.76678  -2.58906 
 
                    Distance matrix (angstroms):
                    1          2          3          4          5
     1  O    0.000000
     2  C    1.277342   0.000000
     3  C    2.922788   2.299999   0.000000
     4  C    2.500009   2.506560   1.360071   0.000000
     5  C    2.978612   3.147755   2.500608   1.497358   0.000000
     6  Fe   1.927654   2.953107   4.508866   3.984641   4.573582
     7  Cl   3.238486   4.511087   5.648940   4.649974   4.751187
     8  C    2.813806   3.287676   2.514406   1.495773   2.518335
     9  Cl   3.213451   3.759682   5.884500   5.671355   6.117255
    10  Cl   3.352252   3.924025   4.733938   4.480377   5.582754
    11  H    3.476518   2.629170   1.088139   2.092066   2.666504
    12  H    3.892488   4.299854   3.070440   2.115968   2.907583
    13  H    2.927801   3.309729   2.716724   2.178141   3.459711
    14  H    2.659016   3.512591   3.342322   2.146672   2.648726
    15  H    3.882762   4.181782   3.233250   2.126094   1.097320
    16  H    2.548493   3.052904   3.196713   2.136880   1.097127
    17  H    3.533707   3.367232   2.653243   2.171975   1.092519
    18  C    3.813128   3.149348   1.507664   2.543847   3.906654
    19  H    4.749096   4.155443   2.138962   3.011817   4.267376
    20  H    4.244802   3.326205   2.165616   3.409877   4.665549
    21  H    3.683017   3.283428   2.182125   2.796606   4.284117
    22  C    2.397905   1.503259   2.874022   3.504227   4.480518
    23  H    3.307477   2.170035   2.921307   3.898106   4.865080
    24  H    2.723382   2.081616   3.914221   4.405204   5.222669
    25  H    2.662870   2.165297   3.014790   3.543660   4.755639
    26  C    2.367920   1.507707   2.900323   3.193589   3.248828
    27  H    2.727152   2.085521   3.929946   4.161478   4.157412
    28  H    3.283595   2.176299   2.900961   3.581757   3.740860
    29  H    2.590424   2.165776   3.102681   3.040087   2.599058
                    6          7          8          9         10
     6  Fe   0.000000
     7  Cl   2.185658   0.000000
     8  C    3.570888   3.949286   0.000000
     9  Cl   2.194396   3.719602   5.606905   0.000000
    10  Cl   2.205523   3.670932   3.658220   3.641150   0.000000
    11  H    5.254350   6.382919   3.473363   6.384805   5.698169
    12  H    4.595179   4.691271   1.099585   6.679755   4.470664
    13  H    3.320272   4.103427   1.089540   5.320504   2.818005
    14  H    3.091162   2.970356   1.094415   5.202378   3.598355
    15  H    5.254273   5.069830   2.701894   6.969523   6.125501
    16  H    3.994151   3.946061   2.820114   5.437992   5.372717
    17  H    5.320182   5.664161   3.472094   6.605552   6.389047
    18  C    4.992978   6.374359   3.058080   6.343330   4.539238
    19  H    5.922937   7.112766   3.437538   7.397217   5.343706
    20  H    5.428872   7.050438   4.057578   6.445830   4.962619
    21  H    4.456031   5.872939   2.773408   5.922824   3.625314
    22  C    3.340313   5.319378   4.039664   3.768655   3.617908
    23  H    4.426159   6.362604   4.651196   4.735626   4.551995
    24  H    3.261672   5.347154   4.857202   3.030293   3.776519
    25  H    3.143271   5.146114   3.698422   3.914897   2.779455
    26  C    4.136978   5.413781   4.347079   4.513242   5.401242
    27  H    4.164806   5.502614   5.161719   4.001048   5.636807
    28  H    5.048250   6.434246   4.875604   5.368948   6.036832
    29  H    4.421611   5.265745   4.257149   5.015716   5.877850
                   11         12         13         14         15
    11  H    0.000000
    12  H    3.951752   0.000000
    13  H    3.791645   1.769091   0.000000
    14  H    4.208508   1.761725   1.775258   0.000000
    15  H    3.452760   2.684779   3.765433   2.773871   0.000000
    16  H    3.418349   3.406566   3.709107   2.533893   1.758105
    17  H    2.354008   3.824075   4.322669   3.715132   1.773414
    18  C    2.202565   3.455788   2.752829   4.051593   4.479401
    19  H    2.648808   3.490547   3.239584   4.516467   4.619044
    20  H    2.478772   4.537354   3.678579   4.984700   5.356559
    21  H    3.104552   3.233037   2.108500   3.710298   4.806969
    22  C    3.265945   5.016587   3.654869   4.431282   5.457745
    23  H    3.044548   5.518174   4.298523   5.204236   5.844917
    24  H    4.230331   5.894295   4.458930   5.063568   6.234369
    25  H    3.689906   4.626512   3.052566   4.150020   5.607793
    26  C    2.631566   5.246539   4.611747   4.525734   4.343482
    27  H    3.708448   6.132325   5.348163   5.191670   5.240950
    28  H    2.315322   5.676597   5.088505   5.250032   4.793261
[...]
 ---------------------------------------------------------------------
 Rotational constants (GHZ):           0.5800436           0.3347365           0.3149918
   427 basis functions,  1056 primitive gaussians,   461 cartesian basis functions
    77 alpha electrons       72 beta electrons
       nuclear repulsion energy      1643.4379678309 Hartrees.
 NAtoms=   29 NActive=   29 NUniq=   29 SFac= 1.00D+00 NAtFMM=   60 NAOKFM=F Big=F
 Nuclear repulsion after empirical dispersion term =     1643.4355222498 Hartrees.
 Initial guess from the checkpoint file:  "checkpoint.chk"
 B after Tr=     0.000000    0.000000    0.000000
         Rot=    1.000000    0.000000    0.000000    0.000000 Ang=   0.00 deg.
 Initial guess <Sx>= 0.0000 <Sy>= 0.0000 <Sz>= 2.5000 <S**2>= 8.7615 S= 2.5019
 SCF Done:  E(UM06L) =  -3034.20215113     A.U. after   17 cycles
            NFock= 17  Conv=0.82D-08     -V/T= 2.0020
 <Sx>= 0.0000 <Sy>= 0.0000 <Sz>= 2.5000 <S**2>= 8.7615 S= 2.5019
 <L.S>= 0.000000000000E+00
 Annihilation of the first spin contaminant:
 S**2 before annihilation     8.7615,   after     8.7500
 1\1\GINC-HOLY7C10503\SP\UM06L\Jul-CC-pVDZ\C8H16Cl3Fe1O1(6)\EKWAN\12-Fe
 b-2020\0\\#t pop=none jul-cc-pvdz guess=read um06l empiricaldispersion
 =gd3\\theory_abbreviation m06l_d3\\0,6\O,0,-0.300046,-0.172832,-0.7304
 33\C,0,-1.172599,-1.098773,-0.616915\C,0,-3.051108,-0.09721,0.253757\C
 ,0,-2.419555,1.029598,-0.171963\C,0,-2.580205,1.551919,-1.566041\Fe,0,
 1.448378,0.095091,0.035779\Cl,0,2.082502,2.020006,-0.782567\C,0,-1.568
 473,1.8801,0.716656\Cl,0,2.543095,-1.669369,-0.673904\Cl,0,1.245201,0.
 099709,2.231919\H,0,-3.741886,-0.568881,-0.442231\H,0,-2.172685,2.7323
 52,1.059705\H,0,-1.194042,1.360447,1.598053\H,0,-0.718941,2.295351,0.1
 65651\H,0,-2.899447,2.600828,-1.521488\H,0,-1.612477,1.542765,-2.08286
 4\H,0,-3.318105,0.995878,-2.149068\C,0,-3.222641,-0.497791,1.697073\H,
 0,-4.096631,0.018284,2.116202\H,0,-3.408039,-1.570279,1.800548\H,0,-2.
 363194,-0.238927,2.319758\C,0,-1.016789,-2.114716,0.480068\H,0,-1.8909
 83,-2.757978,0.583091\H,0,-0.162588,-2.737551,0.175178\H,0,-0.756117,-
 1.656062,1.433569\C,0,-1.799805,-1.584142,-1.899182\H,0,-1.039237,-2.2
 25405,-2.366861\H,0,-2.695727,-2.183547,-1.730299\H,0,-2.003874,-0.766
 783,-2.589059\\Version=ES64L-G16RevA.03\HF=-3034.2021511\S2=8.761512\S
 2-1=0.\S2A=8.750042\RMSD=8.185e-09\PG=C01 [X(C8H16Cl3Fe1O1)]\\@


 NECESSARY EVIL: ONE WE LIKE TOO MUCH TO RELINQUISH.
 Job cpu time:       0 days  1 hours 15 minutes 34.8 seconds.
 Elapsed time:       0 days  0 hours 18 minutes 57.1 seconds.
 File lengths (MBytes):  RWF=    174 Int=      0 D2E=      0 Chk=     13 Scr=      1
 Normal termination of Gaussian 16 at Wed Feb 12 05:24:15 2020.
 Initial command:
 /n/sw/g16_nehalem/g16/l1.exe "/scratch/Gau-431635.inp" -scrdir="/scratch/"
 Entering Link 1 = /n/sw/g16_nehalem/g16/l1.exe PID=     27360.
  
 Copyright (c) 1988,1990,1992,1993,1995,1998,2003,2009,2016,
            Gaussian, Inc.  All Rights Reserved.
  
 This is part of the Gaussian(R) 16 program.  It is based on
 the Gaussian(R) 09 system (copyright 2009, Gaussian, Inc.),
 the Gaussian(R) 03 system (copyright 2003, Gaussian, Inc.),
 the Gaussian(R) 98 system (copyright 1998, Gaussian, Inc.),
 the Gaussian(R) 94 system (copyright 1995, Gaussian, Inc.),
 the Gaussian 92(TM) system (copyright 1992, Gaussian, Inc.),
 the Gaussian 90(TM) system (copyright 1990, Gaussian, Inc.),
 the Gaussian 88(TM) system (copyright 1988, Gaussian, Inc.),
 the Gaussian 86(TM) system (copyright 1986, Carnegie Mellon
 University), and the Gaussian 82(TM) system (copyright 1983,
 Carnegie Mellon University). Gaussian is a federally registered
 trademark of Gaussian, Inc.
  
 This software contains proprietary and confidential information,
 including trade secrets, belonging to Gaussian, Inc.
  
 This software is provided under written license and may be
 used, copied, transmitted, or stored only in accord with that
 written license.
  
 The following legend is applicable only to US Government
 contracts under FAR:
  
                    RESTRICTED RIGHTS LEGEND
  
 Use, reproduction and disclosure by the US Government is
 subject to restrictions as set forth in subparagraphs (a)
 and (c) of the Commercial Computer Software - Restricted
 Rights clause in FAR 52.227-19.
  
 Gaussian, Inc.
 340 Quinnipiac St., Bldg. 40, Wallingford CT 06492
  
  
 ---------------------------------------------------------------
 Warning -- This program may not be used in any manner that
 competes with the business of Gaussian, Inc. or will provide
 assistance to any competitor of Gaussian, Inc.  The licensee
 of this program is prohibited from giving any competitor of
 Gaussian, Inc. access to this program.  By using this program,
 the user acknowledges that Gaussian, Inc. is engaged in the
 business of creating and licensing software in the field of
 computational chemistry and represents and warrants to the
 licensee that it is not a competitor of Gaussian, Inc. and that
 it will not use this program in any manner prohibited above.
 ---------------------------------------------------------------
  

 Cite this work as:
 Gaussian 16, Revision A.03,
 M. J. Frisch, G. W. Trucks, H. B. Schlegel, G. E. Scuseria, 
 M. A. Robb, J. R. Cheeseman, G. Scalmani, V. Barone, 
 G. A. Petersson, H. Nakatsuji, X. Li, M. Caricato, A. V. Marenich, 
 J. Bloino, B. G. Janesko, R. Gomperts, B. Mennucci, H. P. Hratchian, 
 J. V. Ortiz, A. F. Izmaylov, J. L. Sonnenberg, D. Williams-Young, 
 F. Ding, F. Lipparini, F. Egidi, J. Goings, B. Peng, A. Petrone, 
 T. Henderson, D. Ranasinghe, V. G. Zakrzewski, J. Gao, N. Rega, 
 G. Zheng, W. Liang, M. Hada, M. Ehara, K. Toyota, R. Fukuda, 
 J. Hasegawa, M. Ishida, T. Nakajima, Y. Honda, O. Kitao, H. Nakai, 
 T. Vreven, K. Throssell, J. A. Montgomery, Jr., J. E. Peralta, 
 F. Ogliaro, M. J. Bearpark, J. J. Heyd, E. N. Brothers, K. N. Kudin, 
 V. N. Staroverov, T. A. Keith, R. Kobayashi, J. Normand, 
 K. Raghavachari, A. P. Rendell, J. C. Burant, S. S. Iyengar, 
 J. Tomasi, M. Cossi, J. M. Millam, M. Klene, C. Adamo, R. Cammi, 
 J. W. Ochterski, R. L. Martin, K. Morokuma, O. Farkas, 
 J. B. Foresman, and D. J. Fox, Gaussian, Inc., Wallingford CT, 2016.
 
 ******************************************
 Gaussian 16:  ES64L-G16RevA.03 25-Dec-2016
                12-Feb-2020 
 ******************************************
 %chk=checkpoint.chk
 %mem=3GB
 %nprocshared=4
 Will use up to    4 processors via shared memory.
 -------------------------------------------------------------------
 #t pop=none jul-cc-pvdz guess=read ub97d3 empiricaldispersion=gd3bj
 -------------------------------------------------------------------
 ------------------------------
 theory_abbreviation b97d3_d3bj
 ------------------------------
 Symbolic Z-matrix:
 Charge =  0 Multiplicity = 6
 O                    -0.30005  -0.17283  -0.73043 
 C                    -1.1726   -1.09877  -0.61692 
 C                    -3.05111  -0.09721   0.25376 
 C                    -2.41956   1.0296   -0.17196 
 C                    -2.58021   1.55192  -1.56604 
 Fe                    1.44838   0.09509   0.03578 
 Cl                    2.0825    2.02001  -0.78257 
 C                    -1.56847   1.8801    0.71666 
 Cl                    2.5431   -1.66937  -0.6739 
 Cl                    1.2452    0.09971   2.23192 
 H                    -3.74189  -0.56888  -0.44223 
 H                    -2.17268   2.73235   1.05971 
 H                    -1.19404   1.36045   1.59805 
 H                    -0.71894   2.29535   0.16565 
 H                    -2.89945   2.60083  -1.52149 
 H                    -1.61248   1.54277  -2.08286 
 H                    -3.31811   0.99588  -2.14907 
 C                    -3.22264  -0.49779   1.69707 
 H                    -4.09663   0.01828   2.1162 
 H                    -3.40804  -1.57028   1.80055 
 H                    -2.36319  -0.23893   2.31976 
 C                    -1.01679  -2.11472   0.48007 
 H                    -1.89098  -2.75798   0.58309 
 H                    -0.16259  -2.73755   0.17518 
 H                    -0.75612  -1.65606   1.43357 
 C                    -1.79981  -1.58414  -1.89918 
 H                    -1.03924  -2.22541  -2.36686 
 H                    -2.69573  -2.18355  -1.7303 
 H                    -2.00387  -0.76678  -2.58906 
 
                    Distance matrix (angstroms):
                    1          2          3          4          5
     1  O    0.000000
     2  C    1.277342   0.000000
     3  C    2.922788   2.299999   0.000000
     4  C    2.500009   2.506560   1.360071   0.000000
     5  C    2.978612   3.147755   2.500608   1.497358   0.000000
     6  Fe   1.927654   2.953107   4.508866   3.984641   4.573582
     7  Cl   3.238486   4.511087   5.648940   4.649974   4.751187
     8  C    2.813806   3.287676   2.514406   1.495773   2.518335
     9  Cl   3.213451   3.759682   5.884500   5.671355   6.117255
    10  Cl   3.352252   3.924025   4.733938   4.480377   5.582754
    11  H    3.476518   2.629170   1.088139   2.092066   2.666504
    12  H    3.892488   4.299854   3.070440   2.115968   2.907583
    13  H    2.927801   3.309729   2.716724   2.178141   3.459711
    14  H    2.659016   3.512591   3.342322   2.146672   2.648726
    15  H    3.882762   4.181782   3.233250   2.126094   1.097320
    16  H    2.548493   3.052904   3.196713   2.136880   1.097127
    17  H    3.533707   3.367232   2.653243   2.171975   1.092519
    18  C    3.813128   3.149348   1.507664   2.543847   3.906654
    19  H    4.749096   4.155443   2.138962   3.011817   4.267376
    20  H    4.244802   3.326205   2.165616   3.409877   4.665549
    21  H    3.683017   3.283428   2.182125   2.796606   4.284117
    22  C    2.397905   1.503259   2.874022   3.504227   4.480518
    23  H    3.307477   2.170035   2.921307   3.898106   4.865080
    24  H    2.723382   2.081616   3.914221   4.405204   5.222669
    25  H    2.662870   2.165297   3.014790   3.543660   4.755639
    26  C    2.367920   1.507707   2.900323   3.193589   3.248828
    27  H    2.727152   2.085521   3.929946   4.161478   4.157412
    28  H    3.283595   2.176299   2.900961   3.581757   3.740860
    29  H    2.590424   2.165776   3.102681   3.040087   2.599058
                    6          7          8          9         10
     6  Fe   0.000000
     7  Cl   2.185658   0.000000
     8  C    3.570888   3.949286   0.000000
     9  Cl   2.194396   3.719602   5.606905   0.000000
    10  Cl   2.205523   3.670932   3.658220   3.641150   0.000000
    11  H    5.254350   6.382919   3.473363   6.384805   5.698169
    12  H    4.595179   4.691271   1.099585   6.679755   4.470664
    13  H    3.320272   4.103427   1.089540   5.320504   2.818005
    14  H    3.091162   2.970356   1.094415   5.202378   3.598355
    15  H    5.254273   5.069830   2.701894   6.969523   6.125501
    16  H    3.994151   3.946061   2.820114   5.437992   5.372717
    17  H    5.320182   5.664161   3.472094   6.605552   6.389047
    18  C    4.992978   6.374359   3.058080   6.343330   4.539238
    19  H    5.922937   7.112766   3.437538   7.397217   5.343706
    20  H    5.428872   7.050438   4.057578   6.445830   4.962619
    21  H    4.456031   5.872939   2.773408   5.922824   3.625314
    22  C    3.340313   5.319378   4.039664   3.768655   3.617908
    23  H    4.426159   6.362604   4.651196   4.735626   4.551995
    24  H    3.261672   5.347154   4.857202   3.030293   3.776519
    25  H    3.143271   5.146114   3.698422   3.914897   2.779455
    26  C    4.136978   5.413781   4.347079   4.513242   5.401242
    27  H    4.164806   5.502614   5.161719   4.001048   5.636807
    28  H    5.048250   6.434246   4.875604   5.368948   6.036832
    29  H    4.421611   5.265745   4.257149   5.015716   5.877850
                   11         12         13         14         15
    11  H    0.000000
    12  H    3.951752   0.000000
    13  H    3.791645   1.769091   0.000000
    14  H    4.208508   1.761725   1.775258   0.000000
    15  H    3.452760   2.684779   3.765433   2.773871   0.000000
    16  H    3.418349   3.406566   3.709107   2.533893   1.758105
    17  H    2.354008   3.824075   4.322669   3.715132   1.773414
    18  C    2.202565   3.455788   2.752829   4.051593   4.479401
    19  H    2.648808   3.490547   3.239584   4.516467   4.619044
    20  H    2.478772   4.537354   3.678579   4.984700   5.356559
    21  H    3.104552   3.233037   2.108500   3.710298   4.806969
    22  C    3.265945   5.016587   3.654869   4.431282   5.457745
    23  H    3.044548   5.518174   4.298523   5.204236   5.844917
    24  H    4.230331   5.894295   4.458930   5.063568   6.234369
    25  H    3.689906   4.626512   3.052566   4.150020   5.607793
    26  C    2.631566   5.246539   4.611747   4.525734   4.343482
    27  H    3.708448   6.132325   5.348163   5.191670   5.240950
    28  H    2.315322   5.676597   5.088505   5.250032   4.793261
    29  H    2.769246   5.058253   4.765799   4.314643   3.644525
                   16         17         18         19         20
    16  H    0.000000
    17  H    1.792383   0.000000
    18  C    4.587420   4.127101   0.000000
    19  H    5.111479   4.444583   1.098117   0.000000
    20  H    5.291122   4.710915   1.093302   1.759923   0.000000
    21  H    4.808439   4.733604   1.092427   1.764199   1.770248
    22  C    4.505622   4.678056   2.993548   4.088037   2.785347
    23  H    5.067669   4.857243   2.850038   3.863023   2.279098
    24  H    5.051934   5.412753   4.086149   5.180627   3.812782
    25  H    4.830233   5.141192   2.737657   3.798481   2.678567
    26  C    3.137894   3.004027   4.017172   4.895558   4.034180
    27  H    3.822089   3.951878   4.926202   5.871938   4.838152
    28  H    3.896554   3.266721   3.855683   4.648243   3.653815
    29  H    2.396547   2.242269   4.464155   5.209169   4.678241
                   21         22         23         24         25
    21  H    0.000000
    22  C    2.952262   0.000000
    23  H    3.095903   1.090236   0.000000
    24  H    3.960431   1.100246   1.775995   0.000000
    25  H    2.318685   1.089714   1.795954   1.762227   0.000000
    26  C    4.463907   2.560362   2.747341   2.883366   3.493091
    27  H    5.259596   2.849168   3.116299   2.737292   3.853255
    28  H    4.505007   2.776561   2.515821   3.217850   3.748385
    29  H    4.950174   3.494396   3.747017   3.862029   4.304562
                   26         27         28         29
    26  C    0.000000
    27  H    1.099275   0.000000
    28  H    1.091093   1.775084   0.000000
    29  H    1.088876   1.762803   1.795369   0.000000
 Framework group  C1[X(C8H16Cl3FeO)]
 Deg. of freedom    81
                         Standard orientation:                         
 ---------------------------------------------------------------------
 Center     Atomic      Atomic             Coordinates (Angstroms)
 Number     Number       Type             X           Y           Z
 ---------------------------------------------------------------------
      1          8           0       -0.300046   -0.172832   -0.730433
      2          6           0       -1.172599   -1.098773   -0.616915
      3          6           0       -3.051108   -0.097210    0.253757
      4          6           0       -2.419555    1.029598   -0.171963
      5          6           0       -2.580205    1.551919   -1.566041
      6         26           0        1.448378    0.095091    0.035779
      7         17           0        2.082502    2.020006   -0.782567
      8          6           0       -1.568473    1.880100    0.716656
      9         17           0        2.543095   -1.669369   -0.673904
     10         17           0        1.245201    0.099709    2.231919
     11          1           0       -3.741886   -0.568881   -0.442231
     12          1           0       -2.172685    2.732352    1.059705
     13          1           0       -1.194042    1.360447    1.598053
     14          1           0       -0.718941    2.295351    0.165651
     15          1           0       -2.899447    2.600828   -1.521488
     16          1           0       -1.612477    1.542765   -2.082864
     17          1           0       -3.318105    0.995878   -2.149068
     18          6           0       -3.222641   -0.497791    1.697073
     19          1           0       -4.096631    0.018284    2.116202
     20          1           0       -3.408039   -1.570279    1.800548
     21          1           0       -2.363194   -0.238927    2.319758
     22          6           0       -1.016789   -2.114716    0.480068
     23          1           0       -1.890983   -2.757978    0.583091
     24          1           0       -0.162588   -2.737551    0.175178
     25          1           0       -0.756117   -1.656062    1.433569
     26          6           0       -1.799805   -1.584142   -1.899182
     27          1           0       -1.039237   -2.225405   -2.366861
     28          1           0       -2.695727   -2.183547   -1.730299
     29          1           0       -2.003874   -0.766783   -2.589059
 ---------------------------------------------------------------------
 Rotational constants (GHZ):           0.5800436           0.3347365           0.3149918
   427 basis functions,  1056 primitive gaussians,   461 cartesian basis functions
    77 alpha electrons       72 beta electrons
       nuclear repulsion energy      1643.4379678309 Hartrees.
 NAtoms=   29 NActive=   29 NUniq=   29 SFac= 1.00D+00 NAtFMM=   60 NAOKFM=F Big=F
 Nuclear repulsion after empirical dispersion term =     1643.3347707980 Hartrees.
 Initial guess from the checkpoint file:  "checkpoint.chk"
 B after Tr=     0.000000    0.000000    0.000000
         Rot=    1.000000    0.000000    0.000000    0.000000 Ang=   0.00 deg.
 Initial guess <Sx>= 0.0000 <Sy>= 0.0000 <Sz>= 2.5000 <S**2>= 8.7615 S= 2.5019
 EnCoef did     2 forward-backward iterations
 SCF Done:  E(UB97D3) =  -3034.62388829     A.U. after   16 cycles
            NFock= 16  Conv=0.90D-08     -V/T= 2.0019
 <Sx>= 0.0000 <Sy>= 0.0000 <Sz>= 2.5000 <S**2>= 8.7596 S= 2.5016
 <L.S>= 0.000000000000E+00
 Annihilation of the first spin contaminant:
 S**2 before annihilation     8.7596,   after     8.7500
 1\1\GINC-HOLY7C10503\SP\UB97D3\Jul-CC-pVDZ\C8H16Cl3Fe1O1(6)\EKWAN\12-F
 eb-2020\0\\#t pop=none jul-cc-pvdz guess=read ub97d3 empiricaldispersi
 on=gd3bj\\theory_abbreviation b97d3_d3bj\\0,6\O,0,-0.300046,-0.172832,
 -0.730433\C,0,-1.172599,-1.098773,-0.616915\C,0,-3.051108,-0.09721,0.2
 53757\C,0,-2.419555,1.029598,-0.171963\C,0,-2.580205,1.551919,-1.56604
 1\Fe,0,1.448378,0.095091,0.035779\Cl,0,2.082502,2.020006,-0.782567\C,0
 ,-1.568473,1.8801,0.716656\Cl,0,2.543095,-1.669369,-0.673904\Cl,0,1.24
 5201,0.099709,2.231919\H,0,-3.741886,-0.568881,-0.442231\H,0,-2.172685
 ,2.732352,1.059705\H,0,-1.194042,1.360447,1.598053\H,0,-0.718941,2.295
 351,0.165651\H,0,-2.899447,2.600828,-1.521488\H,0,-1.612477,1.542765,-
 2.082864\H,0,-3.318105,0.995878,-2.149068\C,0,-3.222641,-0.497791,1.69
 7073\H,0,-4.096631,0.018284,2.116202\H,0,-3.408039,-1.570279,1.800548\
 H,0,-2.363194,-0.238927,2.319758\C,0,-1.016789,-2.114716,0.480068\H,0,
 -1.890983,-2.757978,0.583091\H,0,-0.162588,-2.737551,0.175178\H,0,-0.7
 56117,-1.656062,1.433569\C,0,-1.799805,-1.584142,-1.899182\H,0,-1.0392
 37,-2.225405,-2.366861\H,0,-2.695727,-2.183547,-1.730299\H,0,-2.003874
 ,-0.766783,-2.589059\\Version=ES64L-G16RevA.03\HF=-3034.6238883\S2=8.7
 5958\S2-1=0.\S2A=8.750029\RMSD=8.971e-09\PG=C01 [X(C8H16Cl3Fe1O1)]\\@


 LIVE PURE, SPEAK TRUE, RIGHT WRONG, FOLLOW THE KING...
 ELSE, WHEREFORE BORN......
           IDYLLS OF THE KING, TENNYSON
 Job cpu time:       0 days  0 hours 51 minutes 37.8 seconds.
 Elapsed time:       0 days  0 hours 12 minutes 57.0 seconds.
 File lengths (MBytes):  RWF=    174 Int=      0 D2E=      0 Chk=     13 Scr=      1
 Normal termination of Gaussian 16 at Wed Feb 12 05:37:13 2020.
