 Entering Gaussian System, Link 0=g16
 Input=simple-grid-220-280-b3lyp_d3bj-631gd-gas-singlepoint-DFT-juldz2-gas.gjf
 Output=simple-grid-220-280-b3lyp_d3bj-631gd-gas-singlepoint-DFT-juldz2-gas.out
 Initial command:
 /n/sw/g16_nehalem/g16/l1.exe "/scratch/Gau-1763.inp" -scrdir="/scratch/"
 Entering Link 1 = /n/sw/g16_nehalem/g16/l1.exe PID=      1772.
  
 Copyright (c) 1988,1990,1992,1993,1995,1998,2003,2009,2016,
            Gaussian, Inc.  All Rights Reserved.
  
 This is part of the Gaussian(R) 16 program.  It is based on
 the Gaussian(R) 09 system (copyright 2009, Gaussian, Inc.),
 the Gaussian(R) 03 system (copyright 2003, Gaussian, Inc.),
 the Gaussian(R) 98 system (copyright 1998, Gaussian, Inc.),
 the Gaussian(R) 94 system (copyright 1995, Gaussian, Inc.),
 the Gaussian 92(TM) system (copyright 1992, Gaussian, Inc.),
 the Gaussian 90(TM) system (copyright 1990, Gaussian, Inc.),
 the Gaussian 88(TM) system (copyright 1988, Gaussian, Inc.),
 the Gaussian 86(TM) system (copyright 1986, Carnegie Mellon
 University), and the Gaussian 82(TM) system (copyright 1983,
 Carnegie Mellon University). Gaussian is a federally registered
 trademark of Gaussian, Inc.
  
 This software contains proprietary and confidential information,
 including trade secrets, belonging to Gaussian, Inc.
  
 This software is provided under written license and may be
 used, copied, transmitted, or stored only in accord with that
 written license.
  
 The following legend is applicable only to US Government
 contracts under FAR:
  
                    RESTRICTED RIGHTS LEGEND
  
 Use, reproduction and disclosure by the US Government is
 subject to restrictions as set forth in subparagraphs (a)
 and (c) of the Commercial Computer Software - Restricted
 Rights clause in FAR 52.227-19.
  
 Gaussian, Inc.
 340 Quinnipiac St., Bldg. 40, Wallingford CT 06492
  
  
 ---------------------------------------------------------------
 Warning -- This program may not be used in any manner that
 competes with the business of Gaussian, Inc. or will provide
 assistance to any competitor of Gaussian, Inc.  The licensee
 of this program is prohibited from giving any competitor of
 Gaussian, Inc. access to this program.  By using this program,
 the user acknowledges that Gaussian, Inc. is engaged in the
 business of creating and licensing software in the field of
 computational chemistry and represents and warrants to the
 licensee that it is not a competitor of Gaussian, Inc. and that
 it will not use this program in any manner prohibited above.
 ---------------------------------------------------------------
  

 Cite this work as:
 Gaussian 16, Revision A.03,
 M. J. Frisch, G. W. Trucks, H. B. Schlegel, G. E. Scuseria, 
 M. A. Robb, J. R. Cheeseman, G. Scalmani, V. Barone, 
 G. A. Petersson, H. Nakatsuji, X. Li, M. Caricato, A. V. Marenich, 
 J. Bloino, B. G. Janesko, R. Gomperts, B. Mennucci, H. P. Hratchian, 
 J. V. Ortiz, A. F. Izmaylov, J. L. Sonnenberg, D. Williams-Young, 
 F. Ding, F. Lipparini, F. Egidi, J. Goings, B. Peng, A. Petrone, 
 T. Henderson, D. Ranasinghe, V. G. Zakrzewski, J. Gao, N. Rega, 
 G. Zheng, W. Liang, M. Hada, M. Ehara, K. Toyota, R. Fukuda, 
 J. Hasegawa, M. Ishida, T. Nakajima, Y. Honda, O. Kitao, H. Nakai, 
 T. Vreven, K. Throssell, J. A. Montgomery, Jr., J. E. Peralta, 
 F. Ogliaro, M. J. Bearpark, J. J. Heyd, E. N. Brothers, K. N. Kudin, 
 V. N. Staroverov, T. A. Keith, R. Kobayashi, J. Normand, 
 K. Raghavachari, A. P. Rendell, J. C. Burant, S. S. Iyengar, 
 J. Tomasi, M. Cossi, J. M. Millam, M. Klene, C. Adamo, R. Cammi, 
 J. W. Ochterski, R. L. Martin, K. Morokuma, O. Farkas, 
 J. B. Foresman, and D. J. Fox, Gaussian, Inc., Wallingford CT, 2016.
 
 ******************************************
 Gaussian 16:  ES64L-G16RevA.03 25-Dec-2016
                11-Feb-2020 
 ******************************************
 %chk=checkpoint.chk
 %mem=3GB
 %nprocshared=4
 Will use up to    4 processors via shared memory.
 --------------------------------
 #t pop=none jul-cc-pvdz upbe1pbe
 --------------------------------
 ------------------------
 theory_abbreviation pbe0
 ------------------------
 Symbolic Z-matrix:
 Charge =  0 Multiplicity = 6
 O                    -0.26451  -0.25622  -0.74426 
 C                    -1.14032  -1.17502  -0.57334 
 C                    -2.78182  -0.32154   0.61706 
 C                    -2.73144   0.87201  -0.05051 
 C                    -3.50565   1.10758  -1.31084 
 Fe                    1.47362   0.15892  -0.03428 
 Cl                    1.97403   2.06301  -0.9861 
 C                    -1.83685   1.98791   0.36838 
 Cl                    2.6906   -1.56456  -0.62621 
 Cl                    1.27175   0.33507   2.15425 
 H                    -3.51728  -1.04154   0.26104 
 H                    -2.3327    2.95697   0.24485 
 H                    -1.46542   1.89722   1.38888 
 H                    -0.96476   1.9958   -0.30411 
 H                    -4.19371   1.9489   -1.15466 
 H                    -2.83888   1.40512  -2.13107 
 H                    -4.09465   0.24045  -1.61673 
 C                    -2.38833  -0.46801   2.07237 
 H                    -3.08381   0.10751   2.69566 
 H                    -2.45391  -1.50877   2.39562 
 H                    -1.3791   -0.11038   2.28488 
 C                    -0.82098  -2.28966   0.39568 
 H                    -1.68338  -2.92416   0.60712 
 H                    -0.05621  -2.89661  -0.10874 
 H                    -0.38152  -1.91926   1.32117 
 C                    -1.88833  -1.59053  -1.82103 
 H                    -1.20735  -2.2557   -2.3685 
 H                    -2.80281  -2.14609  -1.60497 
 H                    -2.0989   -0.7379   -2.46468 
 
                    Distance matrix (angstroms):
                    1          2          3          4          5
     1  O    0.000000
     2  C    1.280800   0.000000
     3  C    2.862576   2.200000   0.000000
     4  C    2.799992   2.644871   1.368488   0.000000
     5  C    3.561738   3.368823   2.506622   1.497779   0.000000
     6  Fe   1.922889   2.983732   4.331728   4.265122   5.227110
     7  Cl   3.232393   4.511581   5.556465   4.943198   5.571818
     8  C    2.957424   3.372848   2.507667   1.490296   2.525794
     9  Cl   3.233930   3.851032   5.747882   5.972164   6.782514
    10  Cl   3.333331   3.941851   4.384690   4.601604   5.952073
    11  H    3.493976   2.522683   1.089056   2.091956   2.662646
    12  H    3.947195   4.377728   3.329996   2.143190   2.686298
    13  H    3.260338   3.659870   2.692868   2.173865   3.474845
    14  H    2.399106   3.187069   3.085505   2.109111   2.873764
    15  H    4.524341   4.406816   3.207394   2.125348   1.098016
    16  H    3.363135   3.459586   3.246052   2.150463   1.098127
    17  H    3.959534   3.438068   2.651266   2.170320   1.091979
    18  C    3.533961   3.009510   1.514658   2.533764   3.895764
    19  H    4.462498   4.013529   2.143795   2.872296   4.150924
    20  H    4.027559   3.263684   2.163401   3.424717   4.657182
    21  H    3.230993   3.059397   2.189481   2.871922   4.351420
    22  C    2.396657   1.511085   2.787003   3.720896   4.654126
    23  H    3.310183   2.178963   2.824937   3.992717   4.822258
    24  H    2.723770   2.086867   3.819255   4.621984   5.420076
    25  H    2.654313   2.172285   2.968148   3.898049   5.084234
    26  C    2.361485   1.512911   2.890143   3.147963   3.186819
    27  H    2.743176   2.096419   3.890180   4.180729   4.208619
    28  H    3.279539   2.184286   2.875209   3.395637   3.341684
    29  H    2.560632   2.164973   3.183842   2.969870   2.591541
                    6          7          8          9         10
     6  Fe   0.000000
     7  Cl   2.186758   0.000000
     8  C    3.803490   4.045122   0.000000
     9  Cl   2.191297   3.715135   5.840118   0.000000
    10  Cl   2.204871   3.652498   3.947735   3.654132   0.000000
    11  H    5.141728   6.430241   3.465966   6.292729   5.330484
    12  H    4.732340   4.567526   1.095535   6.814427   4.848938
    13  H    3.699327   4.183032   1.089773   5.772083   3.243178
    14  H    3.064746   3.017636   1.101287   5.112882   3.715317
    15  H    6.047970   6.171098   2.806416   7.747086   6.589736
    16  H    4.954510   4.990778   2.755166   6.454352   6.033758
    17  H    5.789341   6.367757   3.477348   7.090754   6.559538
    18  C    4.443610   5.898339   3.039613   5.854932   3.748043
    19  H    5.312764   6.554473   3.241467   6.868367   4.394981
    20  H    4.910306   6.618175   4.088675   5.966616   4.163956
    21  H    3.686335   5.163949   2.878425   5.210714   2.691189
    22  C    3.383129   5.354161   4.396625   3.728426   3.789628
    23  H    4.459084   6.386456   4.920260   4.743553   4.663581
    24  H    3.417925   5.430421   5.220811   3.096304   4.162740
    25  H    3.097999   5.170155   4.276886   3.654582   2.917072
    26  C    4.189961   5.381757   4.195398   4.732321   5.431105
    27  H    4.297277   5.539268   5.088711   4.325190   5.771770
    28  H    5.105680   6.396692   4.681569   5.610138   6.073706
    29  H    4.412937   5.159463   3.940164   5.196402   5.817820
                   11         12         13         14         15
    11  H    0.000000
    12  H    4.170315   0.000000
    13  H    3.757455   1.784384   0.000000
    14  H    4.007512   1.759671   1.768214   0.000000
    15  H    3.377059   2.537359   3.730395   3.339420   0.000000
    16  H    3.488346   2.882611   3.810326   2.683091   1.756317
    17  H    2.345824   3.734893   4.323362   3.821050   1.772606
    18  C    2.210057   3.882442   2.629306   3.707364   4.417530
    19  H    2.726824   3.832764   2.744084   4.129732   4.409944
    20  H    2.430122   4.958156   3.686658   4.667777   5.252327
    21  H    3.087845   3.805215   2.200166   3.363117   4.898277
    22  C    2.974214   5.462151   4.351059   4.344597   5.634204
    23  H    2.650885   5.927940   4.889210   5.054973   5.757807
    24  H    3.944236   6.290612   5.216281   4.979894   6.456923
    25  H    3.424506   5.361261   3.967990   4.278948   5.968686
    26  C    2.699972   5.014482   4.758861   4.001972   4.276259
    27  H    3.704649   5.938677   5.606358   4.732421   5.298152
    28  H    2.283086   5.448299   5.205773   4.714431   4.348138
    29  H    3.087639   4.587835   4.711161   3.664345   3.650106
                   16         17         18         19         20
    16  H    0.000000
    17  H    1.788286   0.000000
    18  C    4.623902   4.125880   0.000000
    19  H    5.004112   4.431275   1.097002   0.000000
    20  H    5.397211   4.674483   1.091779   1.760442   0.000000
    21  H    4.891656   4.766538   1.091607   1.766993   1.767195
    22  C    4.909961   4.600888   2.930238   4.019548   2.697414
    23  H    5.251236   4.557903   2.945603   3.938809   2.407443
    24  H    5.507986   5.331434   4.011750   5.104489   3.734556
    25  H    5.385911   5.204129   2.587996   3.646837   2.370181
    26  C    3.158095   2.874382   4.082714   4.971215   4.255195
    27  H    4.014950   3.890041   4.930705   5.895049   4.980831
    28  H    3.590142   2.713770   4.063315   4.863442   4.066035
    29  H    2.291590   2.378909   4.554268   5.321076   4.933839
                   21         22         23         24         25
    21  H    0.000000
    22  C    2.937664   0.000000
    23  H    3.290114   1.091350   0.000000
    24  H    3.904177   1.098954   1.777891   0.000000
    25  H    2.279468   1.089430   1.792915   1.762298   0.000000
    26  C    4.394162   2.557692   2.777851   2.827442   3.500277
    27  H    5.126977   2.791256   3.086706   2.615798   3.795900
    28  H    4.615409   2.819725   2.598432   3.216485   3.804785
    29  H    4.844605   3.496088   3.793190   3.792495   4.321761
                   26         27         28         29
    26  C    0.000000
    27  H    1.098140   0.000000
    28  H    1.091598   1.772139   0.000000
    29  H    1.088852   1.762900   1.793756   0.000000
 Framework group  C1[X(C8H16Cl3FeO)]
 Deg. of freedom    81
                         Standard orientation:                         
 ---------------------------------------------------------------------
 Center     Atomic      Atomic             Coordinates (Angstroms)
 Number     Number       Type             X           Y           Z
 ---------------------------------------------------------------------
      1          8           0       -0.264505   -0.256224   -0.744263
      2          6           0       -1.140318   -1.175020   -0.573338
      3          6           0       -2.781818   -0.321543    0.617064
      4          6           0       -2.731435    0.872011   -0.050507
      5          6           0       -3.505646    1.107584   -1.310842
      6         26           0        1.473622    0.158919   -0.034282
      7         17           0        1.974031    2.063008   -0.986095
      8          6           0       -1.836846    1.987910    0.368375
      9         17           0        2.690597   -1.564559   -0.626210
     10         17           0        1.271751    0.335070    2.154251
     11          1           0       -3.517275   -1.041539    0.261042
     12          1           0       -2.332697    2.956966    0.244849
     13          1           0       -1.465415    1.897224    1.388875
     14          1           0       -0.964763    1.995801   -0.304114
     15          1           0       -4.193709    1.948903   -1.154663
     16          1           0       -2.838876    1.405117   -2.131071
     17          1           0       -4.094652    0.240450   -1.616731
     18          6           0       -2.388329   -0.468007    2.072366
     19          1           0       -3.083814    0.107507    2.695662
     20          1           0       -2.453907   -1.508769    2.395623
     21          1           0       -1.379100   -0.110375    2.284882
     22          6           0       -0.820976   -2.289656    0.395675
     23          1           0       -1.683381   -2.924158    0.607119
     24          1           0       -0.056212   -2.896613   -0.108744
     25          1           0       -0.381516   -1.919257    1.321168
     26          6           0       -1.888333   -1.590531   -1.821026
     27          1           0       -1.207353   -2.255700   -2.368501
     28          1           0       -2.802809   -2.146085   -1.604969
     29          1           0       -2.098900   -0.737902   -2.464675
 ---------------------------------------------------------------------
 Rotational constants (GHZ):           0.5802893           0.3253572           0.3067788
   427 basis functions,  1056 primitive gaussians,   461 cartesian basis functions
    77 alpha electrons       72 beta electrons
       nuclear repulsion energy      1633.1436790416 Hartrees.
 NAtoms=   29 NActive=   29 NUniq=   29 SFac= 1.00D+00 NAtFMM=   60 NAOKFM=F Big=F
 ExpMin= 1.40D-02 ExpMax= 4.32D+06 ExpMxC= 4.91D+03 IAcc=3 IRadAn=         5 AccDes= 0.00D+00
 Harris functional with IExCor= 1009 and IRadAn=       5 diagonalized for initial guess.
 HarFok:  IExCor= 1009 AccDes= 0.00D+00 IRadAn=         5 IDoV= 1 UseB2=F ITyADJ=14
 ICtDFT=  3500011 ScaDFX=  1.000000  1.000000  1.000000  1.000000
 FoFCou: FMM=F IPFlag=           0 FMFlag=      100000 FMFlg1=           0
         NFxFlg=           0 DoJE=T BraDBF=F KetDBF=T FulRan=T
         wScrn=  0.000000 ICntrl=       500 IOpCl=  0 I1Cent=   200000004 NGrid=           0
         NMat0=    1 NMatS0=      1 NMatT0=    0 NMatD0=    1 NMtDS0=    0 NMtDT0=    0
 Petite list used in FoFCou.
 Initial guess <Sx>= 0.0000 <Sy>= 0.0000 <Sz>= 2.5000 <S**2>= 8.7500 S= 2.5000
 EnCoef did   100 forward-backward iterations
 SCF Done:  E(UPBE1PBE) =  -3033.12064171     A.U. after   20 cycles
            NFock= 20  Conv=0.98D-08     -V/T= 2.0021
 <Sx>= 0.0000 <Sy>= 0.0000 <Sz>= 2.5000 <S**2>= 8.7626 S= 2.5021
 <L.S>= 0.000000000000E+00
 Annihilation of the first spin contaminant:
 S**2 before annihilation     8.7626,   after     8.7500
 1\1\GINC-HOLY7C04203\SP\UPBE1PBE\Jul-CC-pVDZ\C8H16Cl3Fe1O1(6)\EKWAN\11
 -Feb-2020\0\\#t pop=none jul-cc-pvdz upbe1pbe\\theory_abbreviation pbe
 0\\0,6\O,0,-0.264505,-0.256224,-0.744263\C,0,-1.140318,-1.17502,-0.573
 338\C,0,-2.781818,-0.321543,0.617064\C,0,-2.731435,0.872011,-0.050507\
 C,0,-3.505646,1.107584,-1.310842\Fe,0,1.473622,0.158919,-0.034282\Cl,0
 ,1.974031,2.063008,-0.986095\C,0,-1.836846,1.98791,0.368375\Cl,0,2.690
 597,-1.564559,-0.62621\Cl,0,1.271751,0.33507,2.154251\H,0,-3.517275,-1
 .041539,0.261042\H,0,-2.332697,2.956966,0.244849\H,0,-1.465415,1.89722
 4,1.388875\H,0,-0.964763,1.995801,-0.304114\H,0,-4.193709,1.948903,-1.
 154663\H,0,-2.838876,1.405117,-2.131071\H,0,-4.094652,0.24045,-1.61673
 1\C,0,-2.388329,-0.468007,2.072366\H,0,-3.083814,0.107507,2.695662\H,0
 ,-2.453907,-1.508769,2.395623\H,0,-1.3791,-0.110375,2.284882\C,0,-0.82
 0976,-2.289656,0.395675\H,0,-1.683381,-2.924158,0.607119\H,0,-0.056212
 ,-2.896613,-0.108744\H,0,-0.381516,-1.919257,1.321168\C,0,-1.888333,-1
 .590531,-1.821026\H,0,-1.207353,-2.2557,-2.368501\H,0,-2.802809,-2.146
 085,-1.604969\H,0,-2.0989,-0.737902,-2.464675\\Version=ES64L-G16RevA.0
 3\HF=-3033.1206417\S2=8.762552\S2-1=0.\S2A=8.750049\RMSD=9.760e-09\PG=
 C01 [X(C8H16Cl3Fe1O1)]\\@


 HOW IS IT THAT THE SKY FEEDS THE STARS?

                           -- LUCRETIUS
 Job cpu time:       0 days  1 hours 23 minutes 15.0 seconds.
 Elapsed time:       0 days  0 hours 20 minutes 52.0 seconds.
 File lengths (MBytes):  RWF=    173 Int=      0 D2E=      0 Chk=     13 Scr=      1
 Normal termination of Gaussian 16 at Tue Feb 11 13:57:32 2020.
 Initial command:
 /n/sw/g16_nehalem/g16/l1.exe "/scratch/Gau-1763.inp" -scrdir="/scratch/"
 Entering Link 1 = /n/sw/g16_nehalem/g16/l1.exe PID=      3138.
  
 Copyright (c) 1988,1990,1992,1993,1995,1998,2003,2009,2016,
            Gaussian, Inc.  All Rights Reserved.
  
 This is part of the Gaussian(R) 16 program.  It is based on
 the Gaussian(R) 09 system (copyright 2009, Gaussian, Inc.),
 the Gaussian(R) 03 system (copyright 2003, Gaussian, Inc.),
 the Gaussian(R) 98 system (copyright 1998, Gaussian, Inc.),
 the Gaussian(R) 94 system (copyright 1995, Gaussian, Inc.),
 the Gaussian 92(TM) system (copyright 1992, Gaussian, Inc.),
 the Gaussian 90(TM) system (copyright 1990, Gaussian, Inc.),
 the Gaussian 88(TM) system (copyright 1988, Gaussian, Inc.),
 the Gaussian 86(TM) system (copyright 1986, Carnegie Mellon
 University), and the Gaussian 82(TM) system (copyright 1983,
 Carnegie Mellon University). Gaussian is a federally registered
 trademark of Gaussian, Inc.
  
 This software contains proprietary and confidential information,
 including trade secrets, belonging to Gaussian, Inc.
  
 This software is provided under written license and may be
 used, copied, transmitted, or stored only in accord with that
 written license.
  
 The following legend is applicable only to US Government
 contracts under FAR:
  
                    RESTRICTED RIGHTS LEGEND
  
 Use, reproduction and disclosure by the US Government is
 subject to restrictions as set forth in subparagraphs (a)
 and (c) of the Commercial Computer Software - Restricted
 Rights clause in FAR 52.227-19.
  
 Gaussian, Inc.
 340 Quinnipiac St., Bldg. 40, Wallingford CT 06492
  
  
 ---------------------------------------------------------------
 Warning -- This program may not be used in any manner that
 competes with the business of Gaussian, Inc. or will provide
 assistance to any competitor of Gaussian, Inc.  The licensee
 of this program is prohibited from giving any competitor of
 Gaussian, Inc. access to this program.  By using this program,
 the user acknowledges that Gaussian, Inc. is engaged in the
 business of creating and licensing software in the field of
 computational chemistry and represents and warrants to the
 licensee that it is not a competitor of Gaussian, Inc. and that
 it will not use this program in any manner prohibited above.
 ---------------------------------------------------------------
  

 Cite this work as:
 Gaussian 16, Revision A.03,
 M. J. Frisch, G. W. Trucks, H. B. Schlegel, G. E. Scuseria, 
 M. A. Robb, J. R. Cheeseman, G. Scalmani, V. Barone, 
 G. A. Petersson, H. Nakatsuji, X. Li, M. Caricato, A. V. Marenich, 
 J. Bloino, B. G. Janesko, R. Gomperts, B. Mennucci, H. P. Hratchian, 
 J. V. Ortiz, A. F. Izmaylov, J. L. Sonnenberg, D. Williams-Young, 
 F. Ding, F. Lipparini, F. Egidi, J. Goings, B. Peng, A. Petrone, 
 T. Henderson, D. Ranasinghe, V. G. Zakrzewski, J. Gao, N. Rega, 
 G. Zheng, W. Liang, M. Hada, M. Ehara, K. Toyota, R. Fukuda, 
 J. Hasegawa, M. Ishida, T. Nakajima, Y. Honda, O. Kitao, H. Nakai, 
 T. Vreven, K. Throssell, J. A. Montgomery, Jr., J. E. Peralta, 
 F. Ogliaro, M. J. Bearpark, J. J. Heyd, E. N. Brothers, K. N. Kudin, 
 V. N. Staroverov, T. A. Keith, R. Kobayashi, J. Normand, 
 K. Raghavachari, A. P. Rendell, J. C. Burant, S. S. Iyengar, 
 J. Tomasi, M. Cossi, J. M. Millam, M. Klene, C. Adamo, R. Cammi, 
 J. W. Ochterski, R. L. Martin, K. Morokuma, O. Farkas, 
 J. B. Foresman, and D. J. Fox, Gaussian, Inc., Wallingford CT, 2016.
 
 ******************************************
 Gaussian 16:  ES64L-G16RevA.03 25-Dec-2016
                11-Feb-2020 
 ******************************************
 %chk=checkpoint.chk
 %mem=3GB
 %nprocshared=4
 Will use up to    4 processors via shared memory.
 ---------------------------------------------------------------------
 #t pop=none jul-cc-pvdz guess=read upbe1pbe empiricaldispersion=gd3bj
 ---------------------------------------------------------------------
 -----------------------------
 theory_abbreviation pbe0_d3bj
 -----------------------------
 Symbolic Z-matrix:
 Charge =  0 Multiplicity = 6
 O                    -0.26451  -0.25622  -0.74426 
 C                    -1.14032  -1.17502  -0.57334 
 C                    -2.78182  -0.32154   0.61706 
 C                    -2.73144   0.87201  -0.05051 
 C                    -3.50565   1.10758  -1.31084 
 Fe                    1.47362   0.15892  -0.03428 
 Cl                    1.97403   2.06301  -0.9861 
 C                    -1.83685   1.98791   0.36838 
 Cl                    2.6906   -1.56456  -0.62621 
 Cl                    1.27175   0.33507   2.15425 
 H                    -3.51728  -1.04154   0.26104 
 H                    -2.3327    2.95697   0.24485 
 H                    -1.46542   1.89722   1.38888 
 H                    -0.96476   1.9958   -0.30411 
 H                    -4.19371   1.9489   -1.15466 
 H                    -2.83888   1.40512  -2.13107 
 H                    -4.09465   0.24045  -1.61673 
 C                    -2.38833  -0.46801   2.07237 
 H                    -3.08381   0.10751   2.69566 
 H                    -2.45391  -1.50877   2.39562 
 H                    -1.3791   -0.11038   2.28488 
 C                    -0.82098  -2.28966   0.39568 
 H                    -1.68338  -2.92416   0.60712 
 H                    -0.05621  -2.89661  -0.10874 
 H                    -0.38152  -1.91926   1.32117 
 C                    -1.88833  -1.59053  -1.82103 
 H                    -1.20735  -2.2557   -2.3685 
 H                    -2.80281  -2.14609  -1.60497 
 H                    -2.0989   -0.7379   -2.46468 
 
                    Distance matrix (angstroms):
                    1          2          3          4          5
     1  O    0.000000
     2  C    1.280800   0.000000
     3  C    2.862576   2.200000   0.000000
     4  C    2.799992   2.644871   1.368488   0.000000
     5  C    3.561738   3.368823   2.506622   1.497779   0.000000
     6  Fe   1.922889   2.983732   4.331728   4.265122   5.227110
     7  Cl   3.232393   4.511581   5.556465   4.943198   5.571818
     8  C    2.957424   3.372848   2.507667   1.490296   2.525794
     9  Cl   3.233930   3.851032   5.747882   5.972164   6.782514
    10  Cl   3.333331   3.941851   4.384690   4.601604   5.952073
    11  H    3.493976   2.522683   1.089056   2.091956   2.662646
    12  H    3.947195   4.377728   3.329996   2.143190   2.686298
    13  H    3.260338   3.659870   2.692868   2.173865   3.474845
    14  H    2.399106   3.187069   3.085505   2.109111   2.873764
    15  H    4.524341   4.406816   3.207394   2.125348   1.098016
    16  H    3.363135   3.459586   3.246052   2.150463   1.098127
    17  H    3.959534   3.438068   2.651266   2.170320   1.091979
    18  C    3.533961   3.009510   1.514658   2.533764   3.895764
    19  H    4.462498   4.013529   2.143795   2.872296   4.150924
    20  H    4.027559   3.263684   2.163401   3.424717   4.657182
    21  H    3.230993   3.059397   2.189481   2.871922   4.351420
    22  C    2.396657   1.511085   2.787003   3.720896   4.654126
    23  H    3.310183   2.178963   2.824937   3.992717   4.822258
    24  H    2.723770   2.086867   3.819255   4.621984   5.420076
    25  H    2.654313   2.172285   2.968148   3.898049   5.084234
    26  C    2.361485   1.512911   2.890143   3.147963   3.186819
    27  H    2.743176   2.096419   3.890180   4.180729   4.208619
    28  H    3.279539   2.184286   2.875209   3.395637   3.341684
    29  H    2.560632   2.164973   3.183842   2.969870   2.591541
                    6          7          8          9         10
     6  Fe   0.000000
     7  Cl   2.186758   0.000000
     8  C    3.803490   4.045122   0.000000
     9  Cl   2.191297   3.715135   5.840118   0.000000
    10  Cl   2.204871   3.652498   3.947735   3.654132   0.000000
    11  H    5.141728   6.430241   3.465966   6.292729   5.330484
    12  H    4.732340   4.567526   1.095535   6.814427   4.848938
    13  H    3.699327   4.183032   1.089773   5.772083   3.243178
    14  H    3.064746   3.017636   1.101287   5.112882   3.715317
    15  H    6.047970   6.171098   2.806416   7.747086   6.589736
    16  H    4.954510   4.990778   2.755166   6.454352   6.033758
    17  H    5.789341   6.367757   3.477348   7.090754   6.559538
    18  C    4.443610   5.898339   3.039613   5.854932   3.748043
    19  H    5.312764   6.554473   3.241467   6.868367   4.394981
    20  H    4.910306   6.618175   4.088675   5.966616   4.163956
    21  H    3.686335   5.163949   2.878425   5.210714   2.691189
    22  C    3.383129   5.354161   4.396625   3.728426   3.789628
    23  H    4.459084   6.386456   4.920260   4.743553   4.663581
    24  H    3.417925   5.430421   5.220811   3.096304   4.162740
    25  H    3.097999   5.170155   4.276886   3.654582   2.917072
    26  C    4.189961   5.381757   4.195398   4.732321   5.431105
    27  H    4.297277   5.539268   5.088711   4.325190   5.771770
    28  H    5.105680   6.396692   4.681569   5.610138   6.073706
    29  H    4.412937   5.159463   3.940164   5.196402   5.817820
                   11         12         13         14         15
    11  H    0.000000
    12  H    4.170315   0.000000
    13  H    3.757455   1.784384   0.000000
    14  H    4.007512   1.759671   1.768214   0.000000
    15  H    3.377059   2.537359   3.730395   3.339420   0.000000
    16  H    3.488346   2.882611   3.810326   2.683091   1.756317
    17  H    2.345824   3.734893   4.323362   3.821050   1.772606
    18  C    2.210057   3.882442   2.629306   3.707364   4.417530
    19  H    2.726824   3.832764   2.744084   4.129732   4.409944
    20  H    2.430122   4.958156   3.686658   4.667777   5.252327
    21  H    3.087845   3.805215   2.200166   3.363117   4.898277
    22  C    2.974214   5.462151   4.351059   4.344597   5.634204
    23  H    2.650885   5.927940   4.889210   5.054973   5.757807
    24  H    3.944236   6.290612   5.216281   4.979894   6.456923
    25  H    3.424506   5.361261   3.967990   4.278948   5.968686
    26  C    2.699972   5.014482   4.758861   4.001972   4.276259
    27  H    3.704649   5.938677   5.606358   4.732421   5.298152
    28  H    2.283086   5.448299   5.205773   4.714431   4.348138
    29  H    3.087639   4.587835   4.711161   3.664345   3.650106
                   16         17         18         19         20
    16  H    0.000000
    17  H    1.788286   0.000000
    18  C    4.623902   4.125880   0.000000
    19  H    5.004112   4.431275   1.097002   0.000000
    20  H    5.397211   4.674483   1.091779   1.760442   0.000000
    21  H    4.891656   4.766538   1.091607   1.766993   1.767195
    22  C    4.909961   4.600888   2.930238   4.019548   2.697414
    23  H    5.251236   4.557903   2.945603   3.938809   2.407443
    24  H    5.507986   5.331434   4.011750   5.104489   3.734556
    25  H    5.385911   5.204129   2.587996   3.646837   2.370181
    26  C    3.158095   2.874382   4.082714   4.971215   4.255195
    27  H    4.014950   3.890041   4.930705   5.895049   4.980831
    28  H    3.590142   2.713770   4.063315   4.863442   4.066035
    29  H    2.291590   2.378909   4.554268   5.321076   4.933839
                   21         22         23         24         25
    21  H    0.000000
    22  C    2.937664   0.000000
    23  H    3.290114   1.091350   0.000000
    24  H    3.904177   1.098954   1.777891   0.000000
    25  H    2.279468   1.089430   1.792915   1.762298   0.000000
    26  C    4.394162   2.557692   2.777851   2.827442   3.500277
    27  H    5.126977   2.791256   3.086706   2.615798   3.795900
    28  H    4.615409   2.819725   2.598432   3.216485   3.804785
    29  H    4.844605   3.496088   3.793190   3.792495   4.321761
                   26         27         28         29
    26  C    0.000000
    27  H    1.098140   0.000000
    28  H    1.091598   1.772139   0.000000
    29  H    1.088852   1.762900   1.793756   0.000000
 Framework group  C1[X(C8H16Cl3FeO)]
 Deg. of freedom    81
                         Standard orientation:                         
 ---------------------------------------------------------------------
 Center     Atomic      Atomic             Coordinates (Angstroms)
 Number     Number       Type             X           Y           Z
 ---------------------------------------------------------------------
      1          8           0       -0.264505   -0.256224   -0.744263
      2          6           0       -1.140318   -1.175020   -0.573338
      3          6           0       -2.781818   -0.321543    0.617064
      4          6           0       -2.731435    0.872011   -0.050507
      5          6           0       -3.505646    1.107584   -1.310842
      6         26           0        1.473622    0.158919   -0.034282
      7         17           0        1.974031    2.063008   -0.986095
      8          6           0       -1.836846    1.987910    0.368375
      9         17           0        2.690597   -1.564559   -0.626210
     10         17           0        1.271751    0.335070    2.154251
     11          1           0       -3.517275   -1.041539    0.261042
     12          1           0       -2.332697    2.956966    0.244849
     13          1           0       -1.465415    1.897224    1.388875
     14          1           0       -0.964763    1.995801   -0.304114
     15          1           0       -4.193709    1.948903   -1.154663
     16          1           0       -2.838876    1.405117   -2.131071
     17          1           0       -4.094652    0.240450   -1.616731
     18          6           0       -2.388329   -0.468007    2.072366
     19          1           0       -3.083814    0.107507    2.695662
     20          1           0       -2.453907   -1.508769    2.395623
     21          1           0       -1.379100   -0.110375    2.284882
     22          6           0       -0.820976   -2.289656    0.395675
     23          1           0       -1.683381   -2.924158    0.607119
     24          1           0       -0.056212   -2.896613   -0.108744
     25          1           0       -0.381516   -1.919257    1.321168
     26          6           0       -1.888333   -1.590531   -1.821026
     27          1           0       -1.207353   -2.255700   -2.368501
     28          1           0       -2.802809   -2.146085   -1.604969
     29          1           0       -2.098900   -0.737902   -2.464675
 ---------------------------------------------------------------------
 Rotational constants (GHZ):           0.5802893           0.3253572           0.3067788
   427 basis functions,  1056 primitive gaussians,   461 cartesian basis functions
    77 alpha electrons       72 beta electrons
       nuclear repulsion energy      1633.1436790416 Hartrees.
 NAtoms=   29 NActive=   29 NUniq=   29 SFac= 1.00D+00 NAtFMM=   60 NAOKFM=F Big=F
 Nuclear repulsion after empirical dispersion term =     1633.1065483681 Hartrees.
 Initial guess from the checkpoint file:  "checkpoint.chk"
 B after Tr=     0.000000    0.000000    0.000000
         Rot=    1.000000    0.000000    0.000000    0.000000 Ang=   0.00 deg.
 Initial guess <Sx>= 0.0000 <Sy>= 0.0000 <Sz>= 2.5000 <S**2>= 8.7626 S= 2.5021
 SCF Done:  E(UPBE1PBE) =  -3033.15777238     A.U. after    1 cycles
            NFock=  1  Conv=0.39D-08     -V/T= 2.0021
 <Sx>= 0.0000 <Sy>= 0.0000 <Sz>= 2.5000 <S**2>= 8.7626 S= 2.5021
 <L.S>= 0.000000000000E+00
 Annihilation of the first spin contaminant:
 S**2 before annihilation     8.7626,   after     8.7500
 1\1\GINC-HOLY7C04203\SP\UPBE1PBE\Jul-CC-pVDZ\C8H16Cl3Fe1O1(6)\EKWAN\11
 -Feb-2020\0\\#t pop=none jul-cc-pvdz guess=read upbe1pbe empiricaldisp
 ersion=gd3bj\\theory_abbreviation pbe0_d3bj\\0,6\O,0,-0.264505,-0.2562
 24,-0.744263\C,0,-1.140318,-1.17502,-0.573338\C,0,-2.781818,-0.321543,
 0.617064\C,0,-2.731435,0.872011,-0.050507\C,0,-3.505646,1.107584,-1.31
 0842\Fe,0,1.473622,0.158919,-0.034282\Cl,0,1.974031,2.063008,-0.986095
 \C,0,-1.836846,1.98791,0.368375\Cl,0,2.690597,-1.564559,-0.62621\Cl,0,
 1.271751,0.33507,2.154251\H,0,-3.517275,-1.041539,0.261042\H,0,-2.3326
 97,2.956966,0.244849\H,0,-1.465415,1.897224,1.388875\H,0,-0.964763,1.9
 95801,-0.304114\H,0,-4.193709,1.948903,-1.154663\H,0,-2.838876,1.40511
 7,-2.131071\H,0,-4.094652,0.24045,-1.616731\C,0,-2.388329,-0.468007,2.
 072366\H,0,-3.083814,0.107507,2.695662\H,0,-2.453907,-1.508769,2.39562
 3\H,0,-1.3791,-0.110375,2.284882\C,0,-0.820976,-2.289656,0.395675\H,0,
 -1.683381,-2.924158,0.607119\H,0,-0.056212,-2.896613,-0.108744\H,0,-0.
 381516,-1.919257,1.321168\C,0,-1.888333,-1.590531,-1.821026\H,0,-1.207
 353,-2.2557,-2.368501\H,0,-2.802809,-2.146085,-1.604969\H,0,-2.0989,-0
 .737902,-2.464675\\Version=ES64L-G16RevA.03\HF=-3033.1577724\S2=8.7625
 52\S2-1=0.\S2A=8.750049\RMSD=3.915e-09\PG=C01 [X(C8H16Cl3Fe1O1)]\\@


 IF I HAVE SEEN FARTHER, IT IS BY STANDING ON THE
 SHOULDERS OF GIANTS. -- SIR ISAAC NEWTON
 Job cpu time:       0 days  0 hours  4 minutes 27.1 seconds.
 Elapsed time:       0 days  0 hours  1 minutes  7.2 seconds.
 File lengths (MBytes):  RWF=    170 Int=      0 D2E=      0 Chk=     13 Scr=      1
 Normal termination of Gaussian 16 at Tue Feb 11 13:58:40 2020.
 Initial command:
 /n/sw/g16_nehalem/g16/l1.exe "/scratch/Gau-1763.inp" -scrdir="/scratch/"
 Entering Link 1 = /n/sw/g16_nehalem/g16/l1.exe PID=      3363.
  
 Copyright (c) 1988,1990,1992,1993,1995,1998,2003,2009,2016,
            Gaussian, Inc.  All Rights Reserved.
  
 This is part of the Gaussian(R) 16 program.  It is based on
 the Gaussian(R) 09 system (copyright 2009, Gaussian, Inc.),
 the Gaussian(R) 03 system (copyright 2003, Gaussian, Inc.),
 the Gaussian(R) 98 system (copyright 1998, Gaussian, Inc.),
 the Gaussian(R) 94 system (copyright 1995, Gaussian, Inc.),
 the Gaussian 92(TM) system (copyright 1992, Gaussian, Inc.),
 the Gaussian 90(TM) system (copyright 1990, Gaussian, Inc.),
 the Gaussian 88(TM) system (copyright 1988, Gaussian, Inc.),
 the Gaussian 86(TM) system (copyright 1986, Carnegie Mellon
 University), and the Gaussian 82(TM) system (copyright 1983,
 Carnegie Mellon University). Gaussian is a federally registered
 trademark of Gaussian, Inc.
  
 This software contains proprietary and confidential information,
 including trade secrets, belonging to Gaussian, Inc.
  
 This software is provided under written license and may be
 used, copied, transmitted, or stored only in accord with that
 written license.
  
 The following legend is applicable only to US Government
 contracts under FAR:
  
                    RESTRICTED RIGHTS LEGEND
  
 Use, reproduction and disclosure by the US Government is
 subject to restrictions as set forth in subparagraphs (a)
 and (c) of the Commercial Computer Software - Restricted
 Rights clause in FAR 52.227-19.
  
 Gaussian, Inc.
 340 Quinnipiac St., Bldg. 40, Wallingford CT 06492
  
  
 ---------------------------------------------------------------
 Warning -- This program may not be used in any manner that
 competes with the business of Gaussian, Inc. or will provide
 assistance to any competitor of Gaussian, Inc.  The licensee
 of this program is prohibited from giving any competitor of
 Gaussian, Inc. access to this program.  By using this program,
 the user acknowledges that Gaussian, Inc. is engaged in the
 business of creating and licensing software in the field of
 computational chemistry and represents and warrants to the
 licensee that it is not a competitor of Gaussian, Inc. and that
 it will not use this program in any manner prohibited above.
 ---------------------------------------------------------------
  

 Cite this work as:
 Gaussian 16, Revision A.03,
 M. J. Frisch, G. W. Trucks, H. B. Schlegel, G. E. Scuseria, 
 M. A. Robb, J. R. Cheeseman, G. Scalmani, V. Barone, 
 G. A. Petersson, H. Nakatsuji, X. Li, M. Caricato, A. V. Marenich, 
 J. Bloino, B. G. Janesko, R. Gomperts, B. Mennucci, H. P. Hratchian, 
 J. V. Ortiz, A. F. Izmaylov, J. L. Sonnenberg, D. Williams-Young, 
 F. Ding, F. Lipparini, F. Egidi, J. Goings, B. Peng, A. Petrone, 
 T. Henderson, D. Ranasinghe, V. G. Zakrzewski, J. Gao, N. Rega, 
 G. Zheng, W. Liang, M. Hada, M. Ehara, K. Toyota, R. Fukuda, 
 J. Hasegawa, M. Ishida, T. Nakajima, Y. Honda, O. Kitao, H. Nakai, 
 T. Vreven, K. Throssell, J. A. Montgomery, Jr., J. E. Peralta, 
 F. Ogliaro, M. J. Bearpark, J. J. Heyd, E. N. Brothers, K. N. Kudin, 
 V. N. Staroverov, T. A. Keith, R. Kobayashi, J. Normand, 
 K. Raghavachari, A. P. Rendell, J. C. Burant, S. S. Iyengar, 
 J. Tomasi, M. Cossi, J. M. Millam, M. Klene, C. Adamo, R. Cammi, 
 J. W. Ochterski, R. L. Martin, K. Morokuma, O. Farkas, 
 J. B. Foresman, and D. J. Fox, Gaussian, Inc., Wallingford CT, 2016.
 
 ******************************************
 Gaussian 16:  ES64L-G16RevA.03 25-Dec-2016
                11-Feb-2020 
 ******************************************
 %chk=checkpoint.chk
 %mem=3GB
 %nprocshared=4
 Will use up to    4 processors via shared memory.
 -----------------------------------------
 #t pop=none jul-cc-pvdz guess=read ub3lyp
 -----------------------------------------
 -------------------------
 theory_abbreviation b3lyp
 -------------------------
 Symbolic Z-matrix:
 Charge =  0 Multiplicity = 6
 O                    -0.26451  -0.25622  -0.74426 
 C                    -1.14032  -1.17502  -0.57334 
 C                    -2.78182  -0.32154   0.61706 
 C                    -2.73144   0.87201  -0.05051 
 C                    -3.50565   1.10758  -1.31084 
 Fe                    1.47362   0.15892  -0.03428 
 Cl                    1.97403   2.06301  -0.9861 
 C                    -1.83685   1.98791   0.36838 
 Cl                    2.6906   -1.56456  -0.62621 
 Cl                    1.27175   0.33507   2.15425 
 H                    -3.51728  -1.04154   0.26104 
 H                    -2.3327    2.95697   0.24485 
 H                    -1.46542   1.89722   1.38888 
 H                    -0.96476   1.9958   -0.30411 
 H                    -4.19371   1.9489   -1.15466 
 H                    -2.83888   1.40512  -2.13107 
 H                    -4.09465   0.24045  -1.61673 
 C                    -2.38833  -0.46801   2.07237 
 H                    -3.08381   0.10751   2.69566 
 H                    -2.45391  -1.50877   2.39562 
 H                    -1.3791   -0.11038   2.28488 
 C                    -0.82098  -2.28966   0.39568 
 H                    -1.68338  -2.92416   0.60712 
 H                    -0.05621  -2.89661  -0.10874 
 H                    -0.38152  -1.91926   1.32117 
 C                    -1.88833  -1.59053  -1.82103 
 H                    -1.20735  -2.2557   -2.3685 
 H                    -2.80281  -2.14609  -1.60497 
 H                    -2.0989   -0.7379   -2.46468 
 
                    Distance matrix (angstroms):
                    1          2          3          4          5
     1  O    0.000000
     2  C    1.280800   0.000000
     3  C    2.862576   2.200000   0.000000
     4  C    2.799992   2.644871   1.368488   0.000000
     5  C    3.561738   3.368823   2.506622   1.497779   0.000000
     6  Fe   1.922889   2.983732   4.331728   4.265122   5.227110
     7  Cl   3.232393   4.511581   5.556465   4.943198   5.571818
     8  C    2.957424   3.372848   2.507667   1.490296   2.525794
     9  Cl   3.233930   3.851032   5.747882   5.972164   6.782514
    10  Cl   3.333331   3.941851   4.384690   4.601604   5.952073
    11  H    3.493976   2.522683   1.089056   2.091956   2.662646
    12  H    3.947195   4.377728   3.329996   2.143190   2.686298
    13  H    3.260338   3.659870   2.692868   2.173865   3.474845
    14  H    2.399106   3.187069   3.085505   2.109111   2.873764
    15  H    4.524341   4.406816   3.207394   2.125348   1.098016
    16  H    3.363135   3.459586   3.246052   2.150463   1.098127
    17  H    3.959534   3.438068   2.651266   2.170320   1.091979
    18  C    3.533961   3.009510   1.514658   2.533764   3.895764
    19  H    4.462498   4.013529   2.143795   2.872296   4.150924
    20  H    4.027559   3.263684   2.163401   3.424717   4.657182
    21  H    3.230993   3.059397   2.189481   2.871922   4.351420
    22  C    2.396657   1.511085   2.787003   3.720896   4.654126
    23  H    3.310183   2.178963   2.824937   3.992717   4.822258
    24  H    2.723770   2.086867   3.819255   4.621984   5.420076
    25  H    2.654313   2.172285   2.968148   3.898049   5.084234
    26  C    2.361485   1.512911   2.890143   3.147963   3.186819
    27  H    2.743176   2.096419   3.890180   4.180729   4.208619
    28  H    3.279539   2.184286   2.875209   3.395637   3.341684
    29  H    2.560632   2.164973   3.183842   2.969870   2.591541
                    6          7          8          9         10
     6  Fe   0.000000
     7  Cl   2.186758   0.000000
     8  C    3.803490   4.045122   0.000000
     9  Cl   2.191297   3.715135   5.840118   0.000000
    10  Cl   2.204871   3.652498   3.947735   3.654132   0.000000
    11  H    5.141728   6.430241   3.465966   6.292729   5.330484
    12  H    4.732340   4.567526   1.095535   6.814427   4.848938
    13  H    3.699327   4.183032   1.089773   5.772083   3.243178
    14  H    3.064746   3.017636   1.101287   5.112882   3.715317
    15  H    6.047970   6.171098   2.806416   7.747086   6.589736
    16  H    4.954510   4.990778   2.755166   6.454352   6.033758
    17  H    5.789341   6.367757   3.477348   7.090754   6.559538
    18  C    4.443610   5.898339   3.039613   5.854932   3.748043
    19  H    5.312764   6.554473   3.241467   6.868367   4.394981
    20  H    4.910306   6.618175   4.088675   5.966616   4.163956
    21  H    3.686335   5.163949   2.878425   5.210714   2.691189
    22  C    3.383129   5.354161   4.396625   3.728426   3.789628
    23  H    4.459084   6.386456   4.920260   4.743553   4.663581
    24  H    3.417925   5.430421   5.220811   3.096304   4.162740
    25  H    3.097999   5.170155   4.276886   3.654582   2.917072
    26  C    4.189961   5.381757   4.195398   4.732321   5.431105
    27  H    4.297277   5.539268   5.088711   4.325190   5.771770
    28  H    5.105680   6.396692   4.681569   5.610138   6.073706
    29  H    4.412937   5.159463   3.940164   5.196402   5.817820
                   11         12         13         14         15
    11  H    0.000000
    12  H    4.170315   0.000000
    13  H    3.757455   1.784384   0.000000
    14  H    4.007512   1.759671   1.768214   0.000000
    15  H    3.377059   2.537359   3.730395   3.339420   0.000000
    16  H    3.488346   2.882611   3.810326   2.683091   1.756317
    17  H    2.345824   3.734893   4.323362   3.821050   1.772606
    18  C    2.210057   3.882442   2.629306   3.707364   4.417530
    19  H    2.726824   3.832764   2.744084   4.129732   4.409944
    20  H    2.430122   4.958156   3.686658   4.667777   5.252327
    21  H    3.087845   3.805215   2.200166   3.363117   4.898277
    22  C    2.974214   5.462151   4.351059   4.344597   5.634204
    23  H    2.650885   5.927940   4.889210   5.054973   5.757807
    24  H    3.944236   6.290612   5.216281   4.979894   6.456923
    25  H    3.424506   5.361261   3.967990   4.278948   5.968686
    26  C    2.699972   5.014482   4.758861   4.001972   4.276259
    27  H    3.704649   5.938677   5.606358   4.732421   5.298152
    28  H    2.283086   5.448299   5.205773   4.714431   4.348138
    29  H    3.087639   4.587835   4.711161   3.664345   3.650106
                   16         17         18         19         20
    16  H    0.000000
    17  H    1.788286   0.000000
    18  C    4.623902   4.125880   0.000000
    19  H    5.004112   4.431275   1.097002   0.000000
    20  H    5.397211   4.674483   1.091779   1.760442   0.000000
    21  H    4.891656   4.766538   1.091607   1.766993   1.767195
    22  C    4.909961   4.600888   2.930238   4.019548   2.697414
    23  H    5.251236   4.557903   2.945603   3.938809   2.407443
    24  H    5.507986   5.331434   4.011750   5.104489   3.734556
    25  H    5.385911   5.204129   2.587996   3.646837   2.370181
    26  C    3.158095   2.874382   4.082714   4.971215   4.255195
    27  H    4.014950   3.890041   4.930705   5.895049   4.980831
    28  H    3.590142   2.713770   4.063315   4.863442   4.066035
    29  H    2.291590   2.378909   4.554268   5.321076   4.933839
                   21         22         23         24         25
    21  H    0.000000
    22  C    2.937664   0.000000
    23  H    3.290114   1.091350   0.000000
    24  H    3.904177   1.098954   1.777891   0.000000
    25  H    2.279468   1.089430   1.792915   1.762298   0.000000
    26  C    4.394162   2.557692   2.777851   2.827442   3.500277
    27  H    5.126977   2.791256   3.086706   2.615798   3.795900
    28  H    4.615409   2.819725   2.598432   3.216485   3.804785
    29  H    4.844605   3.496088   3.793190   3.792495   4.321761
                   26         27         28         29
    26  C    0.000000
    27  H    1.098140   0.000000
    28  H    1.091598   1.772139   0.000000
    29  H    1.088852   1.762900   1.793756   0.000000
 Framework group  C1[X(C8H16Cl3FeO)]
 Deg. of freedom    81
                         Standard orientation:                         
 ---------------------------------------------------------------------
 Center     Atomic      Atomic             Coordinates (Angstroms)
 Number     Number       Type             X           Y           Z
 ---------------------------------------------------------------------
      1          8           0       -0.264505   -0.256224   -0.744263
      2          6           0       -1.140318   -1.175020   -0.573338
      3          6           0       -2.781818   -0.321543    0.617064
      4          6           0       -2.731435    0.872011   -0.050507
      5          6           0       -3.505646    1.107584   -1.310842
      6         26           0        1.473622    0.158919   -0.034282
      7         17           0        1.974031    2.063008   -0.986095
      8          6           0       -1.836846    1.987910    0.368375
      9         17           0        2.690597   -1.564559   -0.626210
     10         17           0        1.271751    0.335070    2.154251
     11          1           0       -3.517275   -1.041539    0.261042
     12          1           0       -2.332697    2.956966    0.244849
     13          1           0       -1.465415    1.897224    1.388875
     14          1           0       -0.964763    1.995801   -0.304114
     15          1           0       -4.193709    1.948903   -1.154663
     16          1           0       -2.838876    1.405117   -2.131071
     17          1           0       -4.094652    0.240450   -1.616731
     18          6           0       -2.388329   -0.468007    2.072366
     19          1           0       -3.083814    0.107507    2.695662
     20          1           0       -2.453907   -1.508769    2.395623
     21          1           0       -1.379100   -0.110375    2.284882
     22          6           0       -0.820976   -2.289656    0.395675
     23          1           0       -1.683381   -2.924158    0.607119
     24          1           0       -0.056212   -2.896613   -0.108744
     25          1           0       -0.381516   -1.919257    1.321168
     26          6           0       -1.888333   -1.590531   -1.821026
     27          1           0       -1.207353   -2.255700   -2.368501
     28          1           0       -2.802809   -2.146085   -1.604969
     29          1           0       -2.098900   -0.737902   -2.464675
 ---------------------------------------------------------------------
 Rotational constants (GHZ):           0.5802893           0.3253572           0.3067788
   427 basis functions,  1056 primitive gaussians,   461 cartesian basis functions
    77 alpha electrons       72 beta electrons
       nuclear repulsion energy      1633.1436790416 Hartrees.
 NAtoms=   29 NActive=   29 NUniq=   29 SFac= 1.00D+00 NAtFMM=   60 NAOKFM=F Big=F
 Initial guess from the checkpoint file:  "checkpoint.chk"
 B after Tr=     0.000000    0.000000    0.000000
         Rot=    1.000000    0.000000    0.000000    0.000000 Ang=   0.00 deg.
 Initial guess <Sx>= 0.0000 <Sy>= 0.0000 <Sz>= 2.5000 <S**2>= 8.7626 S= 2.5021
 SCF Done:  E(UB3LYP) =  -3034.33653492     A.U. after   14 cycles
            NFock= 14  Conv=0.69D-08     -V/T= 2.0024
 <Sx>= 0.0000 <Sy>= 0.0000 <Sz>= 2.5000 <S**2>= 8.7618 S= 2.5020
 <L.S>= 0.000000000000E+00
 Annihilation of the first spin contaminant:
 S**2 before annihilation     8.7618,   after     8.7500
 1\1\GINC-HOLY7C04203\SP\UB3LYP\Jul-CC-pVDZ\C8H16Cl3Fe1O1(6)\EKWAN\11-F
 eb-2020\0\\#t pop=none jul-cc-pvdz guess=read ub3lyp\\theory_abbreviat
 ion b3lyp\\0,6\O,0,-0.264505,-0.256224,-0.744263\C,0,-1.140318,-1.1750
 2,-0.573338\C,0,-2.781818,-0.321543,0.617064\C,0,-2.731435,0.872011,-0
 .050507\C,0,-3.505646,1.107584,-1.310842\Fe,0,1.473622,0.158919,-0.034
 282\Cl,0,1.974031,2.063008,-0.986095\C,0,-1.836846,1.98791,0.368375\Cl
 ,0,2.690597,-1.564559,-0.62621\Cl,0,1.271751,0.33507,2.154251\H,0,-3.5
 17275,-1.041539,0.261042\H,0,-2.332697,2.956966,0.244849\H,0,-1.465415
 ,1.897224,1.388875\H,0,-0.964763,1.995801,-0.304114\H,0,-4.193709,1.94
 8903,-1.154663\H,0,-2.838876,1.405117,-2.131071\H,0,-4.094652,0.24045,
 -1.616731\C,0,-2.388329,-0.468007,2.072366\H,0,-3.083814,0.107507,2.69
 5662\H,0,-2.453907,-1.508769,2.395623\H,0,-1.3791,-0.110375,2.284882\C
 ,0,-0.820976,-2.289656,0.395675\H,0,-1.683381,-2.924158,0.607119\H,0,-
 0.056212,-2.896613,-0.108744\H,0,-0.381516,-1.919257,1.321168\C,0,-1.8
 88333,-1.590531,-1.821026\H,0,-1.207353,-2.2557,-2.368501\H,0,-2.80280
 9,-2.146085,-1.604969\H,0,-2.0989,-0.737902,-2.464675\\Version=ES64L-G
 16RevA.03\HF=-3034.3365349\S2=8.761837\S2-1=0.\S2A=8.750043\RMSD=6.890
 e-09\PG=C01 [X(C8H16Cl3Fe1O1)]\\@


 A true friend is someone who is there for
 you when he'd rather be anywhere else.
                               -- Len Wein
 Job cpu time:       0 days  0 hours 56 minutes 56.3 seconds.
 Elapsed time:       0 days  0 hours 14 minutes 16.3 seconds.
 File lengths (MBytes):  RWF=    174 Int=      0 D2E=      0 Chk=     13 Scr=      1
 Normal termination of Gaussian 16 at Tue Feb 11 14:12:57 2020.
 Initial command:
 /n/sw/g16_nehalem/g16/l1.exe "/scratch/Gau-1763.inp" -scrdir="/scratch/"
 Entering Link 1 = /n/sw/g16_nehalem/g16/l1.exe PID=      5362.
  
 Copyright (c) 1988,1990,1992,1993,1995,1998,2003,2009,2016,
            Gaussian, Inc.  All Rights Reserved.
  
 This is part of the Gaussian(R) 16 program.  It is based on
 the Gaussian(R) 09 system (copyright 2009, Gaussian, Inc.),
 the Gaussian(R) 03 system (copyright 2003, Gaussian, Inc.),
 the Gaussian(R) 98 system (copyright 1998, Gaussian, Inc.),
 the Gaussian(R) 94 system (copyright 1995, Gaussian, Inc.),
 the Gaussian 92(TM) system (copyright 1992, Gaussian, Inc.),
 the Gaussian 90(TM) system (copyright 1990, Gaussian, Inc.),
 the Gaussian 88(TM) system (copyright 1988, Gaussian, Inc.),
 the Gaussian 86(TM) system (copyright 1986, Carnegie Mellon
 University), and the Gaussian 82(TM) system (copyright 1983,
 Carnegie Mellon University). Gaussian is a federally registered
 trademark of Gaussian, Inc.
  
 This software contains proprietary and confidential information,
 including trade secrets, belonging to Gaussian, Inc.
  
 This software is provided under written license and may be
 used, copied, transmitted, or stored only in accord with that
 written license.
  
 The following legend is applicable only to US Government
 contracts under FAR:
  
                    RESTRICTED RIGHTS LEGEND
  
 Use, reproduction and disclosure by the US Government is
 subject to restrictions as set forth in subparagraphs (a)
 and (c) of the Commercial Computer Software - Restricted
 Rights clause in FAR 52.227-19.
  
 Gaussian, Inc.
 340 Quinnipiac St., Bldg. 40, Wallingford CT 06492
  
  
 ---------------------------------------------------------------
 Warning -- This program may not be used in any manner that
 competes with the business of Gaussian, Inc. or will provide
 assistance to any competitor of Gaussian, Inc.  The licensee
 of this program is prohibited from giving any competitor of
 Gaussian, Inc. access to this program.  By using this program,
 the user acknowledges that Gaussian, Inc. is engaged in the
 business of creating and licensing software in the field of
 computational chemistry and represents and warrants to the
 licensee that it is not a competitor of Gaussian, Inc. and that
 it will not use this program in any manner prohibited above.
 ---------------------------------------------------------------
  

 Cite this work as:
 Gaussian 16, Revision A.03,
 M. J. Frisch, G. W. Trucks, H. B. Schlegel, G. E. Scuseria, 
 M. A. Robb, J. R. Cheeseman, G. Scalmani, V. Barone, 
 G. A. Petersson, H. Nakatsuji, X. Li, M. Caricato, A. V. Marenich, 
 J. Bloino, B. G. Janesko, R. Gomperts, B. Mennucci, H. P. Hratchian, 
 J. V. Ortiz, A. F. Izmaylov, J. L. Sonnenberg, D. Williams-Young, 
 F. Ding, F. Lipparini, F. Egidi, J. Goings, B. Peng, A. Petrone, 
 T. Henderson, D. Ranasinghe, V. G. Zakrzewski, J. Gao, N. Rega, 
 G. Zheng, W. Liang, M. Hada, M. Ehara, K. Toyota, R. Fukuda, 
 J. Hasegawa, M. Ishida, T. Nakajima, Y. Honda, O. Kitao, H. Nakai, 
 T. Vreven, K. Throssell, J. A. Montgomery, Jr., J. E. Peralta, 
 F. Ogliaro, M. J. Bearpark, J. J. Heyd, E. N. Brothers, K. N. Kudin, 
 V. N. Staroverov, T. A. Keith, R. Kobayashi, J. Normand, 
 K. Raghavachari, A. P. Rendell, J. C. Burant, S. S. Iyengar, 
 J. Tomasi, M. Cossi, J. M. Millam, M. Klene, C. Adamo, R. Cammi, 
 J. W. Ochterski, R. L. Martin, K. Morokuma, O. Farkas, 
 J. B. Foresman, and D. J. Fox, Gaussian, Inc., Wallingford CT, 2016.
 
 ******************************************
 Gaussian 16:  ES64L-G16RevA.03 25-Dec-2016
                11-Feb-2020 
 ******************************************
 %chk=checkpoint.chk
 %mem=3GB
 %nprocshared=4
 Will use up to    4 processors via shared memory.
 -------------------------------------------------------------------
 #t pop=none jul-cc-pvdz guess=read ub3lyp empiricaldispersion=gd3bj
 -------------------------------------------------------------------
 ------------------------------
 theory_abbreviation b3lyp_d3bj
 ------------------------------
 Symbolic Z-matrix:
 Charge =  0 Multiplicity = 6
 O                    -0.26451  -0.25622  -0.74426 
 C                    -1.14032  -1.17502  -0.57334 
 C                    -2.78182  -0.32154   0.61706 
 C                    -2.73144   0.87201  -0.05051 
 C                    -3.50565   1.10758  -1.31084 
 Fe                    1.47362   0.15892  -0.03428 
 Cl                    1.97403   2.06301  -0.9861 
 C                    -1.83685   1.98791   0.36838 
 Cl                    2.6906   -1.56456  -0.62621 
 Cl                    1.27175   0.33507   2.15425 
 H                    -3.51728  -1.04154   0.26104 
 H                    -2.3327    2.95697   0.24485 
 H                    -1.46542   1.89722   1.38888 
 H                    -0.96476   1.9958   -0.30411 
 H                    -4.19371   1.9489   -1.15466 
 H                    -2.83888   1.40512  -2.13107 
 H                    -4.09465   0.24045  -1.61673 
 C                    -2.38833  -0.46801   2.07237 
 H                    -3.08381   0.10751   2.69566 
 H                    -2.45391  -1.50877   2.39562 
 H                    -1.3791   -0.11038   2.28488 
 C                    -0.82098  -2.28966   0.39568 
 H                    -1.68338  -2.92416   0.60712 
 H                    -0.05621  -2.89661  -0.10874 
 H                    -0.38152  -1.91926   1.32117 
 C                    -1.88833  -1.59053  -1.82103 
 H                    -1.20735  -2.2557   -2.3685 
 H                    -2.80281  -2.14609  -1.60497 
 H                    -2.0989   -0.7379   -2.46468 
 
                    Distance matrix (angstroms):
                    1          2          3          4          5
     1  O    0.000000
     2  C    1.280800   0.000000
     3  C    2.862576   2.200000   0.000000
     4  C    2.799992   2.644871   1.368488   0.000000
     5  C    3.561738   3.368823   2.506622   1.497779   0.000000
     6  Fe   1.922889   2.983732   4.331728   4.265122   5.227110
     7  Cl   3.232393   4.511581   5.556465   4.943198   5.571818
     8  C    2.957424   3.372848   2.507667   1.490296   2.525794
     9  Cl   3.233930   3.851032   5.747882   5.972164   6.782514
    10  Cl   3.333331   3.941851   4.384690   4.601604   5.952073
    11  H    3.493976   2.522683   1.089056   2.091956   2.662646
    12  H    3.947195   4.377728   3.329996   2.143190   2.686298
    13  H    3.260338   3.659870   2.692868   2.173865   3.474845
    14  H    2.399106   3.187069   3.085505   2.109111   2.873764
    15  H    4.524341   4.406816   3.207394   2.125348   1.098016
    16  H    3.363135   3.459586   3.246052   2.150463   1.098127
    17  H    3.959534   3.438068   2.651266   2.170320   1.091979
    18  C    3.533961   3.009510   1.514658   2.533764   3.895764
    19  H    4.462498   4.013529   2.143795   2.872296   4.150924
    20  H    4.027559   3.263684   2.163401   3.424717   4.657182
    21  H    3.230993   3.059397   2.189481   2.871922   4.351420
    22  C    2.396657   1.511085   2.787003   3.720896   4.654126
    23  H    3.310183   2.178963   2.824937   3.992717   4.822258
    24  H    2.723770   2.086867   3.819255   4.621984   5.420076
    25  H    2.654313   2.172285   2.968148   3.898049   5.084234
    26  C    2.361485   1.512911   2.890143   3.147963   3.186819
    27  H    2.743176   2.096419   3.890180   4.180729   4.208619
    28  H    3.279539   2.184286   2.875209   3.395637   3.341684
    29  H    2.560632   2.164973   3.183842   2.969870   2.591541
                    6          7          8          9         10
     6  Fe   0.000000
     7  Cl   2.186758   0.000000
     8  C    3.803490   4.045122   0.000000
     9  Cl   2.191297   3.715135   5.840118   0.000000
    10  Cl   2.204871   3.652498   3.947735   3.654132   0.000000
    11  H    5.141728   6.430241   3.465966   6.292729   5.330484
    12  H    4.732340   4.567526   1.095535   6.814427   4.848938
    13  H    3.699327   4.183032   1.089773   5.772083   3.243178
    14  H    3.064746   3.017636   1.101287   5.112882   3.715317
    15  H    6.047970   6.171098   2.806416   7.747086   6.589736
    16  H    4.954510   4.990778   2.755166   6.454352   6.033758
    17  H    5.789341   6.367757   3.477348   7.090754   6.559538
    18  C    4.443610   5.898339   3.039613   5.854932   3.748043
    19  H    5.312764   6.554473   3.241467   6.868367   4.394981
    20  H    4.910306   6.618175   4.088675   5.966616   4.163956
    21  H    3.686335   5.163949   2.878425   5.210714   2.691189
    22  C    3.383129   5.354161   4.396625   3.728426   3.789628
    23  H    4.459084   6.386456   4.920260   4.743553   4.663581
    24  H    3.417925   5.430421   5.220811   3.096304   4.162740
    25  H    3.097999   5.170155   4.276886   3.654582   2.917072
    26  C    4.189961   5.381757   4.195398   4.732321   5.431105
    27  H    4.297277   5.539268   5.088711   4.325190   5.771770
    28  H    5.105680   6.396692   4.681569   5.610138   6.073706
    29  H    4.412937   5.159463   3.940164   5.196402   5.817820
                   11         12         13         14         15
    11  H    0.000000
    12  H    4.170315   0.000000
    13  H    3.757455   1.784384   0.000000
    14  H    4.007512   1.759671   1.768214   0.000000
    15  H    3.377059   2.537359   3.730395   3.339420   0.000000
    16  H    3.488346   2.882611   3.810326   2.683091   1.756317
    17  H    2.345824   3.734893   4.323362   3.821050   1.772606
    18  C    2.210057   3.882442   2.629306   3.707364   4.417530
    19  H    2.726824   3.832764   2.744084   4.129732   4.409944
    20  H    2.430122   4.958156   3.686658   4.667777   5.252327
    21  H    3.087845   3.805215   2.200166   3.363117   4.898277
    22  C    2.974214   5.462151   4.351059   4.344597   5.634204
    23  H    2.650885   5.927940   4.889210   5.054973   5.757807
    24  H    3.944236   6.290612   5.216281   4.979894   6.456923
    25  H    3.424506   5.361261   3.967990   4.278948   5.968686
    26  C    2.699972   5.014482   4.758861   4.001972   4.276259
    27  H    3.704649   5.938677   5.606358   4.732421   5.298152
    28  H    2.283086   5.448299   5.205773   4.714431   4.348138
    29  H    3.087639   4.587835   4.711161   3.664345   3.650106
                   16         17         18         19         20
    16  H    0.000000
    17  H    1.788286   0.000000
    18  C    4.623902   4.125880   0.000000
    19  H    5.004112   4.431275   1.097002   0.000000
    20  H    5.397211   4.674483   1.091779   1.760442   0.000000
    21  H    4.891656   4.766538   1.091607   1.766993   1.767195
    22  C    4.909961   4.600888   2.930238   4.019548   2.697414
    23  H    5.251236   4.557903   2.945603   3.938809   2.407443
    24  H    5.507986   5.331434   4.011750   5.104489   3.734556
    25  H    5.385911   5.204129   2.587996   3.646837   2.370181
    26  C    3.158095   2.874382   4.082714   4.971215   4.255195
    27  H    4.014950   3.890041   4.930705   5.895049   4.980831
    28  H    3.590142   2.713770   4.063315   4.863442   4.066035
    29  H    2.291590   2.378909   4.554268   5.321076   4.933839
                   21         22         23         24         25
    21  H    0.000000
    22  C    2.937664   0.000000
    23  H    3.290114   1.091350   0.000000
    24  H    3.904177   1.098954   1.777891   0.000000
    25  H    2.279468   1.089430   1.792915   1.762298   0.000000
    26  C    4.394162   2.557692   2.777851   2.827442   3.500277
    27  H    5.126977   2.791256   3.086706   2.615798   3.795900
    28  H    4.615409   2.819725   2.598432   3.216485   3.804785
    29  H    4.844605   3.496088   3.793190   3.792495   4.321761
                   26         27         28         29
    26  C    0.000000
    27  H    1.098140   0.000000
    28  H    1.091598   1.772139   0.000000
    29  H    1.088852   1.762900   1.793756   0.000000
 Framework group  C1[X(C8H16Cl3FeO)]
 Deg. of freedom    81
                         Standard orientation:                         
 ---------------------------------------------------------------------
 Center     Atomic      Atomic             Coordinates (Angstroms)
 Number     Number       Type             X           Y           Z
 ---------------------------------------------------------------------
      1          8           0       -0.264505   -0.256224   -0.744263
      2          6           0       -1.140318   -1.175020   -0.573338
      3          6           0       -2.781818   -0.321543    0.617064
      4          6           0       -2.731435    0.872011   -0.050507
      5          6           0       -3.505646    1.107584   -1.310842
      6         26           0        1.473622    0.158919   -0.034282
      7         17           0        1.974031    2.063008   -0.986095
      8          6           0       -1.836846    1.987910    0.368375
      9         17           0        2.690597   -1.564559   -0.626210
     10         17           0        1.271751    0.335070    2.154251
     11          1           0       -3.517275   -1.041539    0.261042
     12          1           0       -2.332697    2.956966    0.244849
     13          1           0       -1.465415    1.897224    1.388875
     14          1           0       -0.964763    1.995801   -0.304114
     15          1           0       -4.193709    1.948903   -1.154663
     16          1           0       -2.838876    1.405117   -2.131071
     17          1           0       -4.094652    0.240450   -1.616731
     18          6           0       -2.388329   -0.468007    2.072366
     19          1           0       -3.083814    0.107507    2.695662
     20          1           0       -2.453907   -1.508769    2.395623
     21          1           0       -1.379100   -0.110375    2.284882
     22          6           0       -0.820976   -2.289656    0.395675
     23          1           0       -1.683381   -2.924158    0.607119
     24          1           0       -0.056212   -2.896613   -0.108744
     25          1           0       -0.381516   -1.919257    1.321168
     26          6           0       -1.888333   -1.590531   -1.821026
     27          1           0       -1.207353   -2.255700   -2.368501
     28          1           0       -2.802809   -2.146085   -1.604969
     29          1           0       -2.098900   -0.737902   -2.464675
 ---------------------------------------------------------------------
 Rotational constants (GHZ):           0.5802893           0.3253572           0.3067788
   427 basis functions,  1056 primitive gaussians,   461 cartesian basis functions
    77 alpha electrons       72 beta electrons
       nuclear repulsion energy      1633.1436790416 Hartrees.
 NAtoms=   29 NActive=   29 NUniq=   29 SFac= 1.00D+00 NAtFMM=   60 NAOKFM=F Big=F
 Nuclear repulsion after empirical dispersion term =     1633.0745699112 Hartrees.
 Initial guess from the checkpoint file:  "checkpoint.chk"
 B after Tr=     0.000000    0.000000    0.000000
         Rot=    1.000000    0.000000    0.000000    0.000000 Ang=   0.00 deg.
 Initial guess <Sx>= 0.0000 <Sy>= 0.0000 <Sz>= 2.5000 <S**2>= 8.7618 S= 2.5020
 SCF Done:  E(UB3LYP) =  -3034.40564405     A.U. after    1 cycles
            NFock=  1  Conv=0.37D-08     -V/T= 2.0024
 <Sx>= 0.0000 <Sy>= 0.0000 <Sz>= 2.5000 <S**2>= 8.7618 S= 2.5020
 <L.S>= 0.000000000000E+00
 Annihilation of the first spin contaminant:
 S**2 before annihilation     8.7618,   after     8.7500
 1\1\GINC-HOLY7C04203\SP\UB3LYP\Jul-CC-pVDZ\C8H16Cl3Fe1O1(6)\EKWAN\11-F
 eb-2020\0\\#t pop=none jul-cc-pvdz guess=read ub3lyp empiricaldispersi
 on=gd3bj\\theory_abbreviation b3lyp_d3bj\\0,6\O,0,-0.264505,-0.256224,
 -0.744263\C,0,-1.140318,-1.17502,-0.573338\C,0,-2.781818,-0.321543,0.6
 17064\C,0,-2.731435,0.872011,-0.050507\C,0,-3.505646,1.107584,-1.31084
 2\Fe,0,1.473622,0.158919,-0.034282\Cl,0,1.974031,2.063008,-0.986095\C,
 0,-1.836846,1.98791,0.368375\Cl,0,2.690597,-1.564559,-0.62621\Cl,0,1.2
 71751,0.33507,2.154251\H,0,-3.517275,-1.041539,0.261042\H,0,-2.332697,
 2.956966,0.244849\H,0,-1.465415,1.897224,1.388875\H,0,-0.964763,1.9958
 01,-0.304114\H,0,-4.193709,1.948903,-1.154663\H,0,-2.838876,1.405117,-
 2.131071\H,0,-4.094652,0.24045,-1.616731\C,0,-2.388329,-0.468007,2.072
 366\H,0,-3.083814,0.107507,2.695662\H,0,-2.453907,-1.508769,2.395623\H
 ,0,-1.3791,-0.110375,2.284882\C,0,-0.820976,-2.289656,0.395675\H,0,-1.
 683381,-2.924158,0.607119\H,0,-0.056212,-2.896613,-0.108744\H,0,-0.381
 516,-1.919257,1.321168\C,0,-1.888333,-1.590531,-1.821026\H,0,-1.207353
 ,-2.2557,-2.368501\H,0,-2.802809,-2.146085,-1.604969\H,0,-2.0989,-0.73
 7902,-2.464675\\Version=ES64L-G16RevA.03\HF=-3034.4056441\S2=8.761837\
 S2-1=0.\S2A=8.750043\RMSD=3.738e-09\PG=C01 [X(C8H16Cl3Fe1O1)]\\@


 ERROR IS A HARDY PLANT... IT FLOURISHETH IN EVERY SOIL.
            MARTIN FARQUHAR TUPPER
 Job cpu time:       0 days  0 hours  4 minutes 27.9 seconds.
 Elapsed time:       0 days  0 hours  1 minutes  7.3 seconds.
 File lengths (MBytes):  RWF=    170 Int=      0 D2E=      0 Chk=     13 Scr=      1
 Normal termination of Gaussian 16 at Tue Feb 11 14:14:05 2020.
 Initial command:
 /n/sw/g16_nehalem/g16/l1.exe "/scratch/Gau-1763.inp" -scrdir="/scratch/"
 Entering Link 1 = /n/sw/g16_nehalem/g16/l1.exe PID=      5537.
  
 Copyright (c) 1988,1990,1992,1993,1995,1998,2003,2009,2016,
            Gaussian, Inc.  All Rights Reserved.
  
 This is part of the Gaussian(R) 16 program.  It is based on
 the Gaussian(R) 09 system (copyright 2009, Gaussian, Inc.),
 the Gaussian(R) 03 system (copyright 2003, Gaussian, Inc.),
 the Gaussian(R) 98 system (copyright 1998, Gaussian, Inc.),
 the Gaussian(R) 94 system (copyright 1995, Gaussian, Inc.),
 the Gaussian 92(TM) system (copyright 1992, Gaussian, Inc.),
 the Gaussian 90(TM) system (copyright 1990, Gaussian, Inc.),
 the Gaussian 88(TM) system (copyright 1988, Gaussian, Inc.),
 the Gaussian 86(TM) system (copyright 1986, Carnegie Mellon
 University), and the Gaussian 82(TM) system (copyright 1983,
 Carnegie Mellon University). Gaussian is a federally registered
 trademark of Gaussian, Inc.
  
 This software contains proprietary and confidential information,
 including trade secrets, belonging to Gaussian, Inc.
  
 This software is provided under written license and may be
 used, copied, transmitted, or stored only in accord with that
 written license.
  
 The following legend is applicable only to US Government
 contracts under FAR:
  
                    RESTRICTED RIGHTS LEGEND
  
 Use, reproduction and disclosure by the US Government is
 subject to restrictions as set forth in subparagraphs (a)
 and (c) of the Commercial Computer Software - Restricted
 Rights clause in FAR 52.227-19.
  
 Gaussian, Inc.
 340 Quinnipiac St., Bldg. 40, Wallingford CT 06492
  
  
 ---------------------------------------------------------------
 Warning -- This program may not be used in any manner that
 competes with the business of Gaussian, Inc. or will provide
 assistance to any competitor of Gaussian, Inc.  The licensee
 of this program is prohibited from giving any competitor of
 Gaussian, Inc. access to this program.  By using this program,
 the user acknowledges that Gaussian, Inc. is engaged in the
 business of creating and licensing software in the field of
 computational chemistry and represents and warrants to the
 licensee that it is not a competitor of Gaussian, Inc. and that
 it will not use this program in any manner prohibited above.
 ---------------------------------------------------------------
  

 Cite this work as:
 Gaussian 16, Revision A.03,
 M. J. Frisch, G. W. Trucks, H. B. Schlegel, G. E. Scuseria, 
 M. A. Robb, J. R. Cheeseman, G. Scalmani, V. Barone, 
 G. A. Petersson, H. Nakatsuji, X. Li, M. Caricato, A. V. Marenich, 
 J. Bloino, B. G. Janesko, R. Gomperts, B. Mennucci, H. P. Hratchian, 
 J. V. Ortiz, A. F. Izmaylov, J. L. Sonnenberg, D. Williams-Young, 
 F. Ding, F. Lipparini, F. Egidi, J. Goings, B. Peng, A. Petrone, 
 T. Henderson, D. Ranasinghe, V. G. Zakrzewski, J. Gao, N. Rega, 
 G. Zheng, W. Liang, M. Hada, M. Ehara, K. Toyota, R. Fukuda, 
 J. Hasegawa, M. Ishida, T. Nakajima, Y. Honda, O. Kitao, H. Nakai, 
 T. Vreven, K. Throssell, J. A. Montgomery, Jr., J. E. Peralta, 
 F. Ogliaro, M. J. Bearpark, J. J. Heyd, E. N. Brothers, K. N. Kudin, 
 V. N. Staroverov, T. A. Keith, R. Kobayashi, J. Normand, 
 K. Raghavachari, A. P. Rendell, J. C. Burant, S. S. Iyengar, 
 J. Tomasi, M. Cossi, J. M. Millam, M. Klene, C. Adamo, R. Cammi, 
 J. W. Ochterski, R. L. Martin, K. Morokuma, O. Farkas, 
 J. B. Foresman, and D. J. Fox, Gaussian, Inc., Wallingford CT, 2016.
 
 ******************************************
 Gaussian 16:  ES64L-G16RevA.03 25-Dec-2016
                11-Feb-2020 
 ******************************************
 %chk=checkpoint.chk
 %mem=3GB
 %nprocshared=4
 Will use up to    4 processors via shared memory.
 ----------------------------------------
 #t pop=none jul-cc-pvdz guess=read ub97d
 ----------------------------------------
 ------------------------
 theory_abbreviation b97d
 ------------------------
 Symbolic Z-matrix:
 Charge =  0 Multiplicity = 6
 O                    -0.26451  -0.25622  -0.74426 
 C                    -1.14032  -1.17502  -0.57334 
 C                    -2.78182  -0.32154   0.61706 
 C                    -2.73144   0.87201  -0.05051 
 C                    -3.50565   1.10758  -1.31084 
 Fe                    1.47362   0.15892  -0.03428 
 Cl                    1.97403   2.06301  -0.9861 
 C                    -1.83685   1.98791   0.36838 
 Cl                    2.6906   -1.56456  -0.62621 
 Cl                    1.27175   0.33507   2.15425 
 H                    -3.51728  -1.04154   0.26104 
 H                    -2.3327    2.95697   0.24485 
 H                    -1.46542   1.89722   1.38888 
 H                    -0.96476   1.9958   -0.30411 
 H                    -4.19371   1.9489   -1.15466 
 H                    -2.83888   1.40512  -2.13107 
 H                    -4.09465   0.24045  -1.61673 
 C                    -2.38833  -0.46801   2.07237 
 H                    -3.08381   0.10751   2.69566 
 H                    -2.45391  -1.50877   2.39562 
 H                    -1.3791   -0.11038   2.28488 
 C                    -0.82098  -2.28966   0.39568 
 H                    -1.68338  -2.92416   0.60712 
 H                    -0.05621  -2.89661  -0.10874 
 H                    -0.38152  -1.91926   1.32117 
 C                    -1.88833  -1.59053  -1.82103 
 H                    -1.20735  -2.2557   -2.3685 
 H                    -2.80281  -2.14609  -1.60497 
 H                    -2.0989   -0.7379   -2.46468 
 
                    Distance matrix (angstroms):
                    1          2          3          4          5
     1  O    0.000000
     2  C    1.280800   0.000000
     3  C    2.862576   2.200000   0.000000
     4  C    2.799992   2.644871   1.368488   0.000000
     5  C    3.561738   3.368823   2.506622   1.497779   0.000000
     6  Fe   1.922889   2.983732   4.331728   4.265122   5.227110
     7  Cl   3.232393   4.511581   5.556465   4.943198   5.571818
     8  C    2.957424   3.372848   2.507667   1.490296   2.525794
     9  Cl   3.233930   3.851032   5.747882   5.972164   6.782514
    10  Cl   3.333331   3.941851   4.384690   4.601604   5.952073
    11  H    3.493976   2.522683   1.089056   2.091956   2.662646
    12  H    3.947195   4.377728   3.329996   2.143190   2.686298
    13  H    3.260338   3.659870   2.692868   2.173865   3.474845
    14  H    2.399106   3.187069   3.085505   2.109111   2.873764
    15  H    4.524341   4.406816   3.207394   2.125348   1.098016
    16  H    3.363135   3.459586   3.246052   2.150463   1.098127
    17  H    3.959534   3.438068   2.651266   2.170320   1.091979
    18  C    3.533961   3.009510   1.514658   2.533764   3.895764
    19  H    4.462498   4.013529   2.143795   2.872296   4.150924
    20  H    4.027559   3.263684   2.163401   3.424717   4.657182
    21  H    3.230993   3.059397   2.189481   2.871922   4.351420
    22  C    2.396657   1.511085   2.787003   3.720896   4.654126
    23  H    3.310183   2.178963   2.824937   3.992717   4.822258
    24  H    2.723770   2.086867   3.819255   4.621984   5.420076
    25  H    2.654313   2.172285   2.968148   3.898049   5.084234
    26  C    2.361485   1.512911   2.890143   3.147963   3.186819
    27  H    2.743176   2.096419   3.890180   4.180729   4.208619
    28  H    3.279539   2.184286   2.875209   3.395637   3.341684
    29  H    2.560632   2.164973   3.183842   2.969870   2.591541
                    6          7          8          9         10
     6  Fe   0.000000
     7  Cl   2.186758   0.000000
     8  C    3.803490   4.045122   0.000000
     9  Cl   2.191297   3.715135   5.840118   0.000000
    10  Cl   2.204871   3.652498   3.947735   3.654132   0.000000
    11  H    5.141728   6.430241   3.465966   6.292729   5.330484
    12  H    4.732340   4.567526   1.095535   6.814427   4.848938
    13  H    3.699327   4.183032   1.089773   5.772083   3.243178
    14  H    3.064746   3.017636   1.101287   5.112882   3.715317
    15  H    6.047970   6.171098   2.806416   7.747086   6.589736
    16  H    4.954510   4.990778   2.755166   6.454352   6.033758
    17  H    5.789341   6.367757   3.477348   7.090754   6.559538
    18  C    4.443610   5.898339   3.039613   5.854932   3.748043
    19  H    5.312764   6.554473   3.241467   6.868367   4.394981
    20  H    4.910306   6.618175   4.088675   5.966616   4.163956
    21  H    3.686335   5.163949   2.878425   5.210714   2.691189
    22  C    3.383129   5.354161   4.396625   3.728426   3.789628
    23  H    4.459084   6.386456   4.920260   4.743553   4.663581
    24  H    3.417925   5.430421   5.220811   3.096304   4.162740
    25  H    3.097999   5.170155   4.276886   3.654582   2.917072
    26  C    4.189961   5.381757   4.195398   4.732321   5.431105
    27  H    4.297277   5.539268   5.088711   4.325190   5.771770
    28  H    5.105680   6.396692   4.681569   5.610138   6.073706
    29  H    4.412937   5.159463   3.940164   5.196402   5.817820
                   11         12         13         14         15
    11  H    0.000000
    12  H    4.170315   0.000000
    13  H    3.757455   1.784384   0.000000
    14  H    4.007512   1.759671   1.768214   0.000000
    15  H    3.377059   2.537359   3.730395   3.339420   0.000000
    16  H    3.488346   2.882611   3.810326   2.683091   1.756317
    17  H    2.345824   3.734893   4.323362   3.821050   1.772606
    18  C    2.210057   3.882442   2.629306   3.707364   4.417530
    19  H    2.726824   3.832764   2.744084   4.129732   4.409944
    20  H    2.430122   4.958156   3.686658   4.667777   5.252327
    21  H    3.087845   3.805215   2.200166   3.363117   4.898277
    22  C    2.974214   5.462151   4.351059   4.344597   5.634204
    23  H    2.650885   5.927940   4.889210   5.054973   5.757807
    24  H    3.944236   6.290612   5.216281   4.979894   6.456923
    25  H    3.424506   5.361261   3.967990   4.278948   5.968686
    26  C    2.699972   5.014482   4.758861   4.001972   4.276259
    27  H    3.704649   5.938677   5.606358   4.732421   5.298152
    28  H    2.283086   5.448299   5.205773   4.714431   4.348138
    29  H    3.087639   4.587835   4.711161   3.664345   3.650106
                   16         17         18         19         20
    16  H    0.000000
    17  H    1.788286   0.000000
    18  C    4.623902   4.125880   0.000000
    19  H    5.004112   4.431275   1.097002   0.000000
    20  H    5.397211   4.674483   1.091779   1.760442   0.000000
    21  H    4.891656   4.766538   1.091607   1.766993   1.767195
    22  C    4.909961   4.600888   2.930238   4.019548   2.697414
    23  H    5.251236   4.557903   2.945603   3.938809   2.407443
    24  H    5.507986   5.331434   4.011750   5.104489   3.734556
    25  H    5.385911   5.204129   2.587996   3.646837   2.370181
    26  C    3.158095   2.874382   4.082714   4.971215   4.255195
    27  H    4.014950   3.890041   4.930705   5.895049   4.980831
    28  H    3.590142   2.713770   4.063315   4.863442   4.066035
[...]
     29          1           0       -2.098900   -0.737902   -2.464675
 ---------------------------------------------------------------------
 Rotational constants (GHZ):           0.5802893           0.3253572           0.3067788
   427 basis functions,  1056 primitive gaussians,   461 cartesian basis functions
    77 alpha electrons       72 beta electrons
       nuclear repulsion energy      1633.1436790416 Hartrees.
 NAtoms=   29 NActive=   29 NUniq=   29 SFac= 1.00D+00 NAtFMM=   60 NAOKFM=F Big=F
 Nuclear repulsion after empirical dispersion term =     1633.1412280218 Hartrees.
 Initial guess from the checkpoint file:  "checkpoint.chk"
 B after Tr=     0.000000    0.000000    0.000000
         Rot=    1.000000    0.000000    0.000000    0.000000 Ang=   0.00 deg.
 Initial guess <Sx>= 0.0000 <Sy>= 0.0000 <Sz>= 2.5000 <S**2>= 8.7615 S= 2.5019
 SCF Done:  E(UM06L) =  -3034.20317868     A.U. after   18 cycles
            NFock= 18  Conv=0.31D-08     -V/T= 2.0020
 <Sx>= 0.0000 <Sy>= 0.0000 <Sz>= 2.5000 <S**2>= 8.7617 S= 2.5019
 <L.S>= 0.000000000000E+00
 Annihilation of the first spin contaminant:
 S**2 before annihilation     8.7617,   after     8.7500
 1\1\GINC-HOLY7C04203\SP\UM06L\Jul-CC-pVDZ\C8H16Cl3Fe1O1(6)\EKWAN\11-Fe
 b-2020\0\\#t pop=none jul-cc-pvdz guess=read um06l empiricaldispersion
 =gd3\\theory_abbreviation m06l_d3\\0,6\O,0,-0.264505,-0.256224,-0.7442
 63\C,0,-1.140318,-1.17502,-0.573338\C,0,-2.781818,-0.321543,0.617064\C
 ,0,-2.731435,0.872011,-0.050507\C,0,-3.505646,1.107584,-1.310842\Fe,0,
 1.473622,0.158919,-0.034282\Cl,0,1.974031,2.063008,-0.986095\C,0,-1.83
 6846,1.98791,0.368375\Cl,0,2.690597,-1.564559,-0.62621\Cl,0,1.271751,0
 .33507,2.154251\H,0,-3.517275,-1.041539,0.261042\H,0,-2.332697,2.95696
 6,0.244849\H,0,-1.465415,1.897224,1.388875\H,0,-0.964763,1.995801,-0.3
 04114\H,0,-4.193709,1.948903,-1.154663\H,0,-2.838876,1.405117,-2.13107
 1\H,0,-4.094652,0.24045,-1.616731\C,0,-2.388329,-0.468007,2.072366\H,0
 ,-3.083814,0.107507,2.695662\H,0,-2.453907,-1.508769,2.395623\H,0,-1.3
 791,-0.110375,2.284882\C,0,-0.820976,-2.289656,0.395675\H,0,-1.683381,
 -2.924158,0.607119\H,0,-0.056212,-2.896613,-0.108744\H,0,-0.381516,-1.
 919257,1.321168\C,0,-1.888333,-1.590531,-1.821026\H,0,-1.207353,-2.255
 7,-2.368501\H,0,-2.802809,-2.146085,-1.604969\H,0,-2.0989,-0.737902,-2
 .464675\\Version=ES64L-G16RevA.03\HF=-3034.2031787\S2=8.761684\S2-1=0.
 \S2A=8.750044\RMSD=3.094e-09\PG=C01 [X(C8H16Cl3Fe1O1)]\\@


 FRICTION IS A DRAG,
 AND ENTROPY AIN'T WHAT IT USED TO BE.
 Job cpu time:       0 days  1 hours 17 minutes 58.1 seconds.
 Elapsed time:       0 days  0 hours 19 minutes 32.6 seconds.
 File lengths (MBytes):  RWF=    174 Int=      0 D2E=      0 Chk=     13 Scr=      1
 Normal termination of Gaussian 16 at Tue Feb 11 23:24:52 2020.
 Initial command:
 /n/sw/g16_nehalem/g16/l1.exe "/scratch/Gau-1763.inp" -scrdir="/scratch/"
 Entering Link 1 = /n/sw/g16_nehalem/g16/l1.exe PID=     62162.
  
 Copyright (c) 1988,1990,1992,1993,1995,1998,2003,2009,2016,
            Gaussian, Inc.  All Rights Reserved.
  
 This is part of the Gaussian(R) 16 program.  It is based on
 the Gaussian(R) 09 system (copyright 2009, Gaussian, Inc.),
 the Gaussian(R) 03 system (copyright 2003, Gaussian, Inc.),
 the Gaussian(R) 98 system (copyright 1998, Gaussian, Inc.),
 the Gaussian(R) 94 system (copyright 1995, Gaussian, Inc.),
 the Gaussian 92(TM) system (copyright 1992, Gaussian, Inc.),
 the Gaussian 90(TM) system (copyright 1990, Gaussian, Inc.),
 the Gaussian 88(TM) system (copyright 1988, Gaussian, Inc.),
 the Gaussian 86(TM) system (copyright 1986, Carnegie Mellon
 University), and the Gaussian 82(TM) system (copyright 1983,
 Carnegie Mellon University). Gaussian is a federally registered
 trademark of Gaussian, Inc.
  
 This software contains proprietary and confidential information,
 including trade secrets, belonging to Gaussian, Inc.
  
 This software is provided under written license and may be
 used, copied, transmitted, or stored only in accord with that
 written license.
  
 The following legend is applicable only to US Government
 contracts under FAR:
  
                    RESTRICTED RIGHTS LEGEND
  
 Use, reproduction and disclosure by the US Government is
 subject to restrictions as set forth in subparagraphs (a)
 and (c) of the Commercial Computer Software - Restricted
 Rights clause in FAR 52.227-19.
  
 Gaussian, Inc.
 340 Quinnipiac St., Bldg. 40, Wallingford CT 06492
  
  
 ---------------------------------------------------------------
 Warning -- This program may not be used in any manner that
 competes with the business of Gaussian, Inc. or will provide
 assistance to any competitor of Gaussian, Inc.  The licensee
 of this program is prohibited from giving any competitor of
 Gaussian, Inc. access to this program.  By using this program,
 the user acknowledges that Gaussian, Inc. is engaged in the
 business of creating and licensing software in the field of
 computational chemistry and represents and warrants to the
 licensee that it is not a competitor of Gaussian, Inc. and that
 it will not use this program in any manner prohibited above.
 ---------------------------------------------------------------
  

 Cite this work as:
 Gaussian 16, Revision A.03,
 M. J. Frisch, G. W. Trucks, H. B. Schlegel, G. E. Scuseria, 
 M. A. Robb, J. R. Cheeseman, G. Scalmani, V. Barone, 
 G. A. Petersson, H. Nakatsuji, X. Li, M. Caricato, A. V. Marenich, 
 J. Bloino, B. G. Janesko, R. Gomperts, B. Mennucci, H. P. Hratchian, 
 J. V. Ortiz, A. F. Izmaylov, J. L. Sonnenberg, D. Williams-Young, 
 F. Ding, F. Lipparini, F. Egidi, J. Goings, B. Peng, A. Petrone, 
 T. Henderson, D. Ranasinghe, V. G. Zakrzewski, J. Gao, N. Rega, 
 G. Zheng, W. Liang, M. Hada, M. Ehara, K. Toyota, R. Fukuda, 
 J. Hasegawa, M. Ishida, T. Nakajima, Y. Honda, O. Kitao, H. Nakai, 
 T. Vreven, K. Throssell, J. A. Montgomery, Jr., J. E. Peralta, 
 F. Ogliaro, M. J. Bearpark, J. J. Heyd, E. N. Brothers, K. N. Kudin, 
 V. N. Staroverov, T. A. Keith, R. Kobayashi, J. Normand, 
 K. Raghavachari, A. P. Rendell, J. C. Burant, S. S. Iyengar, 
 J. Tomasi, M. Cossi, J. M. Millam, M. Klene, C. Adamo, R. Cammi, 
 J. W. Ochterski, R. L. Martin, K. Morokuma, O. Farkas, 
 J. B. Foresman, and D. J. Fox, Gaussian, Inc., Wallingford CT, 2016.
 
 ******************************************
 Gaussian 16:  ES64L-G16RevA.03 25-Dec-2016
                11-Feb-2020 
 ******************************************
 %chk=checkpoint.chk
 %mem=3GB
 %nprocshared=4
 Will use up to    4 processors via shared memory.
 -------------------------------------------------------------------
 #t pop=none jul-cc-pvdz guess=read ub97d3 empiricaldispersion=gd3bj
 -------------------------------------------------------------------
 ------------------------------
 theory_abbreviation b97d3_d3bj
 ------------------------------
 Symbolic Z-matrix:
 Charge =  0 Multiplicity = 6
 O                    -0.26451  -0.25622  -0.74426 
 C                    -1.14032  -1.17502  -0.57334 
 C                    -2.78182  -0.32154   0.61706 
 C                    -2.73144   0.87201  -0.05051 
 C                    -3.50565   1.10758  -1.31084 
 Fe                    1.47362   0.15892  -0.03428 
 Cl                    1.97403   2.06301  -0.9861 
 C                    -1.83685   1.98791   0.36838 
 Cl                    2.6906   -1.56456  -0.62621 
 Cl                    1.27175   0.33507   2.15425 
 H                    -3.51728  -1.04154   0.26104 
 H                    -2.3327    2.95697   0.24485 
 H                    -1.46542   1.89722   1.38888 
 H                    -0.96476   1.9958   -0.30411 
 H                    -4.19371   1.9489   -1.15466 
 H                    -2.83888   1.40512  -2.13107 
 H                    -4.09465   0.24045  -1.61673 
 C                    -2.38833  -0.46801   2.07237 
 H                    -3.08381   0.10751   2.69566 
 H                    -2.45391  -1.50877   2.39562 
 H                    -1.3791   -0.11038   2.28488 
 C                    -0.82098  -2.28966   0.39568 
 H                    -1.68338  -2.92416   0.60712 
 H                    -0.05621  -2.89661  -0.10874 
 H                    -0.38152  -1.91926   1.32117 
 C                    -1.88833  -1.59053  -1.82103 
 H                    -1.20735  -2.2557   -2.3685 
 H                    -2.80281  -2.14609  -1.60497 
 H                    -2.0989   -0.7379   -2.46468 
 
                    Distance matrix (angstroms):
                    1          2          3          4          5
     1  O    0.000000
     2  C    1.280800   0.000000
     3  C    2.862576   2.200000   0.000000
     4  C    2.799992   2.644871   1.368488   0.000000
     5  C    3.561738   3.368823   2.506622   1.497779   0.000000
     6  Fe   1.922889   2.983732   4.331728   4.265122   5.227110
     7  Cl   3.232393   4.511581   5.556465   4.943198   5.571818
     8  C    2.957424   3.372848   2.507667   1.490296   2.525794
     9  Cl   3.233930   3.851032   5.747882   5.972164   6.782514
    10  Cl   3.333331   3.941851   4.384690   4.601604   5.952073
    11  H    3.493976   2.522683   1.089056   2.091956   2.662646
    12  H    3.947195   4.377728   3.329996   2.143190   2.686298
    13  H    3.260338   3.659870   2.692868   2.173865   3.474845
    14  H    2.399106   3.187069   3.085505   2.109111   2.873764
    15  H    4.524341   4.406816   3.207394   2.125348   1.098016
    16  H    3.363135   3.459586   3.246052   2.150463   1.098127
    17  H    3.959534   3.438068   2.651266   2.170320   1.091979
    18  C    3.533961   3.009510   1.514658   2.533764   3.895764
    19  H    4.462498   4.013529   2.143795   2.872296   4.150924
    20  H    4.027559   3.263684   2.163401   3.424717   4.657182
    21  H    3.230993   3.059397   2.189481   2.871922   4.351420
    22  C    2.396657   1.511085   2.787003   3.720896   4.654126
    23  H    3.310183   2.178963   2.824937   3.992717   4.822258
    24  H    2.723770   2.086867   3.819255   4.621984   5.420076
    25  H    2.654313   2.172285   2.968148   3.898049   5.084234
    26  C    2.361485   1.512911   2.890143   3.147963   3.186819
    27  H    2.743176   2.096419   3.890180   4.180729   4.208619
    28  H    3.279539   2.184286   2.875209   3.395637   3.341684
    29  H    2.560632   2.164973   3.183842   2.969870   2.591541
                    6          7          8          9         10
     6  Fe   0.000000
     7  Cl   2.186758   0.000000
     8  C    3.803490   4.045122   0.000000
     9  Cl   2.191297   3.715135   5.840118   0.000000
    10  Cl   2.204871   3.652498   3.947735   3.654132   0.000000
    11  H    5.141728   6.430241   3.465966   6.292729   5.330484
    12  H    4.732340   4.567526   1.095535   6.814427   4.848938
    13  H    3.699327   4.183032   1.089773   5.772083   3.243178
    14  H    3.064746   3.017636   1.101287   5.112882   3.715317
    15  H    6.047970   6.171098   2.806416   7.747086   6.589736
    16  H    4.954510   4.990778   2.755166   6.454352   6.033758
    17  H    5.789341   6.367757   3.477348   7.090754   6.559538
    18  C    4.443610   5.898339   3.039613   5.854932   3.748043
    19  H    5.312764   6.554473   3.241467   6.868367   4.394981
    20  H    4.910306   6.618175   4.088675   5.966616   4.163956
    21  H    3.686335   5.163949   2.878425   5.210714   2.691189
    22  C    3.383129   5.354161   4.396625   3.728426   3.789628
    23  H    4.459084   6.386456   4.920260   4.743553   4.663581
    24  H    3.417925   5.430421   5.220811   3.096304   4.162740
    25  H    3.097999   5.170155   4.276886   3.654582   2.917072
    26  C    4.189961   5.381757   4.195398   4.732321   5.431105
    27  H    4.297277   5.539268   5.088711   4.325190   5.771770
    28  H    5.105680   6.396692   4.681569   5.610138   6.073706
    29  H    4.412937   5.159463   3.940164   5.196402   5.817820
                   11         12         13         14         15
    11  H    0.000000
    12  H    4.170315   0.000000
    13  H    3.757455   1.784384   0.000000
    14  H    4.007512   1.759671   1.768214   0.000000
    15  H    3.377059   2.537359   3.730395   3.339420   0.000000
    16  H    3.488346   2.882611   3.810326   2.683091   1.756317
    17  H    2.345824   3.734893   4.323362   3.821050   1.772606
    18  C    2.210057   3.882442   2.629306   3.707364   4.417530
    19  H    2.726824   3.832764   2.744084   4.129732   4.409944
    20  H    2.430122   4.958156   3.686658   4.667777   5.252327
    21  H    3.087845   3.805215   2.200166   3.363117   4.898277
    22  C    2.974214   5.462151   4.351059   4.344597   5.634204
    23  H    2.650885   5.927940   4.889210   5.054973   5.757807
    24  H    3.944236   6.290612   5.216281   4.979894   6.456923
    25  H    3.424506   5.361261   3.967990   4.278948   5.968686
    26  C    2.699972   5.014482   4.758861   4.001972   4.276259
    27  H    3.704649   5.938677   5.606358   4.732421   5.298152
    28  H    2.283086   5.448299   5.205773   4.714431   4.348138
    29  H    3.087639   4.587835   4.711161   3.664345   3.650106
                   16         17         18         19         20
    16  H    0.000000
    17  H    1.788286   0.000000
    18  C    4.623902   4.125880   0.000000
    19  H    5.004112   4.431275   1.097002   0.000000
    20  H    5.397211   4.674483   1.091779   1.760442   0.000000
    21  H    4.891656   4.766538   1.091607   1.766993   1.767195
    22  C    4.909961   4.600888   2.930238   4.019548   2.697414
    23  H    5.251236   4.557903   2.945603   3.938809   2.407443
    24  H    5.507986   5.331434   4.011750   5.104489   3.734556
    25  H    5.385911   5.204129   2.587996   3.646837   2.370181
    26  C    3.158095   2.874382   4.082714   4.971215   4.255195
    27  H    4.014950   3.890041   4.930705   5.895049   4.980831
    28  H    3.590142   2.713770   4.063315   4.863442   4.066035
    29  H    2.291590   2.378909   4.554268   5.321076   4.933839
                   21         22         23         24         25
    21  H    0.000000
    22  C    2.937664   0.000000
    23  H    3.290114   1.091350   0.000000
    24  H    3.904177   1.098954   1.777891   0.000000
    25  H    2.279468   1.089430   1.792915   1.762298   0.000000
    26  C    4.394162   2.557692   2.777851   2.827442   3.500277
    27  H    5.126977   2.791256   3.086706   2.615798   3.795900
    28  H    4.615409   2.819725   2.598432   3.216485   3.804785
    29  H    4.844605   3.496088   3.793190   3.792495   4.321761
                   26         27         28         29
    26  C    0.000000
    27  H    1.098140   0.000000
    28  H    1.091598   1.772139   0.000000
    29  H    1.088852   1.762900   1.793756   0.000000
 Framework group  C1[X(C8H16Cl3FeO)]
 Deg. of freedom    81
                         Standard orientation:                         
 ---------------------------------------------------------------------
 Center     Atomic      Atomic             Coordinates (Angstroms)
 Number     Number       Type             X           Y           Z
 ---------------------------------------------------------------------
      1          8           0       -0.264505   -0.256224   -0.744263
      2          6           0       -1.140318   -1.175020   -0.573338
      3          6           0       -2.781818   -0.321543    0.617064
      4          6           0       -2.731435    0.872011   -0.050507
      5          6           0       -3.505646    1.107584   -1.310842
      6         26           0        1.473622    0.158919   -0.034282
      7         17           0        1.974031    2.063008   -0.986095
      8          6           0       -1.836846    1.987910    0.368375
      9         17           0        2.690597   -1.564559   -0.626210
     10         17           0        1.271751    0.335070    2.154251
     11          1           0       -3.517275   -1.041539    0.261042
     12          1           0       -2.332697    2.956966    0.244849
     13          1           0       -1.465415    1.897224    1.388875
     14          1           0       -0.964763    1.995801   -0.304114
     15          1           0       -4.193709    1.948903   -1.154663
     16          1           0       -2.838876    1.405117   -2.131071
     17          1           0       -4.094652    0.240450   -1.616731
     18          6           0       -2.388329   -0.468007    2.072366
     19          1           0       -3.083814    0.107507    2.695662
     20          1           0       -2.453907   -1.508769    2.395623
     21          1           0       -1.379100   -0.110375    2.284882
     22          6           0       -0.820976   -2.289656    0.395675
     23          1           0       -1.683381   -2.924158    0.607119
     24          1           0       -0.056212   -2.896613   -0.108744
     25          1           0       -0.381516   -1.919257    1.321168
     26          6           0       -1.888333   -1.590531   -1.821026
     27          1           0       -1.207353   -2.255700   -2.368501
     28          1           0       -2.802809   -2.146085   -1.604969
     29          1           0       -2.098900   -0.737902   -2.464675
 ---------------------------------------------------------------------
 Rotational constants (GHZ):           0.5802893           0.3253572           0.3067788
   427 basis functions,  1056 primitive gaussians,   461 cartesian basis functions
    77 alpha electrons       72 beta electrons
       nuclear repulsion energy      1633.1436790416 Hartrees.
 NAtoms=   29 NActive=   29 NUniq=   29 SFac= 1.00D+00 NAtFMM=   60 NAOKFM=F Big=F
 Nuclear repulsion after empirical dispersion term =     1633.0419012696 Hartrees.
 Initial guess from the checkpoint file:  "checkpoint.chk"
 B after Tr=     0.000000    0.000000    0.000000
         Rot=    1.000000    0.000000    0.000000    0.000000 Ang=   0.00 deg.
 Initial guess <Sx>= 0.0000 <Sy>= 0.0000 <Sz>= 2.5000 <S**2>= 8.7617 S= 2.5019
 EnCoef did     2 forward-backward iterations
 SCF Done:  E(UB97D3) =  -3034.62638407     A.U. after   15 cycles
            NFock= 15  Conv=0.61D-08     -V/T= 2.0019
 <Sx>= 0.0000 <Sy>= 0.0000 <Sz>= 2.5000 <S**2>= 8.7597 S= 2.5016
 <L.S>= 0.000000000000E+00
 Annihilation of the first spin contaminant:
 S**2 before annihilation     8.7597,   after     8.7500
 1\1\GINC-HOLY7C04203\SP\UB97D3\Jul-CC-pVDZ\C8H16Cl3Fe1O1(6)\EKWAN\11-F
 eb-2020\0\\#t pop=none jul-cc-pvdz guess=read ub97d3 empiricaldispersi
 on=gd3bj\\theory_abbreviation b97d3_d3bj\\0,6\O,0,-0.264505,-0.256224,
 -0.744263\C,0,-1.140318,-1.17502,-0.573338\C,0,-2.781818,-0.321543,0.6
 17064\C,0,-2.731435,0.872011,-0.050507\C,0,-3.505646,1.107584,-1.31084
 2\Fe,0,1.473622,0.158919,-0.034282\Cl,0,1.974031,2.063008,-0.986095\C,
 0,-1.836846,1.98791,0.368375\Cl,0,2.690597,-1.564559,-0.62621\Cl,0,1.2
 71751,0.33507,2.154251\H,0,-3.517275,-1.041539,0.261042\H,0,-2.332697,
 2.956966,0.244849\H,0,-1.465415,1.897224,1.388875\H,0,-0.964763,1.9958
 01,-0.304114\H,0,-4.193709,1.948903,-1.154663\H,0,-2.838876,1.405117,-
 2.131071\H,0,-4.094652,0.24045,-1.616731\C,0,-2.388329,-0.468007,2.072
 366\H,0,-3.083814,0.107507,2.695662\H,0,-2.453907,-1.508769,2.395623\H
 ,0,-1.3791,-0.110375,2.284882\C,0,-0.820976,-2.289656,0.395675\H,0,-1.
 683381,-2.924158,0.607119\H,0,-0.056212,-2.896613,-0.108744\H,0,-0.381
 516,-1.919257,1.321168\C,0,-1.888333,-1.590531,-1.821026\H,0,-1.207353
 ,-2.2557,-2.368501\H,0,-2.802809,-2.146085,-1.604969\H,0,-2.0989,-0.73
 7902,-2.464675\\Version=ES64L-G16RevA.03\HF=-3034.6263841\S2=8.759664\
 S2-1=0.\S2A=8.75003\RMSD=6.060e-09\PG=C01 [X(C8H16Cl3Fe1O1)]\\@


 THE NUMBERS ARE MEANINGLESS, BUT THE TRENDS ARE IMPORTANT.
     -- LARRY BURGGRAF
 Job cpu time:       0 days  0 hours 47 minutes 10.4 seconds.
 Elapsed time:       0 days  0 hours 11 minutes 49.5 seconds.
 File lengths (MBytes):  RWF=    174 Int=      0 D2E=      0 Chk=     13 Scr=      1
 Normal termination of Gaussian 16 at Tue Feb 11 23:36:42 2020.
