 Entering Gaussian System, Link 0=g16
 Input=simple-grid-190-265-b3lyp_d3bj-631gd-gas-singlepoint-DFT-juldz2-gas.gjf
 Output=simple-grid-190-265-b3lyp_d3bj-631gd-gas-singlepoint-DFT-juldz2-gas.out
 Initial command:
 /n/sw/g16_nehalem/g16/l1.exe "/scratch/Gau-10636.inp" -scrdir="/scratch/"
 Entering Link 1 = /n/sw/g16_nehalem/g16/l1.exe PID=     10651.
  
 Copyright (c) 1988,1990,1992,1993,1995,1998,2003,2009,2016,
            Gaussian, Inc.  All Rights Reserved.
  
 This is part of the Gaussian(R) 16 program.  It is based on
 the Gaussian(R) 09 system (copyright 2009, Gaussian, Inc.),
 the Gaussian(R) 03 system (copyright 2003, Gaussian, Inc.),
 the Gaussian(R) 98 system (copyright 1998, Gaussian, Inc.),
 the Gaussian(R) 94 system (copyright 1995, Gaussian, Inc.),
 the Gaussian 92(TM) system (copyright 1992, Gaussian, Inc.),
 the Gaussian 90(TM) system (copyright 1990, Gaussian, Inc.),
 the Gaussian 88(TM) system (copyright 1988, Gaussian, Inc.),
 the Gaussian 86(TM) system (copyright 1986, Carnegie Mellon
 University), and the Gaussian 82(TM) system (copyright 1983,
 Carnegie Mellon University). Gaussian is a federally registered
 trademark of Gaussian, Inc.
  
 This software contains proprietary and confidential information,
 including trade secrets, belonging to Gaussian, Inc.
  
 This software is provided under written license and may be
 used, copied, transmitted, or stored only in accord with that
 written license.
  
 The following legend is applicable only to US Government
 contracts under FAR:
  
                    RESTRICTED RIGHTS LEGEND
  
 Use, reproduction and disclosure by the US Government is
 subject to restrictions as set forth in subparagraphs (a)
 and (c) of the Commercial Computer Software - Restricted
 Rights clause in FAR 52.227-19.
  
 Gaussian, Inc.
 340 Quinnipiac St., Bldg. 40, Wallingford CT 06492
  
  
 ---------------------------------------------------------------
 Warning -- This program may not be used in any manner that
 competes with the business of Gaussian, Inc. or will provide
 assistance to any competitor of Gaussian, Inc.  The licensee
 of this program is prohibited from giving any competitor of
 Gaussian, Inc. access to this program.  By using this program,
 the user acknowledges that Gaussian, Inc. is engaged in the
 business of creating and licensing software in the field of
 computational chemistry and represents and warrants to the
 licensee that it is not a competitor of Gaussian, Inc. and that
 it will not use this program in any manner prohibited above.
 ---------------------------------------------------------------
  

 Cite this work as:
 Gaussian 16, Revision A.03,
 M. J. Frisch, G. W. Trucks, H. B. Schlegel, G. E. Scuseria, 
 M. A. Robb, J. R. Cheeseman, G. Scalmani, V. Barone, 
 G. A. Petersson, H. Nakatsuji, X. Li, M. Caricato, A. V. Marenich, 
 J. Bloino, B. G. Janesko, R. Gomperts, B. Mennucci, H. P. Hratchian, 
 J. V. Ortiz, A. F. Izmaylov, J. L. Sonnenberg, D. Williams-Young, 
 F. Ding, F. Lipparini, F. Egidi, J. Goings, B. Peng, A. Petrone, 
 T. Henderson, D. Ranasinghe, V. G. Zakrzewski, J. Gao, N. Rega, 
 G. Zheng, W. Liang, M. Hada, M. Ehara, K. Toyota, R. Fukuda, 
 J. Hasegawa, M. Ishida, T. Nakajima, Y. Honda, O. Kitao, H. Nakai, 
 T. Vreven, K. Throssell, J. A. Montgomery, Jr., J. E. Peralta, 
 F. Ogliaro, M. J. Bearpark, J. J. Heyd, E. N. Brothers, K. N. Kudin, 
 V. N. Staroverov, T. A. Keith, R. Kobayashi, J. Normand, 
 K. Raghavachari, A. P. Rendell, J. C. Burant, S. S. Iyengar, 
 J. Tomasi, M. Cossi, J. M. Millam, M. Klene, C. Adamo, R. Cammi, 
 J. W. Ochterski, R. L. Martin, K. Morokuma, O. Farkas, 
 J. B. Foresman, and D. J. Fox, Gaussian, Inc., Wallingford CT, 2016.
 
 ******************************************
 Gaussian 16:  ES64L-G16RevA.03 25-Dec-2016
                11-Feb-2020 
 ******************************************
 %chk=checkpoint.chk
 %mem=3GB
 %nprocshared=4
 Will use up to    4 processors via shared memory.
 --------------------------------
 #t pop=none jul-cc-pvdz upbe1pbe
 --------------------------------
 ------------------------
 theory_abbreviation pbe0
 ------------------------
 Symbolic Z-matrix:
 Charge =  0 Multiplicity = 6
 O                    -0.34738  -0.13569  -0.51446 
 C                    -1.21263  -1.1149   -0.36406 
 C                    -2.63429  -0.39431   0.67017 
 C                    -2.79165   0.78309  -0.06291 
 C                    -3.70535   0.85388  -1.2384 
 Fe                    1.45996   0.16751  -0.06606 
 Cl                    1.79389   2.19177  -0.86201 
 C                    -2.00877   1.99324   0.2379 
 Cl                    2.58642  -1.45882  -1.02286 
 Cl                    1.60209   0.11897   2.1425 
 H                    -3.39091  -1.15342   0.47052 
 H                    -2.41607   2.88897  -0.23596 
 H                    -1.85064   2.15579   1.30614 
 H                    -1.00747   1.80557  -0.1957 
 H                    -4.49823   1.57857  -1.00358 
 H                    -3.18207   1.2527   -2.11698 
 H                    -4.17283  -0.10046  -1.48361 
 C                    -2.17058  -0.31451   2.11723 
 H                    -2.84656   0.33215   2.68812 
 H                    -2.18807  -1.30063   2.58381 
 H                    -1.15756   0.08455   2.20758 
 C                    -0.76157  -2.27589   0.51901 
 H                    -1.57555  -2.97336   0.73355 
 H                     0.00992  -2.80456  -0.05417 
 H                    -0.30357  -1.93411   1.44627 
 C                    -1.80618  -1.59652  -1.68328 
 H                    -1.02608  -2.18874  -2.17471 
 H                    -2.68391  -2.23426  -1.54473 
 H                    -2.04504  -0.76571  -2.34686 
 
                    Distance matrix (angstroms):
                    1          2          3          4          5
     1  O    0.000000
     2  C    1.315347   0.000000
     3  C    2.588476   1.900000   0.000000
     4  C    2.649995   2.487232   1.395859   0.000000
     5  C    3.574810   3.294571   2.519477   1.490514   0.000000
     6  Fe   1.886652   2.979277   4.197682   4.295934   5.340957
     7  Cl   3.181648   4.496797   5.352027   4.863136   5.672143
     8  C    2.803322   3.264466   2.505701   1.472362   2.521097
     9  Cl   3.258274   3.871062   5.590654   5.905190   6.706819
    10  Cl   3.305260   3.965846   4.514219   4.960828   6.335572
    11  H    3.356943   2.333006   1.090224   2.096124   2.654910
    12  H    3.674993   4.182778   3.413009   2.146103   2.609347
    13  H    3.290178   3.727472   2.742550   2.155018   3.407280
    14  H    2.075043   2.932500   2.869795   2.060672   3.044904
    15  H    4.517463   4.296384   3.188724   2.104780   1.099530
    16  H    3.539932   3.543573   3.283427   2.142937   1.097628
    17  H    3.946457   3.323437   2.663118   2.169493   1.090611
    18  C    3.206533   2.777607   1.521641   2.518621   3.870516
    19  H    4.089168   3.752262   2.155209   2.788282   4.053055
    20  H    3.787419   3.110614   2.163923   3.422180   4.642557
    21  H    2.848582   2.838141   2.184873   2.883278   4.354058
    22  C    2.412489   1.526821   2.659006   3.717150   4.642179
    23  H    3.334420   2.188689   2.788633   4.027922   4.803379
    24  H    2.731746   2.108464   3.650456   4.551928   5.346944
    25  H    2.660958   2.185125   2.899233   3.981362   5.152899
    26  C    2.372399   1.524668   2.769445   3.042907   3.131970
    27  H    2.726185   2.113383   3.728227   4.050764   4.160859
    28  H    3.305277   2.193541   2.879872   3.363301   3.267082
    29  H    2.576165   2.178603   3.096385   2.858775   2.570678
                    6          7          8          9         10
     6  Fe   0.000000
     7  Cl   2.200611   0.000000
     8  C    3.931638   3.963517   0.000000
     9  Cl   2.197578   3.739089   5.884053   0.000000
    10  Cl   2.213660   3.655189   4.492082   3.671216   0.000000
    11  H    5.056055   6.312538   3.444695   6.168631   5.417065
    12  H    4.739066   4.312974   1.092135   6.674382   5.429145
    13  H    4.098324   4.240850   1.092052   6.178772   4.095063
    14  H    2.964497   2.905300   1.107172   4.925090   3.888654
    15  H    6.194354   6.323516   2.812584   7.708334   7.017282
    16  H    5.189631   5.216985   2.733215   6.467216   6.505129
    17  H    5.814592   6.422023   3.468469   6.909768   6.822500
    18  C    4.263787   5.556470   2.980572   5.813666   3.797577
    19  H    5.114552   6.131506   3.076475   6.818815   4.487051
    20  H    4.741872   6.318750   4.047850   5.985726   4.071286
    21  H    3.468099   4.751194   2.871815   5.180268   2.760638
    22  C    3.353757   5.328941   4.456466   3.775450   3.736036
    23  H    4.440580   6.370052   5.010044   4.764542   4.652423
    24  H    3.306959   5.366427   5.213383   3.063951   3.988409
    25  H    3.132725   5.172078   4.448815   3.830742   2.886421
    26  C    4.049057   5.290193   4.076564   4.444108   5.403318
    27  H    4.022274   5.372549   4.927003   3.861308   5.556175
    28  H    5.012645   6.332977   4.637388   5.352579   6.123983
    29  H    4.284611   5.068411   3.780748   4.866599   5.851368
                   11         12         13         14         15
    11  H    0.000000
    12  H    4.217866   0.000000
    13  H    3.744542   1.798707   0.000000
    14  H    3.857493   1.777502   1.757588   0.000000
    15  H    3.295893   2.577173   3.560584   3.590209   0.000000
    16  H    3.539519   2.608136   3.782332   2.953954   1.754461
    17  H    2.353455   3.685038   4.273863   3.912940   1.776353
    18  C    2.214645   3.982472   2.619659   3.346220   4.329112
    19  H    2.724153   3.908058   2.495470   3.724189   4.232054
    20  H    2.436082   5.055285   3.700429   4.332201   5.147432
    21  H    3.088334   3.926768   2.362835   2.959758   4.868648
    22  C    2.859327   5.475690   4.630929   4.150856   5.580128
    23  H    2.583973   6.001116   5.168343   4.901469   5.681531
    24  H    3.816699   6.191508   5.469666   4.723179   6.358979
    25  H    3.330646   5.527623   4.374967   4.144478   5.994648
    26  C    2.710458   4.752507   4.797759   3.798032   4.217855
    27  H    3.696155   5.610167   5.627717   4.457728   5.255474
    28  H    2.393593   5.294538   5.300413   4.577179   4.257025
    29  H    3.146317   4.236767   4.681595   3.509340   3.649405
                   16         17         18         19         20
    16  H    0.000000
    17  H    1.792705   0.000000
    18  C    4.626858   4.125637   0.000000
    19  H    4.903976   4.398804   1.095914   0.000000
    20  H    5.441045   4.682263   1.091074   1.763653   0.000000
    21  H    4.915792   4.769793   1.092526   1.773393   1.766985
    22  C    5.025755   4.514388   2.895974   3.981724   2.692481
    23  H    5.344720   4.462651   3.055836   4.045024   2.568396
    24  H    5.559254   5.181778   3.958524   5.051590   3.748584
    25  H    5.580159   5.188213   2.561055   3.625588   2.290551
    26  C    3.193617   2.806970   4.027439   4.889922   4.294355
    27  H    4.061420   3.839347   4.821139   5.772014   4.978198
    28  H    3.568547   2.602640   4.166403   4.952771   4.261730
    29  H    2.328010   2.390656   4.488588   5.215238   4.961660
                   21         22         23         24         25
    21  H    0.000000
    22  C    2.929128   0.000000
    23  H    3.420279   1.093188   0.000000
    24  H    3.850389   1.096909   1.778397   0.000000
    25  H    2.320320   1.089211   1.790510   1.762746   0.000000
    26  C    4.287835   2.530388   2.791056   2.722424   3.487962
    27  H    4.938583   2.708074   3.061949   2.439098   3.701121
    28  H    4.667596   2.820665   2.639185   3.131088   3.834336
    29  H    4.717354   3.484414   3.818781   3.692719   4.334238
                   26         27         28         29
    26  C    0.000000
    27  H    1.095804   0.000000
    28  H    1.093768   1.774081   0.000000
    29  H    1.089784   1.758677   1.791154   0.000000
 Framework group  C1[X(C8H16Cl3FeO)]
 Deg. of freedom    81
                         Standard orientation:                         
 ---------------------------------------------------------------------
 Center     Atomic      Atomic             Coordinates (Angstroms)
 Number     Number       Type             X           Y           Z
 ---------------------------------------------------------------------
      1          8           0       -0.347380   -0.135686   -0.514463
      2          6           0       -1.212631   -1.114898   -0.364060
      3          6           0       -2.634292   -0.394309    0.670170
      4          6           0       -2.791645    0.783086   -0.062908
      5          6           0       -3.705347    0.853884   -1.238395
      6         26           0        1.459955    0.167511   -0.066059
      7         17           0        1.793889    2.191772   -0.862014
      8          6           0       -2.008775    1.993243    0.237896
      9         17           0        2.586424   -1.458817   -1.022863
     10         17           0        1.602094    0.118967    2.142499
     11          1           0       -3.390912   -1.153423    0.470521
     12          1           0       -2.416066    2.888971   -0.235964
     13          1           0       -1.850643    2.155792    1.306142
     14          1           0       -1.007474    1.805568   -0.195698
     15          1           0       -4.498232    1.578566   -1.003585
     16          1           0       -3.182066    1.252697   -2.116981
     17          1           0       -4.172826   -0.100457   -1.483609
     18          6           0       -2.170578   -0.314509    2.117233
     19          1           0       -2.846555    0.332152    2.688121
     20          1           0       -2.188070   -1.300634    2.583811
     21          1           0       -1.157562    0.084552    2.207580
     22          6           0       -0.761566   -2.275894    0.519009
     23          1           0       -1.575548   -2.973363    0.733554
     24          1           0        0.009916   -2.804563   -0.054169
     25          1           0       -0.303574   -1.934108    1.446266
     26          6           0       -1.806181   -1.596520   -1.683284
     27          1           0       -1.026077   -2.188743   -2.174707
     28          1           0       -2.683912   -2.234264   -1.544726
     29          1           0       -2.045037   -0.765707   -2.346855
 ---------------------------------------------------------------------
 Rotational constants (GHZ):           0.5859636           0.3263056           0.3093082
   427 basis functions,  1056 primitive gaussians,   461 cartesian basis functions
    77 alpha electrons       72 beta electrons
       nuclear repulsion energy      1640.8988258646 Hartrees.
 NAtoms=   29 NActive=   29 NUniq=   29 SFac= 1.00D+00 NAtFMM=   60 NAOKFM=F Big=F
 ExpMin= 1.40D-02 ExpMax= 4.32D+06 ExpMxC= 4.91D+03 IAcc=3 IRadAn=         5 AccDes= 0.00D+00
 Harris functional with IExCor= 1009 and IRadAn=       5 diagonalized for initial guess.
 HarFok:  IExCor= 1009 AccDes= 0.00D+00 IRadAn=         5 IDoV= 1 UseB2=F ITyADJ=14
 ICtDFT=  3500011 ScaDFX=  1.000000  1.000000  1.000000  1.000000
 FoFCou: FMM=F IPFlag=           0 FMFlag=      100000 FMFlg1=           0
         NFxFlg=           0 DoJE=T BraDBF=F KetDBF=T FulRan=T
         wScrn=  0.000000 ICntrl=       500 IOpCl=  0 I1Cent=   200000004 NGrid=           0
         NMat0=    1 NMatS0=      1 NMatT0=    0 NMatD0=    1 NMtDS0=    0 NMtDT0=    0
 Petite list used in FoFCou.
 Initial guess <Sx>= 0.0000 <Sy>= 0.0000 <Sz>= 2.5000 <S**2>= 8.7500 S= 2.5000
 EnCoef did   100 forward-backward iterations
 Restarting incremental Fock formation.
 SCF Done:  E(UPBE1PBE) =  -3033.11140746     A.U. after   21 cycles
            NFock= 21  Conv=0.58D-08     -V/T= 2.0021
 <Sx>= 0.0000 <Sy>= 0.0000 <Sz>= 2.5000 <S**2>= 8.7624 S= 2.5021
 <L.S>= 0.000000000000E+00
 Annihilation of the first spin contaminant:
 S**2 before annihilation     8.7624,   after     8.7500
 1\1\GINC-HOLY7C06107\SP\UPBE1PBE\Jul-CC-pVDZ\C8H16Cl3Fe1O1(6)\EKWAN\11
 -Feb-2020\0\\#t pop=none jul-cc-pvdz upbe1pbe\\theory_abbreviation pbe
 0\\0,6\O,0,-0.34738,-0.135686,-0.514463\C,0,-1.212631,-1.114898,-0.364
 06\C,0,-2.634292,-0.394309,0.67017\C,0,-2.791645,0.783086,-0.062908\C,
 0,-3.705347,0.853884,-1.238395\Fe,0,1.459955,0.167511,-0.066059\Cl,0,1
 .793889,2.191772,-0.862014\C,0,-2.008775,1.993243,0.237896\Cl,0,2.5864
 24,-1.458817,-1.022863\Cl,0,1.602094,0.118967,2.142499\H,0,-3.390912,-
 1.153423,0.470521\H,0,-2.416066,2.888971,-0.235964\H,0,-1.850643,2.155
 792,1.306142\H,0,-1.007474,1.805568,-0.195698\H,0,-4.498232,1.578566,-
 1.003585\H,0,-3.182066,1.252697,-2.116981\H,0,-4.172826,-0.100457,-1.4
 83609\C,0,-2.170578,-0.314509,2.117233\H,0,-2.846555,0.332152,2.688121
 \H,0,-2.18807,-1.300634,2.583811\H,0,-1.157562,0.084552,2.20758\C,0,-0
 .761566,-2.275894,0.519009\H,0,-1.575548,-2.973363,0.733554\H,0,0.0099
 16,-2.804563,-0.054169\H,0,-0.303574,-1.934108,1.446266\C,0,-1.806181,
 -1.59652,-1.683284\H,0,-1.026077,-2.188743,-2.174707\H,0,-2.683912,-2.
 234264,-1.544726\H,0,-2.045037,-0.765707,-2.346855\\Version=ES64L-G16R
 evA.03\HF=-3033.1114075\S2=8.762436\S2-1=0.\S2A=8.750048\RMSD=5.765e-0
 9\PG=C01 [X(C8H16Cl3Fe1O1)]\\@


 A COMPUTER IS LIKE A HORSE, IT WILL SENSE WEAKNESS.
     -- GREG WETTSTEIN
 Job cpu time:       0 days  1 hours 32 minutes 32.0 seconds.
 Elapsed time:       0 days  0 hours 23 minutes 12.6 seconds.
 File lengths (MBytes):  RWF=    173 Int=      0 D2E=      0 Chk=     13 Scr=      1
 Normal termination of Gaussian 16 at Tue Feb 11 13:59:25 2020.
 Initial command:
 /n/sw/g16_nehalem/g16/l1.exe "/scratch/Gau-10636.inp" -scrdir="/scratch/"
 Entering Link 1 = /n/sw/g16_nehalem/g16/l1.exe PID=     13424.
  
 Copyright (c) 1988,1990,1992,1993,1995,1998,2003,2009,2016,
            Gaussian, Inc.  All Rights Reserved.
  
 This is part of the Gaussian(R) 16 program.  It is based on
 the Gaussian(R) 09 system (copyright 2009, Gaussian, Inc.),
 the Gaussian(R) 03 system (copyright 2003, Gaussian, Inc.),
 the Gaussian(R) 98 system (copyright 1998, Gaussian, Inc.),
 the Gaussian(R) 94 system (copyright 1995, Gaussian, Inc.),
 the Gaussian 92(TM) system (copyright 1992, Gaussian, Inc.),
 the Gaussian 90(TM) system (copyright 1990, Gaussian, Inc.),
 the Gaussian 88(TM) system (copyright 1988, Gaussian, Inc.),
 the Gaussian 86(TM) system (copyright 1986, Carnegie Mellon
 University), and the Gaussian 82(TM) system (copyright 1983,
 Carnegie Mellon University). Gaussian is a federally registered
 trademark of Gaussian, Inc.
  
 This software contains proprietary and confidential information,
 including trade secrets, belonging to Gaussian, Inc.
  
 This software is provided under written license and may be
 used, copied, transmitted, or stored only in accord with that
 written license.
  
 The following legend is applicable only to US Government
 contracts under FAR:
  
                    RESTRICTED RIGHTS LEGEND
  
 Use, reproduction and disclosure by the US Government is
 subject to restrictions as set forth in subparagraphs (a)
 and (c) of the Commercial Computer Software - Restricted
 Rights clause in FAR 52.227-19.
  
 Gaussian, Inc.
 340 Quinnipiac St., Bldg. 40, Wallingford CT 06492
  
  
 ---------------------------------------------------------------
 Warning -- This program may not be used in any manner that
 competes with the business of Gaussian, Inc. or will provide
 assistance to any competitor of Gaussian, Inc.  The licensee
 of this program is prohibited from giving any competitor of
 Gaussian, Inc. access to this program.  By using this program,
 the user acknowledges that Gaussian, Inc. is engaged in the
 business of creating and licensing software in the field of
 computational chemistry and represents and warrants to the
 licensee that it is not a competitor of Gaussian, Inc. and that
 it will not use this program in any manner prohibited above.
 ---------------------------------------------------------------
  

 Cite this work as:
 Gaussian 16, Revision A.03,
 M. J. Frisch, G. W. Trucks, H. B. Schlegel, G. E. Scuseria, 
 M. A. Robb, J. R. Cheeseman, G. Scalmani, V. Barone, 
 G. A. Petersson, H. Nakatsuji, X. Li, M. Caricato, A. V. Marenich, 
 J. Bloino, B. G. Janesko, R. Gomperts, B. Mennucci, H. P. Hratchian, 
 J. V. Ortiz, A. F. Izmaylov, J. L. Sonnenberg, D. Williams-Young, 
 F. Ding, F. Lipparini, F. Egidi, J. Goings, B. Peng, A. Petrone, 
 T. Henderson, D. Ranasinghe, V. G. Zakrzewski, J. Gao, N. Rega, 
 G. Zheng, W. Liang, M. Hada, M. Ehara, K. Toyota, R. Fukuda, 
 J. Hasegawa, M. Ishida, T. Nakajima, Y. Honda, O. Kitao, H. Nakai, 
 T. Vreven, K. Throssell, J. A. Montgomery, Jr., J. E. Peralta, 
 F. Ogliaro, M. J. Bearpark, J. J. Heyd, E. N. Brothers, K. N. Kudin, 
 V. N. Staroverov, T. A. Keith, R. Kobayashi, J. Normand, 
 K. Raghavachari, A. P. Rendell, J. C. Burant, S. S. Iyengar, 
 J. Tomasi, M. Cossi, J. M. Millam, M. Klene, C. Adamo, R. Cammi, 
 J. W. Ochterski, R. L. Martin, K. Morokuma, O. Farkas, 
 J. B. Foresman, and D. J. Fox, Gaussian, Inc., Wallingford CT, 2016.
 
 ******************************************
 Gaussian 16:  ES64L-G16RevA.03 25-Dec-2016
                11-Feb-2020 
 ******************************************
 %chk=checkpoint.chk
 %mem=3GB
 %nprocshared=4
 Will use up to    4 processors via shared memory.
 ---------------------------------------------------------------------
 #t pop=none jul-cc-pvdz guess=read upbe1pbe empiricaldispersion=gd3bj
 ---------------------------------------------------------------------
 -----------------------------
 theory_abbreviation pbe0_d3bj
 -----------------------------
 Symbolic Z-matrix:
 Charge =  0 Multiplicity = 6
 O                    -0.34738  -0.13569  -0.51446 
 C                    -1.21263  -1.1149   -0.36406 
 C                    -2.63429  -0.39431   0.67017 
 C                    -2.79165   0.78309  -0.06291 
 C                    -3.70535   0.85388  -1.2384 
 Fe                    1.45996   0.16751  -0.06606 
 Cl                    1.79389   2.19177  -0.86201 
 C                    -2.00877   1.99324   0.2379 
 Cl                    2.58642  -1.45882  -1.02286 
 Cl                    1.60209   0.11897   2.1425 
 H                    -3.39091  -1.15342   0.47052 
 H                    -2.41607   2.88897  -0.23596 
 H                    -1.85064   2.15579   1.30614 
 H                    -1.00747   1.80557  -0.1957 
 H                    -4.49823   1.57857  -1.00358 
 H                    -3.18207   1.2527   -2.11698 
 H                    -4.17283  -0.10046  -1.48361 
 C                    -2.17058  -0.31451   2.11723 
 H                    -2.84656   0.33215   2.68812 
 H                    -2.18807  -1.30063   2.58381 
 H                    -1.15756   0.08455   2.20758 
 C                    -0.76157  -2.27589   0.51901 
 H                    -1.57555  -2.97336   0.73355 
 H                     0.00992  -2.80456  -0.05417 
 H                    -0.30357  -1.93411   1.44627 
 C                    -1.80618  -1.59652  -1.68328 
 H                    -1.02608  -2.18874  -2.17471 
 H                    -2.68391  -2.23426  -1.54473 
 H                    -2.04504  -0.76571  -2.34686 
 
                    Distance matrix (angstroms):
                    1          2          3          4          5
     1  O    0.000000
     2  C    1.315347   0.000000
     3  C    2.588476   1.900000   0.000000
     4  C    2.649995   2.487232   1.395859   0.000000
     5  C    3.574810   3.294571   2.519477   1.490514   0.000000
     6  Fe   1.886652   2.979277   4.197682   4.295934   5.340957
     7  Cl   3.181648   4.496797   5.352027   4.863136   5.672143
     8  C    2.803322   3.264466   2.505701   1.472362   2.521097
     9  Cl   3.258274   3.871062   5.590654   5.905190   6.706819
    10  Cl   3.305260   3.965846   4.514219   4.960828   6.335572
    11  H    3.356943   2.333006   1.090224   2.096124   2.654910
    12  H    3.674993   4.182778   3.413009   2.146103   2.609347
    13  H    3.290178   3.727472   2.742550   2.155018   3.407280
    14  H    2.075043   2.932500   2.869795   2.060672   3.044904
    15  H    4.517463   4.296384   3.188724   2.104780   1.099530
    16  H    3.539932   3.543573   3.283427   2.142937   1.097628
    17  H    3.946457   3.323437   2.663118   2.169493   1.090611
    18  C    3.206533   2.777607   1.521641   2.518621   3.870516
    19  H    4.089168   3.752262   2.155209   2.788282   4.053055
    20  H    3.787419   3.110614   2.163923   3.422180   4.642557
    21  H    2.848582   2.838141   2.184873   2.883278   4.354058
    22  C    2.412489   1.526821   2.659006   3.717150   4.642179
    23  H    3.334420   2.188689   2.788633   4.027922   4.803379
    24  H    2.731746   2.108464   3.650456   4.551928   5.346944
    25  H    2.660958   2.185125   2.899233   3.981362   5.152899
    26  C    2.372399   1.524668   2.769445   3.042907   3.131970
    27  H    2.726185   2.113383   3.728227   4.050764   4.160859
    28  H    3.305277   2.193541   2.879872   3.363301   3.267082
    29  H    2.576165   2.178603   3.096385   2.858775   2.570678
                    6          7          8          9         10
     6  Fe   0.000000
     7  Cl   2.200611   0.000000
     8  C    3.931638   3.963517   0.000000
     9  Cl   2.197578   3.739089   5.884053   0.000000
    10  Cl   2.213660   3.655189   4.492082   3.671216   0.000000
    11  H    5.056055   6.312538   3.444695   6.168631   5.417065
    12  H    4.739066   4.312974   1.092135   6.674382   5.429145
    13  H    4.098324   4.240850   1.092052   6.178772   4.095063
    14  H    2.964497   2.905300   1.107172   4.925090   3.888654
    15  H    6.194354   6.323516   2.812584   7.708334   7.017282
    16  H    5.189631   5.216985   2.733215   6.467216   6.505129
    17  H    5.814592   6.422023   3.468469   6.909768   6.822500
    18  C    4.263787   5.556470   2.980572   5.813666   3.797577
    19  H    5.114552   6.131506   3.076475   6.818815   4.487051
    20  H    4.741872   6.318750   4.047850   5.985726   4.071286
    21  H    3.468099   4.751194   2.871815   5.180268   2.760638
    22  C    3.353757   5.328941   4.456466   3.775450   3.736036
    23  H    4.440580   6.370052   5.010044   4.764542   4.652423
    24  H    3.306959   5.366427   5.213383   3.063951   3.988409
    25  H    3.132725   5.172078   4.448815   3.830742   2.886421
    26  C    4.049057   5.290193   4.076564   4.444108   5.403318
    27  H    4.022274   5.372549   4.927003   3.861308   5.556175
    28  H    5.012645   6.332977   4.637388   5.352579   6.123983
    29  H    4.284611   5.068411   3.780748   4.866599   5.851368
                   11         12         13         14         15
    11  H    0.000000
    12  H    4.217866   0.000000
    13  H    3.744542   1.798707   0.000000
    14  H    3.857493   1.777502   1.757588   0.000000
    15  H    3.295893   2.577173   3.560584   3.590209   0.000000
    16  H    3.539519   2.608136   3.782332   2.953954   1.754461
    17  H    2.353455   3.685038   4.273863   3.912940   1.776353
    18  C    2.214645   3.982472   2.619659   3.346220   4.329112
    19  H    2.724153   3.908058   2.495470   3.724189   4.232054
    20  H    2.436082   5.055285   3.700429   4.332201   5.147432
    21  H    3.088334   3.926768   2.362835   2.959758   4.868648
    22  C    2.859327   5.475690   4.630929   4.150856   5.580128
    23  H    2.583973   6.001116   5.168343   4.901469   5.681531
    24  H    3.816699   6.191508   5.469666   4.723179   6.358979
    25  H    3.330646   5.527623   4.374967   4.144478   5.994648
    26  C    2.710458   4.752507   4.797759   3.798032   4.217855
    27  H    3.696155   5.610167   5.627717   4.457728   5.255474
    28  H    2.393593   5.294538   5.300413   4.577179   4.257025
    29  H    3.146317   4.236767   4.681595   3.509340   3.649405
                   16         17         18         19         20
    16  H    0.000000
    17  H    1.792705   0.000000
    18  C    4.626858   4.125637   0.000000
    19  H    4.903976   4.398804   1.095914   0.000000
    20  H    5.441045   4.682263   1.091074   1.763653   0.000000
    21  H    4.915792   4.769793   1.092526   1.773393   1.766985
    22  C    5.025755   4.514388   2.895974   3.981724   2.692481
    23  H    5.344720   4.462651   3.055836   4.045024   2.568396
    24  H    5.559254   5.181778   3.958524   5.051590   3.748584
    25  H    5.580159   5.188213   2.561055   3.625588   2.290551
    26  C    3.193617   2.806970   4.027439   4.889922   4.294355
    27  H    4.061420   3.839347   4.821139   5.772014   4.978198
    28  H    3.568547   2.602640   4.166403   4.952771   4.261730
    29  H    2.328010   2.390656   4.488588   5.215238   4.961660
                   21         22         23         24         25
    21  H    0.000000
    22  C    2.929128   0.000000
    23  H    3.420279   1.093188   0.000000
    24  H    3.850389   1.096909   1.778397   0.000000
    25  H    2.320320   1.089211   1.790510   1.762746   0.000000
    26  C    4.287835   2.530388   2.791056   2.722424   3.487962
    27  H    4.938583   2.708074   3.061949   2.439098   3.701121
    28  H    4.667596   2.820665   2.639185   3.131088   3.834336
    29  H    4.717354   3.484414   3.818781   3.692719   4.334238
                   26         27         28         29
    26  C    0.000000
    27  H    1.095804   0.000000
    28  H    1.093768   1.774081   0.000000
    29  H    1.089784   1.758677   1.791154   0.000000
 Framework group  C1[X(C8H16Cl3FeO)]
 Deg. of freedom    81
                         Standard orientation:                         
 ---------------------------------------------------------------------
 Center     Atomic      Atomic             Coordinates (Angstroms)
 Number     Number       Type             X           Y           Z
 ---------------------------------------------------------------------
      1          8           0       -0.347380   -0.135686   -0.514463
      2          6           0       -1.212631   -1.114898   -0.364060
      3          6           0       -2.634292   -0.394309    0.670170
      4          6           0       -2.791645    0.783086   -0.062908
      5          6           0       -3.705347    0.853884   -1.238395
      6         26           0        1.459955    0.167511   -0.066059
      7         17           0        1.793889    2.191772   -0.862014
      8          6           0       -2.008775    1.993243    0.237896
      9         17           0        2.586424   -1.458817   -1.022863
     10         17           0        1.602094    0.118967    2.142499
     11          1           0       -3.390912   -1.153423    0.470521
     12          1           0       -2.416066    2.888971   -0.235964
     13          1           0       -1.850643    2.155792    1.306142
     14          1           0       -1.007474    1.805568   -0.195698
     15          1           0       -4.498232    1.578566   -1.003585
     16          1           0       -3.182066    1.252697   -2.116981
     17          1           0       -4.172826   -0.100457   -1.483609
     18          6           0       -2.170578   -0.314509    2.117233
     19          1           0       -2.846555    0.332152    2.688121
     20          1           0       -2.188070   -1.300634    2.583811
     21          1           0       -1.157562    0.084552    2.207580
     22          6           0       -0.761566   -2.275894    0.519009
     23          1           0       -1.575548   -2.973363    0.733554
     24          1           0        0.009916   -2.804563   -0.054169
     25          1           0       -0.303574   -1.934108    1.446266
     26          6           0       -1.806181   -1.596520   -1.683284
     27          1           0       -1.026077   -2.188743   -2.174707
     28          1           0       -2.683912   -2.234264   -1.544726
     29          1           0       -2.045037   -0.765707   -2.346855
 ---------------------------------------------------------------------
 Rotational constants (GHZ):           0.5859636           0.3263056           0.3093082
   427 basis functions,  1056 primitive gaussians,   461 cartesian basis functions
    77 alpha electrons       72 beta electrons
       nuclear repulsion energy      1640.8988258646 Hartrees.
 NAtoms=   29 NActive=   29 NUniq=   29 SFac= 1.00D+00 NAtFMM=   60 NAOKFM=F Big=F
 Nuclear repulsion after empirical dispersion term =     1640.8624728578 Hartrees.
 Initial guess from the checkpoint file:  "checkpoint.chk"
 B after Tr=     0.000000    0.000000    0.000000
         Rot=    1.000000    0.000000    0.000000    0.000000 Ang=   0.00 deg.
 Initial guess <Sx>= 0.0000 <Sy>= 0.0000 <Sz>= 2.5000 <S**2>= 8.7624 S= 2.5021
 SCF Done:  E(UPBE1PBE) =  -3033.14776047     A.U. after    1 cycles
            NFock=  1  Conv=0.32D-08     -V/T= 2.0021
 <Sx>= 0.0000 <Sy>= 0.0000 <Sz>= 2.5000 <S**2>= 8.7624 S= 2.5021
 <L.S>= 0.000000000000E+00
 Annihilation of the first spin contaminant:
 S**2 before annihilation     8.7624,   after     8.7500
 1\1\GINC-HOLY7C06107\SP\UPBE1PBE\Jul-CC-pVDZ\C8H16Cl3Fe1O1(6)\EKWAN\11
 -Feb-2020\0\\#t pop=none jul-cc-pvdz guess=read upbe1pbe empiricaldisp
 ersion=gd3bj\\theory_abbreviation pbe0_d3bj\\0,6\O,0,-0.34738,-0.13568
 6,-0.514463\C,0,-1.212631,-1.114898,-0.36406\C,0,-2.634292,-0.394309,0
 .67017\C,0,-2.791645,0.783086,-0.062908\C,0,-3.705347,0.853884,-1.2383
 95\Fe,0,1.459955,0.167511,-0.066059\Cl,0,1.793889,2.191772,-0.862014\C
 ,0,-2.008775,1.993243,0.237896\Cl,0,2.586424,-1.458817,-1.022863\Cl,0,
 1.602094,0.118967,2.142499\H,0,-3.390912,-1.153423,0.470521\H,0,-2.416
 066,2.888971,-0.235964\H,0,-1.850643,2.155792,1.306142\H,0,-1.007474,1
 .805568,-0.195698\H,0,-4.498232,1.578566,-1.003585\H,0,-3.182066,1.252
 697,-2.116981\H,0,-4.172826,-0.100457,-1.483609\C,0,-2.170578,-0.31450
 9,2.117233\H,0,-2.846555,0.332152,2.688121\H,0,-2.18807,-1.300634,2.58
 3811\H,0,-1.157562,0.084552,2.20758\C,0,-0.761566,-2.275894,0.519009\H
 ,0,-1.575548,-2.973363,0.733554\H,0,0.009916,-2.804563,-0.054169\H,0,-
 0.303574,-1.934108,1.446266\C,0,-1.806181,-1.59652,-1.683284\H,0,-1.02
 6077,-2.188743,-2.174707\H,0,-2.683912,-2.234264,-1.544726\H,0,-2.0450
 37,-0.765707,-2.346855\\Version=ES64L-G16RevA.03\HF=-3033.1477605\S2=8
 .762436\S2-1=0.\S2A=8.750048\RMSD=3.206e-09\PG=C01 [X(C8H16Cl3Fe1O1)]\
 \@


 RESEARCH IS WHAT I AM DOING WHEN I DON'T KNOW WHAT I AM DOING.
     -- WERNER VON BRAUN
 Job cpu time:       0 days  0 hours  4 minutes 41.5 seconds.
 Elapsed time:       0 days  0 hours  1 minutes 10.9 seconds.
 File lengths (MBytes):  RWF=    170 Int=      0 D2E=      0 Chk=     13 Scr=      1
 Normal termination of Gaussian 16 at Tue Feb 11 14:00:37 2020.
 Initial command:
 /n/sw/g16_nehalem/g16/l1.exe "/scratch/Gau-10636.inp" -scrdir="/scratch/"
 Entering Link 1 = /n/sw/g16_nehalem/g16/l1.exe PID=     13759.
  
 Copyright (c) 1988,1990,1992,1993,1995,1998,2003,2009,2016,
            Gaussian, Inc.  All Rights Reserved.
  
 This is part of the Gaussian(R) 16 program.  It is based on
 the Gaussian(R) 09 system (copyright 2009, Gaussian, Inc.),
 the Gaussian(R) 03 system (copyright 2003, Gaussian, Inc.),
 the Gaussian(R) 98 system (copyright 1998, Gaussian, Inc.),
 the Gaussian(R) 94 system (copyright 1995, Gaussian, Inc.),
 the Gaussian 92(TM) system (copyright 1992, Gaussian, Inc.),
 the Gaussian 90(TM) system (copyright 1990, Gaussian, Inc.),
 the Gaussian 88(TM) system (copyright 1988, Gaussian, Inc.),
 the Gaussian 86(TM) system (copyright 1986, Carnegie Mellon
 University), and the Gaussian 82(TM) system (copyright 1983,
 Carnegie Mellon University). Gaussian is a federally registered
 trademark of Gaussian, Inc.
  
 This software contains proprietary and confidential information,
 including trade secrets, belonging to Gaussian, Inc.
  
 This software is provided under written license and may be
 used, copied, transmitted, or stored only in accord with that
 written license.
  
 The following legend is applicable only to US Government
 contracts under FAR:
  
                    RESTRICTED RIGHTS LEGEND
  
 Use, reproduction and disclosure by the US Government is
 subject to restrictions as set forth in subparagraphs (a)
 and (c) of the Commercial Computer Software - Restricted
 Rights clause in FAR 52.227-19.
  
 Gaussian, Inc.
 340 Quinnipiac St., Bldg. 40, Wallingford CT 06492
  
  
 ---------------------------------------------------------------
 Warning -- This program may not be used in any manner that
 competes with the business of Gaussian, Inc. or will provide
 assistance to any competitor of Gaussian, Inc.  The licensee
 of this program is prohibited from giving any competitor of
 Gaussian, Inc. access to this program.  By using this program,
 the user acknowledges that Gaussian, Inc. is engaged in the
 business of creating and licensing software in the field of
 computational chemistry and represents and warrants to the
 licensee that it is not a competitor of Gaussian, Inc. and that
 it will not use this program in any manner prohibited above.
 ---------------------------------------------------------------
  

 Cite this work as:
 Gaussian 16, Revision A.03,
 M. J. Frisch, G. W. Trucks, H. B. Schlegel, G. E. Scuseria, 
 M. A. Robb, J. R. Cheeseman, G. Scalmani, V. Barone, 
 G. A. Petersson, H. Nakatsuji, X. Li, M. Caricato, A. V. Marenich, 
 J. Bloino, B. G. Janesko, R. Gomperts, B. Mennucci, H. P. Hratchian, 
 J. V. Ortiz, A. F. Izmaylov, J. L. Sonnenberg, D. Williams-Young, 
 F. Ding, F. Lipparini, F. Egidi, J. Goings, B. Peng, A. Petrone, 
 T. Henderson, D. Ranasinghe, V. G. Zakrzewski, J. Gao, N. Rega, 
 G. Zheng, W. Liang, M. Hada, M. Ehara, K. Toyota, R. Fukuda, 
 J. Hasegawa, M. Ishida, T. Nakajima, Y. Honda, O. Kitao, H. Nakai, 
 T. Vreven, K. Throssell, J. A. Montgomery, Jr., J. E. Peralta, 
 F. Ogliaro, M. J. Bearpark, J. J. Heyd, E. N. Brothers, K. N. Kudin, 
 V. N. Staroverov, T. A. Keith, R. Kobayashi, J. Normand, 
 K. Raghavachari, A. P. Rendell, J. C. Burant, S. S. Iyengar, 
 J. Tomasi, M. Cossi, J. M. Millam, M. Klene, C. Adamo, R. Cammi, 
 J. W. Ochterski, R. L. Martin, K. Morokuma, O. Farkas, 
 J. B. Foresman, and D. J. Fox, Gaussian, Inc., Wallingford CT, 2016.
 
 ******************************************
 Gaussian 16:  ES64L-G16RevA.03 25-Dec-2016
                11-Feb-2020 
 ******************************************
 %chk=checkpoint.chk
 %mem=3GB
 %nprocshared=4
 Will use up to    4 processors via shared memory.
 -----------------------------------------
 #t pop=none jul-cc-pvdz guess=read ub3lyp
 -----------------------------------------
 -------------------------
 theory_abbreviation b3lyp
 -------------------------
 Symbolic Z-matrix:
 Charge =  0 Multiplicity = 6
 O                    -0.34738  -0.13569  -0.51446 
 C                    -1.21263  -1.1149   -0.36406 
 C                    -2.63429  -0.39431   0.67017 
 C                    -2.79165   0.78309  -0.06291 
 C                    -3.70535   0.85388  -1.2384 
 Fe                    1.45996   0.16751  -0.06606 
 Cl                    1.79389   2.19177  -0.86201 
 C                    -2.00877   1.99324   0.2379 
 Cl                    2.58642  -1.45882  -1.02286 
 Cl                    1.60209   0.11897   2.1425 
 H                    -3.39091  -1.15342   0.47052 
 H                    -2.41607   2.88897  -0.23596 
 H                    -1.85064   2.15579   1.30614 
 H                    -1.00747   1.80557  -0.1957 
 H                    -4.49823   1.57857  -1.00358 
 H                    -3.18207   1.2527   -2.11698 
 H                    -4.17283  -0.10046  -1.48361 
 C                    -2.17058  -0.31451   2.11723 
 H                    -2.84656   0.33215   2.68812 
 H                    -2.18807  -1.30063   2.58381 
 H                    -1.15756   0.08455   2.20758 
 C                    -0.76157  -2.27589   0.51901 
 H                    -1.57555  -2.97336   0.73355 
 H                     0.00992  -2.80456  -0.05417 
 H                    -0.30357  -1.93411   1.44627 
 C                    -1.80618  -1.59652  -1.68328 
 H                    -1.02608  -2.18874  -2.17471 
 H                    -2.68391  -2.23426  -1.54473 
 H                    -2.04504  -0.76571  -2.34686 
 
                    Distance matrix (angstroms):
                    1          2          3          4          5
     1  O    0.000000
     2  C    1.315347   0.000000
     3  C    2.588476   1.900000   0.000000
     4  C    2.649995   2.487232   1.395859   0.000000
     5  C    3.574810   3.294571   2.519477   1.490514   0.000000
     6  Fe   1.886652   2.979277   4.197682   4.295934   5.340957
     7  Cl   3.181648   4.496797   5.352027   4.863136   5.672143
     8  C    2.803322   3.264466   2.505701   1.472362   2.521097
     9  Cl   3.258274   3.871062   5.590654   5.905190   6.706819
    10  Cl   3.305260   3.965846   4.514219   4.960828   6.335572
    11  H    3.356943   2.333006   1.090224   2.096124   2.654910
    12  H    3.674993   4.182778   3.413009   2.146103   2.609347
    13  H    3.290178   3.727472   2.742550   2.155018   3.407280
    14  H    2.075043   2.932500   2.869795   2.060672   3.044904
    15  H    4.517463   4.296384   3.188724   2.104780   1.099530
    16  H    3.539932   3.543573   3.283427   2.142937   1.097628
    17  H    3.946457   3.323437   2.663118   2.169493   1.090611
    18  C    3.206533   2.777607   1.521641   2.518621   3.870516
    19  H    4.089168   3.752262   2.155209   2.788282   4.053055
    20  H    3.787419   3.110614   2.163923   3.422180   4.642557
    21  H    2.848582   2.838141   2.184873   2.883278   4.354058
    22  C    2.412489   1.526821   2.659006   3.717150   4.642179
    23  H    3.334420   2.188689   2.788633   4.027922   4.803379
    24  H    2.731746   2.108464   3.650456   4.551928   5.346944
    25  H    2.660958   2.185125   2.899233   3.981362   5.152899
    26  C    2.372399   1.524668   2.769445   3.042907   3.131970
    27  H    2.726185   2.113383   3.728227   4.050764   4.160859
    28  H    3.305277   2.193541   2.879872   3.363301   3.267082
    29  H    2.576165   2.178603   3.096385   2.858775   2.570678
                    6          7          8          9         10
     6  Fe   0.000000
     7  Cl   2.200611   0.000000
     8  C    3.931638   3.963517   0.000000
     9  Cl   2.197578   3.739089   5.884053   0.000000
    10  Cl   2.213660   3.655189   4.492082   3.671216   0.000000
    11  H    5.056055   6.312538   3.444695   6.168631   5.417065
    12  H    4.739066   4.312974   1.092135   6.674382   5.429145
    13  H    4.098324   4.240850   1.092052   6.178772   4.095063
    14  H    2.964497   2.905300   1.107172   4.925090   3.888654
    15  H    6.194354   6.323516   2.812584   7.708334   7.017282
    16  H    5.189631   5.216985   2.733215   6.467216   6.505129
    17  H    5.814592   6.422023   3.468469   6.909768   6.822500
    18  C    4.263787   5.556470   2.980572   5.813666   3.797577
    19  H    5.114552   6.131506   3.076475   6.818815   4.487051
    20  H    4.741872   6.318750   4.047850   5.985726   4.071286
    21  H    3.468099   4.751194   2.871815   5.180268   2.760638
    22  C    3.353757   5.328941   4.456466   3.775450   3.736036
    23  H    4.440580   6.370052   5.010044   4.764542   4.652423
    24  H    3.306959   5.366427   5.213383   3.063951   3.988409
    25  H    3.132725   5.172078   4.448815   3.830742   2.886421
    26  C    4.049057   5.290193   4.076564   4.444108   5.403318
    27  H    4.022274   5.372549   4.927003   3.861308   5.556175
    28  H    5.012645   6.332977   4.637388   5.352579   6.123983
    29  H    4.284611   5.068411   3.780748   4.866599   5.851368
                   11         12         13         14         15
    11  H    0.000000
    12  H    4.217866   0.000000
    13  H    3.744542   1.798707   0.000000
    14  H    3.857493   1.777502   1.757588   0.000000
    15  H    3.295893   2.577173   3.560584   3.590209   0.000000
    16  H    3.539519   2.608136   3.782332   2.953954   1.754461
    17  H    2.353455   3.685038   4.273863   3.912940   1.776353
    18  C    2.214645   3.982472   2.619659   3.346220   4.329112
    19  H    2.724153   3.908058   2.495470   3.724189   4.232054
    20  H    2.436082   5.055285   3.700429   4.332201   5.147432
    21  H    3.088334   3.926768   2.362835   2.959758   4.868648
    22  C    2.859327   5.475690   4.630929   4.150856   5.580128
    23  H    2.583973   6.001116   5.168343   4.901469   5.681531
    24  H    3.816699   6.191508   5.469666   4.723179   6.358979
    25  H    3.330646   5.527623   4.374967   4.144478   5.994648
    26  C    2.710458   4.752507   4.797759   3.798032   4.217855
    27  H    3.696155   5.610167   5.627717   4.457728   5.255474
    28  H    2.393593   5.294538   5.300413   4.577179   4.257025
    29  H    3.146317   4.236767   4.681595   3.509340   3.649405
                   16         17         18         19         20
    16  H    0.000000
    17  H    1.792705   0.000000
    18  C    4.626858   4.125637   0.000000
    19  H    4.903976   4.398804   1.095914   0.000000
    20  H    5.441045   4.682263   1.091074   1.763653   0.000000
    21  H    4.915792   4.769793   1.092526   1.773393   1.766985
    22  C    5.025755   4.514388   2.895974   3.981724   2.692481
    23  H    5.344720   4.462651   3.055836   4.045024   2.568396
    24  H    5.559254   5.181778   3.958524   5.051590   3.748584
    25  H    5.580159   5.188213   2.561055   3.625588   2.290551
    26  C    3.193617   2.806970   4.027439   4.889922   4.294355
    27  H    4.061420   3.839347   4.821139   5.772014   4.978198
    28  H    3.568547   2.602640   4.166403   4.952771   4.261730
    29  H    2.328010   2.390656   4.488588   5.215238   4.961660
                   21         22         23         24         25
    21  H    0.000000
    22  C    2.929128   0.000000
    23  H    3.420279   1.093188   0.000000
    24  H    3.850389   1.096909   1.778397   0.000000
    25  H    2.320320   1.089211   1.790510   1.762746   0.000000
    26  C    4.287835   2.530388   2.791056   2.722424   3.487962
    27  H    4.938583   2.708074   3.061949   2.439098   3.701121
    28  H    4.667596   2.820665   2.639185   3.131088   3.834336
    29  H    4.717354   3.484414   3.818781   3.692719   4.334238
                   26         27         28         29
    26  C    0.000000
    27  H    1.095804   0.000000
    28  H    1.093768   1.774081   0.000000
    29  H    1.089784   1.758677   1.791154   0.000000
 Framework group  C1[X(C8H16Cl3FeO)]
 Deg. of freedom    81
                         Standard orientation:                         
 ---------------------------------------------------------------------
 Center     Atomic      Atomic             Coordinates (Angstroms)
 Number     Number       Type             X           Y           Z
 ---------------------------------------------------------------------
      1          8           0       -0.347380   -0.135686   -0.514463
      2          6           0       -1.212631   -1.114898   -0.364060
      3          6           0       -2.634292   -0.394309    0.670170
      4          6           0       -2.791645    0.783086   -0.062908
      5          6           0       -3.705347    0.853884   -1.238395
      6         26           0        1.459955    0.167511   -0.066059
      7         17           0        1.793889    2.191772   -0.862014
      8          6           0       -2.008775    1.993243    0.237896
      9         17           0        2.586424   -1.458817   -1.022863
     10         17           0        1.602094    0.118967    2.142499
     11          1           0       -3.390912   -1.153423    0.470521
     12          1           0       -2.416066    2.888971   -0.235964
     13          1           0       -1.850643    2.155792    1.306142
     14          1           0       -1.007474    1.805568   -0.195698
     15          1           0       -4.498232    1.578566   -1.003585
     16          1           0       -3.182066    1.252697   -2.116981
     17          1           0       -4.172826   -0.100457   -1.483609
     18          6           0       -2.170578   -0.314509    2.117233
     19          1           0       -2.846555    0.332152    2.688121
     20          1           0       -2.188070   -1.300634    2.583811
     21          1           0       -1.157562    0.084552    2.207580
     22          6           0       -0.761566   -2.275894    0.519009
     23          1           0       -1.575548   -2.973363    0.733554
     24          1           0        0.009916   -2.804563   -0.054169
     25          1           0       -0.303574   -1.934108    1.446266
     26          6           0       -1.806181   -1.596520   -1.683284
     27          1           0       -1.026077   -2.188743   -2.174707
     28          1           0       -2.683912   -2.234264   -1.544726
     29          1           0       -2.045037   -0.765707   -2.346855
 ---------------------------------------------------------------------
 Rotational constants (GHZ):           0.5859636           0.3263056           0.3093082
   427 basis functions,  1056 primitive gaussians,   461 cartesian basis functions
    77 alpha electrons       72 beta electrons
       nuclear repulsion energy      1640.8988258646 Hartrees.
 NAtoms=   29 NActive=   29 NUniq=   29 SFac= 1.00D+00 NAtFMM=   60 NAOKFM=F Big=F
 Initial guess from the checkpoint file:  "checkpoint.chk"
 B after Tr=     0.000000    0.000000    0.000000
         Rot=    1.000000    0.000000    0.000000    0.000000 Ang=   0.00 deg.
 Initial guess <Sx>= 0.0000 <Sy>= 0.0000 <Sz>= 2.5000 <S**2>= 8.7624 S= 2.5021
 SCF Done:  E(UB3LYP) =  -3034.32447844     A.U. after   13 cycles
            NFock= 13  Conv=0.69D-08     -V/T= 2.0024
 <Sx>= 0.0000 <Sy>= 0.0000 <Sz>= 2.5000 <S**2>= 8.7617 S= 2.5020
 <L.S>= 0.000000000000E+00
 Annihilation of the first spin contaminant:
 S**2 before annihilation     8.7617,   after     8.7500
 1\1\GINC-HOLY7C06107\SP\UB3LYP\Jul-CC-pVDZ\C8H16Cl3Fe1O1(6)\EKWAN\11-F
 eb-2020\0\\#t pop=none jul-cc-pvdz guess=read ub3lyp\\theory_abbreviat
 ion b3lyp\\0,6\O,0,-0.34738,-0.135686,-0.514463\C,0,-1.212631,-1.11489
 8,-0.36406\C,0,-2.634292,-0.394309,0.67017\C,0,-2.791645,0.783086,-0.0
 62908\C,0,-3.705347,0.853884,-1.238395\Fe,0,1.459955,0.167511,-0.06605
 9\Cl,0,1.793889,2.191772,-0.862014\C,0,-2.008775,1.993243,0.237896\Cl,
 0,2.586424,-1.458817,-1.022863\Cl,0,1.602094,0.118967,2.142499\H,0,-3.
 390912,-1.153423,0.470521\H,0,-2.416066,2.888971,-0.235964\H,0,-1.8506
 43,2.155792,1.306142\H,0,-1.007474,1.805568,-0.195698\H,0,-4.498232,1.
 578566,-1.003585\H,0,-3.182066,1.252697,-2.116981\H,0,-4.172826,-0.100
 457,-1.483609\C,0,-2.170578,-0.314509,2.117233\H,0,-2.846555,0.332152,
 2.688121\H,0,-2.18807,-1.300634,2.583811\H,0,-1.157562,0.084552,2.2075
 8\C,0,-0.761566,-2.275894,0.519009\H,0,-1.575548,-2.973363,0.733554\H,
 0,0.009916,-2.804563,-0.054169\H,0,-0.303574,-1.934108,1.446266\C,0,-1
 .806181,-1.59652,-1.683284\H,0,-1.026077,-2.188743,-2.174707\H,0,-2.68
 3912,-2.234264,-1.544726\H,0,-2.045037,-0.765707,-2.346855\\Version=ES
 64L-G16RevA.03\HF=-3034.3244784\S2=8.761726\S2-1=0.\S2A=8.750043\RMSD=
 6.900e-09\PG=C01 [X(C8H16Cl3Fe1O1)]\\@


 I CLAIM NOT TO HAVE CONTROLLED EVENTS,
 BUT CONFESS PLAINLY THAT EVENTS HAVE CONTROLLED ME.

                                         A. LINCOLN
 Job cpu time:       0 days  0 hours 55 minutes 44.9 seconds.
 Elapsed time:       0 days  0 hours 13 minutes 58.9 seconds.
 File lengths (MBytes):  RWF=    174 Int=      0 D2E=      0 Chk=     13 Scr=      1
 Normal termination of Gaussian 16 at Tue Feb 11 14:14:36 2020.
 Initial command:
 /n/sw/g16_nehalem/g16/l1.exe "/scratch/Gau-10636.inp" -scrdir="/scratch/"
 Entering Link 1 = /n/sw/g16_nehalem/g16/l1.exe PID=     15270.
  
 Copyright (c) 1988,1990,1992,1993,1995,1998,2003,2009,2016,
            Gaussian, Inc.  All Rights Reserved.
  
 This is part of the Gaussian(R) 16 program.  It is based on
 the Gaussian(R) 09 system (copyright 2009, Gaussian, Inc.),
 the Gaussian(R) 03 system (copyright 2003, Gaussian, Inc.),
 the Gaussian(R) 98 system (copyright 1998, Gaussian, Inc.),
 the Gaussian(R) 94 system (copyright 1995, Gaussian, Inc.),
 the Gaussian 92(TM) system (copyright 1992, Gaussian, Inc.),
 the Gaussian 90(TM) system (copyright 1990, Gaussian, Inc.),
 the Gaussian 88(TM) system (copyright 1988, Gaussian, Inc.),
 the Gaussian 86(TM) system (copyright 1986, Carnegie Mellon
 University), and the Gaussian 82(TM) system (copyright 1983,
 Carnegie Mellon University). Gaussian is a federally registered
 trademark of Gaussian, Inc.
  
 This software contains proprietary and confidential information,
 including trade secrets, belonging to Gaussian, Inc.
  
 This software is provided under written license and may be
 used, copied, transmitted, or stored only in accord with that
 written license.
  
 The following legend is applicable only to US Government
 contracts under FAR:
  
                    RESTRICTED RIGHTS LEGEND
  
 Use, reproduction and disclosure by the US Government is
 subject to restrictions as set forth in subparagraphs (a)
 and (c) of the Commercial Computer Software - Restricted
 Rights clause in FAR 52.227-19.
  
 Gaussian, Inc.
 340 Quinnipiac St., Bldg. 40, Wallingford CT 06492
  
  
 ---------------------------------------------------------------
 Warning -- This program may not be used in any manner that
 competes with the business of Gaussian, Inc. or will provide
 assistance to any competitor of Gaussian, Inc.  The licensee
 of this program is prohibited from giving any competitor of
 Gaussian, Inc. access to this program.  By using this program,
 the user acknowledges that Gaussian, Inc. is engaged in the
 business of creating and licensing software in the field of
 computational chemistry and represents and warrants to the
 licensee that it is not a competitor of Gaussian, Inc. and that
 it will not use this program in any manner prohibited above.
 ---------------------------------------------------------------
  

 Cite this work as:
 Gaussian 16, Revision A.03,
 M. J. Frisch, G. W. Trucks, H. B. Schlegel, G. E. Scuseria, 
 M. A. Robb, J. R. Cheeseman, G. Scalmani, V. Barone, 
 G. A. Petersson, H. Nakatsuji, X. Li, M. Caricato, A. V. Marenich, 
 J. Bloino, B. G. Janesko, R. Gomperts, B. Mennucci, H. P. Hratchian, 
 J. V. Ortiz, A. F. Izmaylov, J. L. Sonnenberg, D. Williams-Young, 
 F. Ding, F. Lipparini, F. Egidi, J. Goings, B. Peng, A. Petrone, 
 T. Henderson, D. Ranasinghe, V. G. Zakrzewski, J. Gao, N. Rega, 
 G. Zheng, W. Liang, M. Hada, M. Ehara, K. Toyota, R. Fukuda, 
 J. Hasegawa, M. Ishida, T. Nakajima, Y. Honda, O. Kitao, H. Nakai, 
 T. Vreven, K. Throssell, J. A. Montgomery, Jr., J. E. Peralta, 
 F. Ogliaro, M. J. Bearpark, J. J. Heyd, E. N. Brothers, K. N. Kudin, 
 V. N. Staroverov, T. A. Keith, R. Kobayashi, J. Normand, 
 K. Raghavachari, A. P. Rendell, J. C. Burant, S. S. Iyengar, 
 J. Tomasi, M. Cossi, J. M. Millam, M. Klene, C. Adamo, R. Cammi, 
 J. W. Ochterski, R. L. Martin, K. Morokuma, O. Farkas, 
 J. B. Foresman, and D. J. Fox, Gaussian, Inc., Wallingford CT, 2016.
 
 ******************************************
 Gaussian 16:  ES64L-G16RevA.03 25-Dec-2016
                11-Feb-2020 
 ******************************************
 %chk=checkpoint.chk
 %mem=3GB
 %nprocshared=4
 Will use up to    4 processors via shared memory.
 -------------------------------------------------------------------
 #t pop=none jul-cc-pvdz guess=read ub3lyp empiricaldispersion=gd3bj
 -------------------------------------------------------------------
 ------------------------------
 theory_abbreviation b3lyp_d3bj
 ------------------------------
 Symbolic Z-matrix:
 Charge =  0 Multiplicity = 6
 O                    -0.34738  -0.13569  -0.51446 
 C                    -1.21263  -1.1149   -0.36406 
 C                    -2.63429  -0.39431   0.67017 
 C                    -2.79165   0.78309  -0.06291 
 C                    -3.70535   0.85388  -1.2384 
 Fe                    1.45996   0.16751  -0.06606 
 Cl                    1.79389   2.19177  -0.86201 
 C                    -2.00877   1.99324   0.2379 
 Cl                    2.58642  -1.45882  -1.02286 
 Cl                    1.60209   0.11897   2.1425 
 H                    -3.39091  -1.15342   0.47052 
 H                    -2.41607   2.88897  -0.23596 
 H                    -1.85064   2.15579   1.30614 
 H                    -1.00747   1.80557  -0.1957 
 H                    -4.49823   1.57857  -1.00358 
 H                    -3.18207   1.2527   -2.11698 
 H                    -4.17283  -0.10046  -1.48361 
 C                    -2.17058  -0.31451   2.11723 
 H                    -2.84656   0.33215   2.68812 
 H                    -2.18807  -1.30063   2.58381 
 H                    -1.15756   0.08455   2.20758 
 C                    -0.76157  -2.27589   0.51901 
 H                    -1.57555  -2.97336   0.73355 
 H                     0.00992  -2.80456  -0.05417 
 H                    -0.30357  -1.93411   1.44627 
 C                    -1.80618  -1.59652  -1.68328 
 H                    -1.02608  -2.18874  -2.17471 
 H                    -2.68391  -2.23426  -1.54473 
 H                    -2.04504  -0.76571  -2.34686 
 
                    Distance matrix (angstroms):
                    1          2          3          4          5
     1  O    0.000000
     2  C    1.315347   0.000000
     3  C    2.588476   1.900000   0.000000
     4  C    2.649995   2.487232   1.395859   0.000000
     5  C    3.574810   3.294571   2.519477   1.490514   0.000000
     6  Fe   1.886652   2.979277   4.197682   4.295934   5.340957
     7  Cl   3.181648   4.496797   5.352027   4.863136   5.672143
     8  C    2.803322   3.264466   2.505701   1.472362   2.521097
     9  Cl   3.258274   3.871062   5.590654   5.905190   6.706819
    10  Cl   3.305260   3.965846   4.514219   4.960828   6.335572
    11  H    3.356943   2.333006   1.090224   2.096124   2.654910
    12  H    3.674993   4.182778   3.413009   2.146103   2.609347
    13  H    3.290178   3.727472   2.742550   2.155018   3.407280
    14  H    2.075043   2.932500   2.869795   2.060672   3.044904
    15  H    4.517463   4.296384   3.188724   2.104780   1.099530
    16  H    3.539932   3.543573   3.283427   2.142937   1.097628
    17  H    3.946457   3.323437   2.663118   2.169493   1.090611
    18  C    3.206533   2.777607   1.521641   2.518621   3.870516
    19  H    4.089168   3.752262   2.155209   2.788282   4.053055
    20  H    3.787419   3.110614   2.163923   3.422180   4.642557
    21  H    2.848582   2.838141   2.184873   2.883278   4.354058
    22  C    2.412489   1.526821   2.659006   3.717150   4.642179
    23  H    3.334420   2.188689   2.788633   4.027922   4.803379
    24  H    2.731746   2.108464   3.650456   4.551928   5.346944
    25  H    2.660958   2.185125   2.899233   3.981362   5.152899
    26  C    2.372399   1.524668   2.769445   3.042907   3.131970
    27  H    2.726185   2.113383   3.728227   4.050764   4.160859
    28  H    3.305277   2.193541   2.879872   3.363301   3.267082
    29  H    2.576165   2.178603   3.096385   2.858775   2.570678
                    6          7          8          9         10
     6  Fe   0.000000
     7  Cl   2.200611   0.000000
     8  C    3.931638   3.963517   0.000000
     9  Cl   2.197578   3.739089   5.884053   0.000000
    10  Cl   2.213660   3.655189   4.492082   3.671216   0.000000
    11  H    5.056055   6.312538   3.444695   6.168631   5.417065
    12  H    4.739066   4.312974   1.092135   6.674382   5.429145
    13  H    4.098324   4.240850   1.092052   6.178772   4.095063
    14  H    2.964497   2.905300   1.107172   4.925090   3.888654
    15  H    6.194354   6.323516   2.812584   7.708334   7.017282
    16  H    5.189631   5.216985   2.733215   6.467216   6.505129
    17  H    5.814592   6.422023   3.468469   6.909768   6.822500
    18  C    4.263787   5.556470   2.980572   5.813666   3.797577
    19  H    5.114552   6.131506   3.076475   6.818815   4.487051
    20  H    4.741872   6.318750   4.047850   5.985726   4.071286
    21  H    3.468099   4.751194   2.871815   5.180268   2.760638
    22  C    3.353757   5.328941   4.456466   3.775450   3.736036
    23  H    4.440580   6.370052   5.010044   4.764542   4.652423
    24  H    3.306959   5.366427   5.213383   3.063951   3.988409
    25  H    3.132725   5.172078   4.448815   3.830742   2.886421
    26  C    4.049057   5.290193   4.076564   4.444108   5.403318
    27  H    4.022274   5.372549   4.927003   3.861308   5.556175
    28  H    5.012645   6.332977   4.637388   5.352579   6.123983
    29  H    4.284611   5.068411   3.780748   4.866599   5.851368
                   11         12         13         14         15
    11  H    0.000000
    12  H    4.217866   0.000000
    13  H    3.744542   1.798707   0.000000
    14  H    3.857493   1.777502   1.757588   0.000000
    15  H    3.295893   2.577173   3.560584   3.590209   0.000000
    16  H    3.539519   2.608136   3.782332   2.953954   1.754461
    17  H    2.353455   3.685038   4.273863   3.912940   1.776353
    18  C    2.214645   3.982472   2.619659   3.346220   4.329112
    19  H    2.724153   3.908058   2.495470   3.724189   4.232054
    20  H    2.436082   5.055285   3.700429   4.332201   5.147432
    21  H    3.088334   3.926768   2.362835   2.959758   4.868648
    22  C    2.859327   5.475690   4.630929   4.150856   5.580128
    23  H    2.583973   6.001116   5.168343   4.901469   5.681531
    24  H    3.816699   6.191508   5.469666   4.723179   6.358979
    25  H    3.330646   5.527623   4.374967   4.144478   5.994648
    26  C    2.710458   4.752507   4.797759   3.798032   4.217855
    27  H    3.696155   5.610167   5.627717   4.457728   5.255474
    28  H    2.393593   5.294538   5.300413   4.577179   4.257025
    29  H    3.146317   4.236767   4.681595   3.509340   3.649405
                   16         17         18         19         20
    16  H    0.000000
    17  H    1.792705   0.000000
    18  C    4.626858   4.125637   0.000000
    19  H    4.903976   4.398804   1.095914   0.000000
    20  H    5.441045   4.682263   1.091074   1.763653   0.000000
    21  H    4.915792   4.769793   1.092526   1.773393   1.766985
    22  C    5.025755   4.514388   2.895974   3.981724   2.692481
    23  H    5.344720   4.462651   3.055836   4.045024   2.568396
    24  H    5.559254   5.181778   3.958524   5.051590   3.748584
    25  H    5.580159   5.188213   2.561055   3.625588   2.290551
    26  C    3.193617   2.806970   4.027439   4.889922   4.294355
    27  H    4.061420   3.839347   4.821139   5.772014   4.978198
    28  H    3.568547   2.602640   4.166403   4.952771   4.261730
    29  H    2.328010   2.390656   4.488588   5.215238   4.961660
                   21         22         23         24         25
    21  H    0.000000
    22  C    2.929128   0.000000
    23  H    3.420279   1.093188   0.000000
    24  H    3.850389   1.096909   1.778397   0.000000
    25  H    2.320320   1.089211   1.790510   1.762746   0.000000
    26  C    4.287835   2.530388   2.791056   2.722424   3.487962
    27  H    4.938583   2.708074   3.061949   2.439098   3.701121
    28  H    4.667596   2.820665   2.639185   3.131088   3.834336
    29  H    4.717354   3.484414   3.818781   3.692719   4.334238
                   26         27         28         29
    26  C    0.000000
    27  H    1.095804   0.000000
    28  H    1.093768   1.774081   0.000000
    29  H    1.089784   1.758677   1.791154   0.000000
 Framework group  C1[X(C8H16Cl3FeO)]
 Deg. of freedom    81
                         Standard orientation:                         
 ---------------------------------------------------------------------
 Center     Atomic      Atomic             Coordinates (Angstroms)
 Number     Number       Type             X           Y           Z
 ---------------------------------------------------------------------
      1          8           0       -0.347380   -0.135686   -0.514463
      2          6           0       -1.212631   -1.114898   -0.364060
      3          6           0       -2.634292   -0.394309    0.670170
      4          6           0       -2.791645    0.783086   -0.062908
      5          6           0       -3.705347    0.853884   -1.238395
      6         26           0        1.459955    0.167511   -0.066059
      7         17           0        1.793889    2.191772   -0.862014
      8          6           0       -2.008775    1.993243    0.237896
      9         17           0        2.586424   -1.458817   -1.022863
     10         17           0        1.602094    0.118967    2.142499
     11          1           0       -3.390912   -1.153423    0.470521
     12          1           0       -2.416066    2.888971   -0.235964
     13          1           0       -1.850643    2.155792    1.306142
     14          1           0       -1.007474    1.805568   -0.195698
     15          1           0       -4.498232    1.578566   -1.003585
     16          1           0       -3.182066    1.252697   -2.116981
     17          1           0       -4.172826   -0.100457   -1.483609
     18          6           0       -2.170578   -0.314509    2.117233
     19          1           0       -2.846555    0.332152    2.688121
     20          1           0       -2.188070   -1.300634    2.583811
     21          1           0       -1.157562    0.084552    2.207580
     22          6           0       -0.761566   -2.275894    0.519009
     23          1           0       -1.575548   -2.973363    0.733554
     24          1           0        0.009916   -2.804563   -0.054169
     25          1           0       -0.303574   -1.934108    1.446266
     26          6           0       -1.806181   -1.596520   -1.683284
     27          1           0       -1.026077   -2.188743   -2.174707
     28          1           0       -2.683912   -2.234264   -1.544726
     29          1           0       -2.045037   -0.765707   -2.346855
 ---------------------------------------------------------------------
 Rotational constants (GHZ):           0.5859636           0.3263056           0.3093082
   427 basis functions,  1056 primitive gaussians,   461 cartesian basis functions
    77 alpha electrons       72 beta electrons
       nuclear repulsion energy      1640.8988258646 Hartrees.
 NAtoms=   29 NActive=   29 NUniq=   29 SFac= 1.00D+00 NAtFMM=   60 NAOKFM=F Big=F
 Nuclear repulsion after empirical dispersion term =     1640.8310516415 Hartrees.
 Initial guess from the checkpoint file:  "checkpoint.chk"
 B after Tr=     0.000000    0.000000    0.000000
         Rot=    1.000000    0.000000    0.000000    0.000000 Ang=   0.00 deg.
 Initial guess <Sx>= 0.0000 <Sy>= 0.0000 <Sz>= 2.5000 <S**2>= 8.7617 S= 2.5020
 SCF Done:  E(UB3LYP) =  -3034.39225267     A.U. after    1 cycles
            NFock=  1  Conv=0.47D-08     -V/T= 2.0024
 <Sx>= 0.0000 <Sy>= 0.0000 <Sz>= 2.5000 <S**2>= 8.7617 S= 2.5020
 <L.S>= 0.000000000000E+00
 Annihilation of the first spin contaminant:
 S**2 before annihilation     8.7617,   after     8.7500
 1\1\GINC-HOLY7C06107\SP\UB3LYP\Jul-CC-pVDZ\C8H16Cl3Fe1O1(6)\EKWAN\11-F
 eb-2020\0\\#t pop=none jul-cc-pvdz guess=read ub3lyp empiricaldispersi
 on=gd3bj\\theory_abbreviation b3lyp_d3bj\\0,6\O,0,-0.34738,-0.135686,-
 0.514463\C,0,-1.212631,-1.114898,-0.36406\C,0,-2.634292,-0.394309,0.67
 017\C,0,-2.791645,0.783086,-0.062908\C,0,-3.705347,0.853884,-1.238395\
 Fe,0,1.459955,0.167511,-0.066059\Cl,0,1.793889,2.191772,-0.862014\C,0,
 -2.008775,1.993243,0.237896\Cl,0,2.586424,-1.458817,-1.022863\Cl,0,1.6
 02094,0.118967,2.142499\H,0,-3.390912,-1.153423,0.470521\H,0,-2.416066
 ,2.888971,-0.235964\H,0,-1.850643,2.155792,1.306142\H,0,-1.007474,1.80
 5568,-0.195698\H,0,-4.498232,1.578566,-1.003585\H,0,-3.182066,1.252697
 ,-2.116981\H,0,-4.172826,-0.100457,-1.483609\C,0,-2.170578,-0.314509,2
 .117233\H,0,-2.846555,0.332152,2.688121\H,0,-2.18807,-1.300634,2.58381
 1\H,0,-1.157562,0.084552,2.20758\C,0,-0.761566,-2.275894,0.519009\H,0,
 -1.575548,-2.973363,0.733554\H,0,0.009916,-2.804563,-0.054169\H,0,-0.3
 03574,-1.934108,1.446266\C,0,-1.806181,-1.59652,-1.683284\H,0,-1.02607
 7,-2.188743,-2.174707\H,0,-2.683912,-2.234264,-1.544726\H,0,-2.045037,
 -0.765707,-2.346855\\Version=ES64L-G16RevA.03\HF=-3034.3922527\S2=8.76
 1726\S2-1=0.\S2A=8.750043\RMSD=4.652e-09\PG=C01 [X(C8H16Cl3Fe1O1)]\\@


 You never know when you're making a memory.
                        -- Rickie Lee Jones
 Job cpu time:       0 days  0 hours  4 minutes 40.6 seconds.
 Elapsed time:       0 days  0 hours  1 minutes 10.8 seconds.
 File lengths (MBytes):  RWF=    170 Int=      0 D2E=      0 Chk=     13 Scr=      1
 Normal termination of Gaussian 16 at Tue Feb 11 14:15:48 2020.
 Initial command:
 /n/sw/g16_nehalem/g16/l1.exe "/scratch/Gau-10636.inp" -scrdir="/scratch/"
 Entering Link 1 = /n/sw/g16_nehalem/g16/l1.exe PID=     15582.
  
 Copyright (c) 1988,1990,1992,1993,1995,1998,2003,2009,2016,
            Gaussian, Inc.  All Rights Reserved.
  
 This is part of the Gaussian(R) 16 program.  It is based on
 the Gaussian(R) 09 system (copyright 2009, Gaussian, Inc.),
 the Gaussian(R) 03 system (copyright 2003, Gaussian, Inc.),
 the Gaussian(R) 98 system (copyright 1998, Gaussian, Inc.),
 the Gaussian(R) 94 system (copyright 1995, Gaussian, Inc.),
 the Gaussian 92(TM) system (copyright 1992, Gaussian, Inc.),
 the Gaussian 90(TM) system (copyright 1990, Gaussian, Inc.),
 the Gaussian 88(TM) system (copyright 1988, Gaussian, Inc.),
 the Gaussian 86(TM) system (copyright 1986, Carnegie Mellon
 University), and the Gaussian 82(TM) system (copyright 1983,
 Carnegie Mellon University). Gaussian is a federally registered
 trademark of Gaussian, Inc.
  
 This software contains proprietary and confidential information,
 including trade secrets, belonging to Gaussian, Inc.
  
 This software is provided under written license and may be
 used, copied, transmitted, or stored only in accord with that
 written license.
  
 The following legend is applicable only to US Government
 contracts under FAR:
  
                    RESTRICTED RIGHTS LEGEND
  
 Use, reproduction and disclosure by the US Government is
 subject to restrictions as set forth in subparagraphs (a)
 and (c) of the Commercial Computer Software - Restricted
 Rights clause in FAR 52.227-19.
  
 Gaussian, Inc.
 340 Quinnipiac St., Bldg. 40, Wallingford CT 06492
  
  
 ---------------------------------------------------------------
 Warning -- This program may not be used in any manner that
 competes with the business of Gaussian, Inc. or will provide
 assistance to any competitor of Gaussian, Inc.  The licensee
 of this program is prohibited from giving any competitor of
 Gaussian, Inc. access to this program.  By using this program,
 the user acknowledges that Gaussian, Inc. is engaged in the
 business of creating and licensing software in the field of
 computational chemistry and represents and warrants to the
 licensee that it is not a competitor of Gaussian, Inc. and that
 it will not use this program in any manner prohibited above.
 ---------------------------------------------------------------
  

 Cite this work as:
 Gaussian 16, Revision A.03,
 M. J. Frisch, G. W. Trucks, H. B. Schlegel, G. E. Scuseria, 
 M. A. Robb, J. R. Cheeseman, G. Scalmani, V. Barone, 
 G. A. Petersson, H. Nakatsuji, X. Li, M. Caricato, A. V. Marenich, 
 J. Bloino, B. G. Janesko, R. Gomperts, B. Mennucci, H. P. Hratchian, 
 J. V. Ortiz, A. F. Izmaylov, J. L. Sonnenberg, D. Williams-Young, 
 F. Ding, F. Lipparini, F. Egidi, J. Goings, B. Peng, A. Petrone, 
 T. Henderson, D. Ranasinghe, V. G. Zakrzewski, J. Gao, N. Rega, 
 G. Zheng, W. Liang, M. Hada, M. Ehara, K. Toyota, R. Fukuda, 
 J. Hasegawa, M. Ishida, T. Nakajima, Y. Honda, O. Kitao, H. Nakai, 
 T. Vreven, K. Throssell, J. A. Montgomery, Jr., J. E. Peralta, 
 F. Ogliaro, M. J. Bearpark, J. J. Heyd, E. N. Brothers, K. N. Kudin, 
 V. N. Staroverov, T. A. Keith, R. Kobayashi, J. Normand, 
 K. Raghavachari, A. P. Rendell, J. C. Burant, S. S. Iyengar, 
 J. Tomasi, M. Cossi, J. M. Millam, M. Klene, C. Adamo, R. Cammi, 
 J. W. Ochterski, R. L. Martin, K. Morokuma, O. Farkas, 
 J. B. Foresman, and D. J. Fox, Gaussian, Inc., Wallingford CT, 2016.
 
 ******************************************
 Gaussian 16:  ES64L-G16RevA.03 25-Dec-2016
                11-Feb-2020 
 ******************************************
 %chk=checkpoint.chk
 %mem=3GB
 %nprocshared=4
 Will use up to    4 processors via shared memory.
 ----------------------------------------
 #t pop=none jul-cc-pvdz guess=read ub97d
 ----------------------------------------
 ------------------------
 theory_abbreviation b97d
 ------------------------
 Symbolic Z-matrix:
 Charge =  0 Multiplicity = 6
 O                    -0.34738  -0.13569  -0.51446 
 C                    -1.21263  -1.1149   -0.36406 
 C                    -2.63429  -0.39431   0.67017 
 C                    -2.79165   0.78309  -0.06291 
 C                    -3.70535   0.85388  -1.2384 
 Fe                    1.45996   0.16751  -0.06606 
 Cl                    1.79389   2.19177  -0.86201 
 C                    -2.00877   1.99324   0.2379 
 Cl                    2.58642  -1.45882  -1.02286 
 Cl                    1.60209   0.11897   2.1425 
 H                    -3.39091  -1.15342   0.47052 
 H                    -2.41607   2.88897  -0.23596 
 H                    -1.85064   2.15579   1.30614 
 H                    -1.00747   1.80557  -0.1957 
 H                    -4.49823   1.57857  -1.00358 
 H                    -3.18207   1.2527   -2.11698 
 H                    -4.17283  -0.10046  -1.48361 
 C                    -2.17058  -0.31451   2.11723 
 H                    -2.84656   0.33215   2.68812 
 H                    -2.18807  -1.30063   2.58381 
 H                    -1.15756   0.08455   2.20758 
 C                    -0.76157  -2.27589   0.51901 
 H                    -1.57555  -2.97336   0.73355 
 H                     0.00992  -2.80456  -0.05417 
 H                    -0.30357  -1.93411   1.44627 
 C                    -1.80618  -1.59652  -1.68328 
 H                    -1.02608  -2.18874  -2.17471 
 H                    -2.68391  -2.23426  -1.54473 
 H                    -2.04504  -0.76571  -2.34686 
 
                    Distance matrix (angstroms):
                    1          2          3          4          5
     1  O    0.000000
     2  C    1.315347   0.000000
     3  C    2.588476   1.900000   0.000000
     4  C    2.649995   2.487232   1.395859   0.000000
     5  C    3.574810   3.294571   2.519477   1.490514   0.000000
     6  Fe   1.886652   2.979277   4.197682   4.295934   5.340957
     7  Cl   3.181648   4.496797   5.352027   4.863136   5.672143
     8  C    2.803322   3.264466   2.505701   1.472362   2.521097
     9  Cl   3.258274   3.871062   5.590654   5.905190   6.706819
    10  Cl   3.305260   3.965846   4.514219   4.960828   6.335572
    11  H    3.356943   2.333006   1.090224   2.096124   2.654910
    12  H    3.674993   4.182778   3.413009   2.146103   2.609347
    13  H    3.290178   3.727472   2.742550   2.155018   3.407280
    14  H    2.075043   2.932500   2.869795   2.060672   3.044904
    15  H    4.517463   4.296384   3.188724   2.104780   1.099530
    16  H    3.539932   3.543573   3.283427   2.142937   1.097628
    17  H    3.946457   3.323437   2.663118   2.169493   1.090611
    18  C    3.206533   2.777607   1.521641   2.518621   3.870516
    19  H    4.089168   3.752262   2.155209   2.788282   4.053055
    20  H    3.787419   3.110614   2.163923   3.422180   4.642557
    21  H    2.848582   2.838141   2.184873   2.883278   4.354058
    22  C    2.412489   1.526821   2.659006   3.717150   4.642179
    23  H    3.334420   2.188689   2.788633   4.027922   4.803379
    24  H    2.731746   2.108464   3.650456   4.551928   5.346944
    25  H    2.660958   2.185125   2.899233   3.981362   5.152899
    26  C    2.372399   1.524668   2.769445   3.042907   3.131970
    27  H    2.726185   2.113383   3.728227   4.050764   4.160859
    28  H    3.305277   2.193541   2.879872   3.363301   3.267082
    29  H    2.576165   2.178603   3.096385   2.858775   2.570678
                    6          7          8          9         10
     6  Fe   0.000000
     7  Cl   2.200611   0.000000
     8  C    3.931638   3.963517   0.000000
     9  Cl   2.197578   3.739089   5.884053   0.000000
    10  Cl   2.213660   3.655189   4.492082   3.671216   0.000000
    11  H    5.056055   6.312538   3.444695   6.168631   5.417065
    12  H    4.739066   4.312974   1.092135   6.674382   5.429145
    13  H    4.098324   4.240850   1.092052   6.178772   4.095063
    14  H    2.964497   2.905300   1.107172   4.925090   3.888654
    15  H    6.194354   6.323516   2.812584   7.708334   7.017282
    16  H    5.189631   5.216985   2.733215   6.467216   6.505129
    17  H    5.814592   6.422023   3.468469   6.909768   6.822500
    18  C    4.263787   5.556470   2.980572   5.813666   3.797577
    19  H    5.114552   6.131506   3.076475   6.818815   4.487051
    20  H    4.741872   6.318750   4.047850   5.985726   4.071286
    21  H    3.468099   4.751194   2.871815   5.180268   2.760638
    22  C    3.353757   5.328941   4.456466   3.775450   3.736036
    23  H    4.440580   6.370052   5.010044   4.764542   4.652423
    24  H    3.306959   5.366427   5.213383   3.063951   3.988409
    25  H    3.132725   5.172078   4.448815   3.830742   2.886421
    26  C    4.049057   5.290193   4.076564   4.444108   5.403318
    27  H    4.022274   5.372549   4.927003   3.861308   5.556175
    28  H    5.012645   6.332977   4.637388   5.352579   6.123983
    29  H    4.284611   5.068411   3.780748   4.866599   5.851368
                   11         12         13         14         15
    11  H    0.000000
    12  H    4.217866   0.000000
    13  H    3.744542   1.798707   0.000000
    14  H    3.857493   1.777502   1.757588   0.000000
    15  H    3.295893   2.577173   3.560584   3.590209   0.000000
    16  H    3.539519   2.608136   3.782332   2.953954   1.754461
    17  H    2.353455   3.685038   4.273863   3.912940   1.776353
    18  C    2.214645   3.982472   2.619659   3.346220   4.329112
    19  H    2.724153   3.908058   2.495470   3.724189   4.232054
    20  H    2.436082   5.055285   3.700429   4.332201   5.147432
    21  H    3.088334   3.926768   2.362835   2.959758   4.868648
    22  C    2.859327   5.475690   4.630929   4.150856   5.580128
    23  H    2.583973   6.001116   5.168343   4.901469   5.681531
    24  H    3.816699   6.191508   5.469666   4.723179   6.358979
    25  H    3.330646   5.527623   4.374967   4.144478   5.994648
    26  C    2.710458   4.752507   4.797759   3.798032   4.217855
    27  H    3.696155   5.610167   5.627717   4.457728   5.255474
    28  H    2.393593   5.294538   5.300413   4.577179   4.257025
    29  H    3.146317   4.236767   4.681595   3.509340   3.649405
                   16         17         18         19         20
    16  H    0.000000
    17  H    1.792705   0.000000
    18  C    4.626858   4.125637   0.000000
    19  H    4.903976   4.398804   1.095914   0.000000
    20  H    5.441045   4.682263   1.091074   1.763653   0.000000
    21  H    4.915792   4.769793   1.092526   1.773393   1.766985
    22  C    5.025755   4.514388   2.895974   3.981724   2.692481
    23  H    5.344720   4.462651   3.055836   4.045024   2.568396
    24  H    5.559254   5.181778   3.958524   5.051590   3.748584
    25  H    5.580159   5.188213   2.561055   3.625588   2.290551
    26  C    3.193617   2.806970   4.027439   4.889922   4.294355
    27  H    4.061420   3.839347   4.821139   5.772014   4.978198
[...]
 Rotational constants (GHZ):           0.5859636           0.3263056           0.3093082
   427 basis functions,  1056 primitive gaussians,   461 cartesian basis functions
    77 alpha electrons       72 beta electrons
       nuclear repulsion energy      1640.8988258646 Hartrees.
 NAtoms=   29 NActive=   29 NUniq=   29 SFac= 1.00D+00 NAtFMM=   60 NAOKFM=F Big=F
 Nuclear repulsion after empirical dispersion term =     1640.8963954393 Hartrees.
 Initial guess from the checkpoint file:  "checkpoint.chk"
 B after Tr=     0.000000    0.000000    0.000000
         Rot=    1.000000    0.000000    0.000000    0.000000 Ang=   0.00 deg.
 Initial guess <Sx>= 0.0000 <Sy>= 0.0000 <Sz>= 2.5000 <S**2>= 8.7615 S= 2.5019
 SCF Done:  E(UM06L) =  -3034.19090909     A.U. after   17 cycles
            NFock= 17  Conv=0.81D-08     -V/T= 2.0020
 <Sx>= 0.0000 <Sy>= 0.0000 <Sz>= 2.5000 <S**2>= 8.7617 S= 2.5020
 <L.S>= 0.000000000000E+00
 Annihilation of the first spin contaminant:
 S**2 before annihilation     8.7617,   after     8.7500
 1\1\GINC-HOLY7C06107\SP\UM06L\Jul-CC-pVDZ\C8H16Cl3Fe1O1(6)\EKWAN\11-Fe
 b-2020\0\\#t pop=none jul-cc-pvdz guess=read um06l empiricaldispersion
 =gd3\\theory_abbreviation m06l_d3\\0,6\O,0,-0.34738,-0.135686,-0.51446
 3\C,0,-1.212631,-1.114898,-0.36406\C,0,-2.634292,-0.394309,0.67017\C,0
 ,-2.791645,0.783086,-0.062908\C,0,-3.705347,0.853884,-1.238395\Fe,0,1.
 459955,0.167511,-0.066059\Cl,0,1.793889,2.191772,-0.862014\C,0,-2.0087
 75,1.993243,0.237896\Cl,0,2.586424,-1.458817,-1.022863\Cl,0,1.602094,0
 .118967,2.142499\H,0,-3.390912,-1.153423,0.470521\H,0,-2.416066,2.8889
 71,-0.235964\H,0,-1.850643,2.155792,1.306142\H,0,-1.007474,1.805568,-0
 .195698\H,0,-4.498232,1.578566,-1.003585\H,0,-3.182066,1.252697,-2.116
 981\H,0,-4.172826,-0.100457,-1.483609\C,0,-2.170578,-0.314509,2.117233
 \H,0,-2.846555,0.332152,2.688121\H,0,-2.18807,-1.300634,2.583811\H,0,-
 1.157562,0.084552,2.20758\C,0,-0.761566,-2.275894,0.519009\H,0,-1.5755
 48,-2.973363,0.733554\H,0,0.009916,-2.804563,-0.054169\H,0,-0.303574,-
 1.934108,1.446266\C,0,-1.806181,-1.59652,-1.683284\H,0,-1.026077,-2.18
 8743,-2.174707\H,0,-2.683912,-2.234264,-1.544726\H,0,-2.045037,-0.7657
 07,-2.346855\\Version=ES64L-G16RevA.03\HF=-3034.1909091\S2=8.76171\S2-
 1=0.\S2A=8.750044\RMSD=8.095e-09\PG=C01 [X(C8H16Cl3Fe1O1)]\\@


 HAPPINESS IS NOT HAVING WHAT YOU WANT --
 HAPPINESS IS WANTING WHAT YOU HAVE!

              -- FROM MRS. SEVERN'S DESK
 Job cpu time:       0 days  1 hours 14 minutes 12.7 seconds.
 Elapsed time:       0 days  0 hours 18 minutes 36.3 seconds.
 File lengths (MBytes):  RWF=    174 Int=      0 D2E=      0 Chk=     13 Scr=      1
 Normal termination of Gaussian 16 at Tue Feb 11 23:48:47 2020.
 Initial command:
 /n/sw/g16_nehalem/g16/l1.exe "/scratch/Gau-10636.inp" -scrdir="/scratch/"
 Entering Link 1 = /n/sw/g16_nehalem/g16/l1.exe PID=     72239.
  
 Copyright (c) 1988,1990,1992,1993,1995,1998,2003,2009,2016,
            Gaussian, Inc.  All Rights Reserved.
  
 This is part of the Gaussian(R) 16 program.  It is based on
 the Gaussian(R) 09 system (copyright 2009, Gaussian, Inc.),
 the Gaussian(R) 03 system (copyright 2003, Gaussian, Inc.),
 the Gaussian(R) 98 system (copyright 1998, Gaussian, Inc.),
 the Gaussian(R) 94 system (copyright 1995, Gaussian, Inc.),
 the Gaussian 92(TM) system (copyright 1992, Gaussian, Inc.),
 the Gaussian 90(TM) system (copyright 1990, Gaussian, Inc.),
 the Gaussian 88(TM) system (copyright 1988, Gaussian, Inc.),
 the Gaussian 86(TM) system (copyright 1986, Carnegie Mellon
 University), and the Gaussian 82(TM) system (copyright 1983,
 Carnegie Mellon University). Gaussian is a federally registered
 trademark of Gaussian, Inc.
  
 This software contains proprietary and confidential information,
 including trade secrets, belonging to Gaussian, Inc.
  
 This software is provided under written license and may be
 used, copied, transmitted, or stored only in accord with that
 written license.
  
 The following legend is applicable only to US Government
 contracts under FAR:
  
                    RESTRICTED RIGHTS LEGEND
  
 Use, reproduction and disclosure by the US Government is
 subject to restrictions as set forth in subparagraphs (a)
 and (c) of the Commercial Computer Software - Restricted
 Rights clause in FAR 52.227-19.
  
 Gaussian, Inc.
 340 Quinnipiac St., Bldg. 40, Wallingford CT 06492
  
  
 ---------------------------------------------------------------
 Warning -- This program may not be used in any manner that
 competes with the business of Gaussian, Inc. or will provide
 assistance to any competitor of Gaussian, Inc.  The licensee
 of this program is prohibited from giving any competitor of
 Gaussian, Inc. access to this program.  By using this program,
 the user acknowledges that Gaussian, Inc. is engaged in the
 business of creating and licensing software in the field of
 computational chemistry and represents and warrants to the
 licensee that it is not a competitor of Gaussian, Inc. and that
 it will not use this program in any manner prohibited above.
 ---------------------------------------------------------------
  

 Cite this work as:
 Gaussian 16, Revision A.03,
 M. J. Frisch, G. W. Trucks, H. B. Schlegel, G. E. Scuseria, 
 M. A. Robb, J. R. Cheeseman, G. Scalmani, V. Barone, 
 G. A. Petersson, H. Nakatsuji, X. Li, M. Caricato, A. V. Marenich, 
 J. Bloino, B. G. Janesko, R. Gomperts, B. Mennucci, H. P. Hratchian, 
 J. V. Ortiz, A. F. Izmaylov, J. L. Sonnenberg, D. Williams-Young, 
 F. Ding, F. Lipparini, F. Egidi, J. Goings, B. Peng, A. Petrone, 
 T. Henderson, D. Ranasinghe, V. G. Zakrzewski, J. Gao, N. Rega, 
 G. Zheng, W. Liang, M. Hada, M. Ehara, K. Toyota, R. Fukuda, 
 J. Hasegawa, M. Ishida, T. Nakajima, Y. Honda, O. Kitao, H. Nakai, 
 T. Vreven, K. Throssell, J. A. Montgomery, Jr., J. E. Peralta, 
 F. Ogliaro, M. J. Bearpark, J. J. Heyd, E. N. Brothers, K. N. Kudin, 
 V. N. Staroverov, T. A. Keith, R. Kobayashi, J. Normand, 
 K. Raghavachari, A. P. Rendell, J. C. Burant, S. S. Iyengar, 
 J. Tomasi, M. Cossi, J. M. Millam, M. Klene, C. Adamo, R. Cammi, 
 J. W. Ochterski, R. L. Martin, K. Morokuma, O. Farkas, 
 J. B. Foresman, and D. J. Fox, Gaussian, Inc., Wallingford CT, 2016.
 
 ******************************************
 Gaussian 16:  ES64L-G16RevA.03 25-Dec-2016
                11-Feb-2020 
 ******************************************
 %chk=checkpoint.chk
 %mem=3GB
 %nprocshared=4
 Will use up to    4 processors via shared memory.
 -------------------------------------------------------------------
 #t pop=none jul-cc-pvdz guess=read ub97d3 empiricaldispersion=gd3bj
 -------------------------------------------------------------------
 ------------------------------
 theory_abbreviation b97d3_d3bj
 ------------------------------
 Symbolic Z-matrix:
 Charge =  0 Multiplicity = 6
 O                    -0.34738  -0.13569  -0.51446 
 C                    -1.21263  -1.1149   -0.36406 
 C                    -2.63429  -0.39431   0.67017 
 C                    -2.79165   0.78309  -0.06291 
 C                    -3.70535   0.85388  -1.2384 
 Fe                    1.45996   0.16751  -0.06606 
 Cl                    1.79389   2.19177  -0.86201 
 C                    -2.00877   1.99324   0.2379 
 Cl                    2.58642  -1.45882  -1.02286 
 Cl                    1.60209   0.11897   2.1425 
 H                    -3.39091  -1.15342   0.47052 
 H                    -2.41607   2.88897  -0.23596 
 H                    -1.85064   2.15579   1.30614 
 H                    -1.00747   1.80557  -0.1957 
 H                    -4.49823   1.57857  -1.00358 
 H                    -3.18207   1.2527   -2.11698 
 H                    -4.17283  -0.10046  -1.48361 
 C                    -2.17058  -0.31451   2.11723 
 H                    -2.84656   0.33215   2.68812 
 H                    -2.18807  -1.30063   2.58381 
 H                    -1.15756   0.08455   2.20758 
 C                    -0.76157  -2.27589   0.51901 
 H                    -1.57555  -2.97336   0.73355 
 H                     0.00992  -2.80456  -0.05417 
 H                    -0.30357  -1.93411   1.44627 
 C                    -1.80618  -1.59652  -1.68328 
 H                    -1.02608  -2.18874  -2.17471 
 H                    -2.68391  -2.23426  -1.54473 
 H                    -2.04504  -0.76571  -2.34686 
 
                    Distance matrix (angstroms):
                    1          2          3          4          5
     1  O    0.000000
     2  C    1.315347   0.000000
     3  C    2.588476   1.900000   0.000000
     4  C    2.649995   2.487232   1.395859   0.000000
     5  C    3.574810   3.294571   2.519477   1.490514   0.000000
     6  Fe   1.886652   2.979277   4.197682   4.295934   5.340957
     7  Cl   3.181648   4.496797   5.352027   4.863136   5.672143
     8  C    2.803322   3.264466   2.505701   1.472362   2.521097
     9  Cl   3.258274   3.871062   5.590654   5.905190   6.706819
    10  Cl   3.305260   3.965846   4.514219   4.960828   6.335572
    11  H    3.356943   2.333006   1.090224   2.096124   2.654910
    12  H    3.674993   4.182778   3.413009   2.146103   2.609347
    13  H    3.290178   3.727472   2.742550   2.155018   3.407280
    14  H    2.075043   2.932500   2.869795   2.060672   3.044904
    15  H    4.517463   4.296384   3.188724   2.104780   1.099530
    16  H    3.539932   3.543573   3.283427   2.142937   1.097628
    17  H    3.946457   3.323437   2.663118   2.169493   1.090611
    18  C    3.206533   2.777607   1.521641   2.518621   3.870516
    19  H    4.089168   3.752262   2.155209   2.788282   4.053055
    20  H    3.787419   3.110614   2.163923   3.422180   4.642557
    21  H    2.848582   2.838141   2.184873   2.883278   4.354058
    22  C    2.412489   1.526821   2.659006   3.717150   4.642179
    23  H    3.334420   2.188689   2.788633   4.027922   4.803379
    24  H    2.731746   2.108464   3.650456   4.551928   5.346944
    25  H    2.660958   2.185125   2.899233   3.981362   5.152899
    26  C    2.372399   1.524668   2.769445   3.042907   3.131970
    27  H    2.726185   2.113383   3.728227   4.050764   4.160859
    28  H    3.305277   2.193541   2.879872   3.363301   3.267082
    29  H    2.576165   2.178603   3.096385   2.858775   2.570678
                    6          7          8          9         10
     6  Fe   0.000000
     7  Cl   2.200611   0.000000
     8  C    3.931638   3.963517   0.000000
     9  Cl   2.197578   3.739089   5.884053   0.000000
    10  Cl   2.213660   3.655189   4.492082   3.671216   0.000000
    11  H    5.056055   6.312538   3.444695   6.168631   5.417065
    12  H    4.739066   4.312974   1.092135   6.674382   5.429145
    13  H    4.098324   4.240850   1.092052   6.178772   4.095063
    14  H    2.964497   2.905300   1.107172   4.925090   3.888654
    15  H    6.194354   6.323516   2.812584   7.708334   7.017282
    16  H    5.189631   5.216985   2.733215   6.467216   6.505129
    17  H    5.814592   6.422023   3.468469   6.909768   6.822500
    18  C    4.263787   5.556470   2.980572   5.813666   3.797577
    19  H    5.114552   6.131506   3.076475   6.818815   4.487051
    20  H    4.741872   6.318750   4.047850   5.985726   4.071286
    21  H    3.468099   4.751194   2.871815   5.180268   2.760638
    22  C    3.353757   5.328941   4.456466   3.775450   3.736036
    23  H    4.440580   6.370052   5.010044   4.764542   4.652423
    24  H    3.306959   5.366427   5.213383   3.063951   3.988409
    25  H    3.132725   5.172078   4.448815   3.830742   2.886421
    26  C    4.049057   5.290193   4.076564   4.444108   5.403318
    27  H    4.022274   5.372549   4.927003   3.861308   5.556175
    28  H    5.012645   6.332977   4.637388   5.352579   6.123983
    29  H    4.284611   5.068411   3.780748   4.866599   5.851368
                   11         12         13         14         15
    11  H    0.000000
    12  H    4.217866   0.000000
    13  H    3.744542   1.798707   0.000000
    14  H    3.857493   1.777502   1.757588   0.000000
    15  H    3.295893   2.577173   3.560584   3.590209   0.000000
    16  H    3.539519   2.608136   3.782332   2.953954   1.754461
    17  H    2.353455   3.685038   4.273863   3.912940   1.776353
    18  C    2.214645   3.982472   2.619659   3.346220   4.329112
    19  H    2.724153   3.908058   2.495470   3.724189   4.232054
    20  H    2.436082   5.055285   3.700429   4.332201   5.147432
    21  H    3.088334   3.926768   2.362835   2.959758   4.868648
    22  C    2.859327   5.475690   4.630929   4.150856   5.580128
    23  H    2.583973   6.001116   5.168343   4.901469   5.681531
    24  H    3.816699   6.191508   5.469666   4.723179   6.358979
    25  H    3.330646   5.527623   4.374967   4.144478   5.994648
    26  C    2.710458   4.752507   4.797759   3.798032   4.217855
    27  H    3.696155   5.610167   5.627717   4.457728   5.255474
    28  H    2.393593   5.294538   5.300413   4.577179   4.257025
    29  H    3.146317   4.236767   4.681595   3.509340   3.649405
                   16         17         18         19         20
    16  H    0.000000
    17  H    1.792705   0.000000
    18  C    4.626858   4.125637   0.000000
    19  H    4.903976   4.398804   1.095914   0.000000
    20  H    5.441045   4.682263   1.091074   1.763653   0.000000
    21  H    4.915792   4.769793   1.092526   1.773393   1.766985
    22  C    5.025755   4.514388   2.895974   3.981724   2.692481
    23  H    5.344720   4.462651   3.055836   4.045024   2.568396
    24  H    5.559254   5.181778   3.958524   5.051590   3.748584
    25  H    5.580159   5.188213   2.561055   3.625588   2.290551
    26  C    3.193617   2.806970   4.027439   4.889922   4.294355
    27  H    4.061420   3.839347   4.821139   5.772014   4.978198
    28  H    3.568547   2.602640   4.166403   4.952771   4.261730
    29  H    2.328010   2.390656   4.488588   5.215238   4.961660
                   21         22         23         24         25
    21  H    0.000000
    22  C    2.929128   0.000000
    23  H    3.420279   1.093188   0.000000
    24  H    3.850389   1.096909   1.778397   0.000000
    25  H    2.320320   1.089211   1.790510   1.762746   0.000000
    26  C    4.287835   2.530388   2.791056   2.722424   3.487962
    27  H    4.938583   2.708074   3.061949   2.439098   3.701121
    28  H    4.667596   2.820665   2.639185   3.131088   3.834336
    29  H    4.717354   3.484414   3.818781   3.692719   4.334238
                   26         27         28         29
    26  C    0.000000
    27  H    1.095804   0.000000
    28  H    1.093768   1.774081   0.000000
    29  H    1.089784   1.758677   1.791154   0.000000
 Framework group  C1[X(C8H16Cl3FeO)]
 Deg. of freedom    81
                         Standard orientation:                         
 ---------------------------------------------------------------------
 Center     Atomic      Atomic             Coordinates (Angstroms)
 Number     Number       Type             X           Y           Z
 ---------------------------------------------------------------------
      1          8           0       -0.347380   -0.135686   -0.514463
      2          6           0       -1.212631   -1.114898   -0.364060
      3          6           0       -2.634292   -0.394309    0.670170
      4          6           0       -2.791645    0.783086   -0.062908
      5          6           0       -3.705347    0.853884   -1.238395
      6         26           0        1.459955    0.167511   -0.066059
      7         17           0        1.793889    2.191772   -0.862014
      8          6           0       -2.008775    1.993243    0.237896
      9         17           0        2.586424   -1.458817   -1.022863
     10         17           0        1.602094    0.118967    2.142499
     11          1           0       -3.390912   -1.153423    0.470521
     12          1           0       -2.416066    2.888971   -0.235964
     13          1           0       -1.850643    2.155792    1.306142
     14          1           0       -1.007474    1.805568   -0.195698
     15          1           0       -4.498232    1.578566   -1.003585
     16          1           0       -3.182066    1.252697   -2.116981
     17          1           0       -4.172826   -0.100457   -1.483609
     18          6           0       -2.170578   -0.314509    2.117233
     19          1           0       -2.846555    0.332152    2.688121
     20          1           0       -2.188070   -1.300634    2.583811
     21          1           0       -1.157562    0.084552    2.207580
     22          6           0       -0.761566   -2.275894    0.519009
     23          1           0       -1.575548   -2.973363    0.733554
     24          1           0        0.009916   -2.804563   -0.054169
     25          1           0       -0.303574   -1.934108    1.446266
     26          6           0       -1.806181   -1.596520   -1.683284
     27          1           0       -1.026077   -2.188743   -2.174707
     28          1           0       -2.683912   -2.234264   -1.544726
     29          1           0       -2.045037   -0.765707   -2.346855
 ---------------------------------------------------------------------
 Rotational constants (GHZ):           0.5859636           0.3263056           0.3093082
   427 basis functions,  1056 primitive gaussians,   461 cartesian basis functions
    77 alpha electrons       72 beta electrons
       nuclear repulsion energy      1640.8988258646 Hartrees.
 NAtoms=   29 NActive=   29 NUniq=   29 SFac= 1.00D+00 NAtFMM=   60 NAOKFM=F Big=F
 Nuclear repulsion after empirical dispersion term =     1640.7986798304 Hartrees.
 Initial guess from the checkpoint file:  "checkpoint.chk"
 B after Tr=     0.000000    0.000000    0.000000
         Rot=    1.000000    0.000000    0.000000    0.000000 Ang=   0.00 deg.
 Initial guess <Sx>= 0.0000 <Sy>= 0.0000 <Sz>= 2.5000 <S**2>= 8.7617 S= 2.5020
 EnCoef did     4 forward-backward iterations
 SCF Done:  E(UB97D3) =  -3034.61145614     A.U. after   16 cycles
            NFock= 16  Conv=0.56D-08     -V/T= 2.0019
 <Sx>= 0.0000 <Sy>= 0.0000 <Sz>= 2.5000 <S**2>= 8.7599 S= 2.5016
 <L.S>= 0.000000000000E+00
 Annihilation of the first spin contaminant:
 S**2 before annihilation     8.7599,   after     8.7500
 1\1\GINC-HOLY7C06107\SP\UB97D3\Jul-CC-pVDZ\C8H16Cl3Fe1O1(6)\EKWAN\12-F
 eb-2020\0\\#t pop=none jul-cc-pvdz guess=read ub97d3 empiricaldispersi
 on=gd3bj\\theory_abbreviation b97d3_d3bj\\0,6\O,0,-0.34738,-0.135686,-
 0.514463\C,0,-1.212631,-1.114898,-0.36406\C,0,-2.634292,-0.394309,0.67
 017\C,0,-2.791645,0.783086,-0.062908\C,0,-3.705347,0.853884,-1.238395\
 Fe,0,1.459955,0.167511,-0.066059\Cl,0,1.793889,2.191772,-0.862014\C,0,
 -2.008775,1.993243,0.237896\Cl,0,2.586424,-1.458817,-1.022863\Cl,0,1.6
 02094,0.118967,2.142499\H,0,-3.390912,-1.153423,0.470521\H,0,-2.416066
 ,2.888971,-0.235964\H,0,-1.850643,2.155792,1.306142\H,0,-1.007474,1.80
 5568,-0.195698\H,0,-4.498232,1.578566,-1.003585\H,0,-3.182066,1.252697
 ,-2.116981\H,0,-4.172826,-0.100457,-1.483609\C,0,-2.170578,-0.314509,2
 .117233\H,0,-2.846555,0.332152,2.688121\H,0,-2.18807,-1.300634,2.58381
 1\H,0,-1.157562,0.084552,2.20758\C,0,-0.761566,-2.275894,0.519009\H,0,
 -1.575548,-2.973363,0.733554\H,0,0.009916,-2.804563,-0.054169\H,0,-0.3
 03574,-1.934108,1.446266\C,0,-1.806181,-1.59652,-1.683284\H,0,-1.02607
 7,-2.188743,-2.174707\H,0,-2.683912,-2.234264,-1.544726\H,0,-2.045037,
 -0.765707,-2.346855\\Version=ES64L-G16RevA.03\HF=-3034.6114561\S2=8.75
 9852\S2-1=0.\S2A=8.750031\RMSD=5.649e-09\PG=C01 [X(C8H16Cl3Fe1O1)]\\@


 Ideas are like rabbits. You get a couple and learn
 how to handle them, and pretty soon you have a dozen.
                                    -- John Steinbeck
 Job cpu time:       0 days  0 hours 51 minutes 56.3 seconds.
 Elapsed time:       0 days  0 hours 13 minutes 11.3 seconds.
 File lengths (MBytes):  RWF=    174 Int=      0 D2E=      0 Chk=     13 Scr=      1
 Normal termination of Gaussian 16 at Wed Feb 12 00:01:59 2020.
