 Entering Gaussian System, Link 0=g16
 Input=simple-grid-230-300-b3lyp_d3bj-631gd-gas-singlepoint-DFT-juldz2-gas.gjf
 Output=simple-grid-230-300-b3lyp_d3bj-631gd-gas-singlepoint-DFT-juldz2-gas.out
 Initial command:
 /n/sw/g16_nehalem/g16/l1.exe "/scratch/Gau-411189.inp" -scrdir="/scratch/"
 Entering Link 1 = /n/sw/g16_nehalem/g16/l1.exe PID=    411200.
  
 Copyright (c) 1988,1990,1992,1993,1995,1998,2003,2009,2016,
            Gaussian, Inc.  All Rights Reserved.
  
 This is part of the Gaussian(R) 16 program.  It is based on
 the Gaussian(R) 09 system (copyright 2009, Gaussian, Inc.),
 the Gaussian(R) 03 system (copyright 2003, Gaussian, Inc.),
 the Gaussian(R) 98 system (copyright 1998, Gaussian, Inc.),
 the Gaussian(R) 94 system (copyright 1995, Gaussian, Inc.),
 the Gaussian 92(TM) system (copyright 1992, Gaussian, Inc.),
 the Gaussian 90(TM) system (copyright 1990, Gaussian, Inc.),
 the Gaussian 88(TM) system (copyright 1988, Gaussian, Inc.),
 the Gaussian 86(TM) system (copyright 1986, Carnegie Mellon
 University), and the Gaussian 82(TM) system (copyright 1983,
 Carnegie Mellon University). Gaussian is a federally registered
 trademark of Gaussian, Inc.
  
 This software contains proprietary and confidential information,
 including trade secrets, belonging to Gaussian, Inc.
  
 This software is provided under written license and may be
 used, copied, transmitted, or stored only in accord with that
 written license.
  
 The following legend is applicable only to US Government
 contracts under FAR:
  
                    RESTRICTED RIGHTS LEGEND
  
 Use, reproduction and disclosure by the US Government is
 subject to restrictions as set forth in subparagraphs (a)
 and (c) of the Commercial Computer Software - Restricted
 Rights clause in FAR 52.227-19.
  
 Gaussian, Inc.
 340 Quinnipiac St., Bldg. 40, Wallingford CT 06492
  
  
 ---------------------------------------------------------------
 Warning -- This program may not be used in any manner that
 competes with the business of Gaussian, Inc. or will provide
 assistance to any competitor of Gaussian, Inc.  The licensee
 of this program is prohibited from giving any competitor of
 Gaussian, Inc. access to this program.  By using this program,
 the user acknowledges that Gaussian, Inc. is engaged in the
 business of creating and licensing software in the field of
 computational chemistry and represents and warrants to the
 licensee that it is not a competitor of Gaussian, Inc. and that
 it will not use this program in any manner prohibited above.
 ---------------------------------------------------------------
  

 Cite this work as:
 Gaussian 16, Revision A.03,
 M. J. Frisch, G. W. Trucks, H. B. Schlegel, G. E. Scuseria, 
 M. A. Robb, J. R. Cheeseman, G. Scalmani, V. Barone, 
 G. A. Petersson, H. Nakatsuji, X. Li, M. Caricato, A. V. Marenich, 
 J. Bloino, B. G. Janesko, R. Gomperts, B. Mennucci, H. P. Hratchian, 
 J. V. Ortiz, A. F. Izmaylov, J. L. Sonnenberg, D. Williams-Young, 
 F. Ding, F. Lipparini, F. Egidi, J. Goings, B. Peng, A. Petrone, 
 T. Henderson, D. Ranasinghe, V. G. Zakrzewski, J. Gao, N. Rega, 
 G. Zheng, W. Liang, M. Hada, M. Ehara, K. Toyota, R. Fukuda, 
 J. Hasegawa, M. Ishida, T. Nakajima, Y. Honda, O. Kitao, H. Nakai, 
 T. Vreven, K. Throssell, J. A. Montgomery, Jr., J. E. Peralta, 
 F. Ogliaro, M. J. Bearpark, J. J. Heyd, E. N. Brothers, K. N. Kudin, 
 V. N. Staroverov, T. A. Keith, R. Kobayashi, J. Normand, 
 K. Raghavachari, A. P. Rendell, J. C. Burant, S. S. Iyengar, 
 J. Tomasi, M. Cossi, J. M. Millam, M. Klene, C. Adamo, R. Cammi, 
 J. W. Ochterski, R. L. Martin, K. Morokuma, O. Farkas, 
 J. B. Foresman, and D. J. Fox, Gaussian, Inc., Wallingford CT, 2016.
 
 ******************************************
 Gaussian 16:  ES64L-G16RevA.03 25-Dec-2016
                11-Feb-2020 
 ******************************************
 %chk=checkpoint.chk
 %mem=3GB
 %nprocshared=4
 Will use up to    4 processors via shared memory.
 --------------------------------
 #t pop=none jul-cc-pvdz upbe1pbe
 --------------------------------
 ------------------------
 theory_abbreviation pbe0
 ------------------------
 Symbolic Z-matrix:
 Charge =  0 Multiplicity = 6
 O                     0.28141   0.25759  -0.52267 
 C                     1.08113   1.20683  -0.2487 
 C                     2.74461   0.14694   0.9343 
 C                     3.10102  -0.67328  -0.09458 
 C                     4.18002  -0.3088   -1.06855 
 Fe                   -1.55806  -0.18234  -0.10088 
 Cl                   -1.87697  -2.06356  -1.1585 
 C                     2.39313  -1.97117  -0.32542 
 Cl                   -2.59568   1.58108  -0.89091 
 Cl                   -1.78763  -0.36386   2.07545 
 H                     3.33573   1.05097   1.07402 
 H                     2.9122   -2.59949  -1.05372 
 H                     2.25426  -2.53857   0.60016 
 H                     1.38507  -1.75893  -0.71661 
 H                     5.00992  -1.02084  -0.9619 
 H                     3.83473  -0.39746  -2.10653 
 H                     4.57535   0.6971   -0.9064 
 C                     1.95436  -0.34263   2.12481 
 H                     2.4938   -1.15646   2.62528 
 H                     1.80675   0.44931   2.86145 
 H                     0.97028  -0.72936   1.84826 
 C                     0.73836   2.14476   0.8819 
 H                     1.593     2.73826   1.21104 
 H                    -0.01846   2.82804   0.46944 
 H                     0.27989   1.62459   1.72192 
 C                     1.84787   1.79606  -1.40341 
 H                     1.17337   2.52747  -1.87016 
 H                     2.75014   2.32189  -1.08628 
 H                     2.08383   1.03916  -2.1504 
 
                    Distance matrix (angstroms):
                    1          2          3          4          5
     1  O    0.000000
     2  C    1.271093   0.000000
     3  C    2.863972   2.299999   0.000000
     4  C    2.999995   2.763783   1.363223   0.000000
     5  C    3.977176   3.545757   2.505892   1.498560   0.000000
     6  Fe   1.937806   2.986130   4.437675   4.684881   5.820475
     7  Cl   3.232741   4.502617   5.533992   5.276855   6.306692
     8  C    3.076621   3.439024   2.489338   1.496307   2.551216
     9  Cl   3.188242   3.751192   5.822954   6.178079   7.036570
    10  Cl   3.378957   4.012295   4.701520   5.357581   6.745410
    11  H    3.536627   2.618602   1.089136   2.096128   2.674402
    12  H    3.919942   4.299874   3.394578   2.160067   2.618170
    13  H    3.601574   4.015567   2.750281   2.163099   3.386001
    14  H    2.306952   3.017792   2.864643   2.123691   3.168358
    15  H    4.917935   4.572365   3.176619   2.125307   1.098681
    16  H    3.945089   3.688841   3.275872   2.159238   1.097492
    17  H    4.333391   3.591921   2.653757   2.170392   1.092895
    18  C    3.188758   2.965958   1.510463   2.519896   3.892590
    19  H    4.099240   3.980013   2.149691   2.828398   4.148038
    20  H    3.716950   3.282288   2.164475   3.416652   4.653180
    21  H    2.658937   2.856288   2.179785   2.884068   4.357415
    22  C    2.396464   1.508463   2.831798   3.804869   4.655025
    23  H    3.298449   2.176725   2.849162   3.951880   4.601498
    24  H    2.771538   2.086420   3.878006   4.723186   5.461906
    25  H    2.628098   2.167915   2.979702   4.066773   5.170659
    26  C    2.365665   1.506125   2.998095   3.062843   3.159349
    27  H    2.786337   2.093257   4.000084   4.136817   4.210336
    28  H    3.267046   2.174962   2.968697   3.174521   2.994229
    29  H    2.551283   2.156379   3.278421   2.862428   2.716879
                    6          7          8          9         10
     6  Fe   0.000000
     7  Cl   2.181576   0.000000
     8  C    4.343063   4.351579   0.000000
     9  Cl   2.193271   3.724459   6.150319   0.000000
    10  Cl   2.195922   3.654507   5.081958   3.637995   0.000000
    11  H    5.181755   6.469671   3.461251   6.270848   5.408634
    12  H    5.170471   4.820201   1.093001   6.916678   6.072739
    13  H    4.536190   4.515029   1.094492   6.535797   4.821065
    14  H    3.395112   3.305896   1.101930   5.199273   4.450599
    15  H    6.677034   6.968151   2.855846   8.038666   7.474206
    16  H    5.757693   6.024789   2.779769   6.836847   7.007204
    17  H    6.248272   7.022617   3.495611   7.225319   7.106647
    18  C    4.161307   5.331115   2.974604   5.787751   3.742370
    19  H    4.979800   5.851787   3.062760   6.764648   4.388749
    20  H    4.527287   6.003691   4.044591   5.894274   3.768097
    21  H    3.238970   4.350582   2.879489   5.055422   2.791286
    22  C    3.413907   5.358463   4.597471   3.817900   3.754772
    23  H    4.492237   6.380666   5.017930   4.827243   4.668934
    24  H    3.428991   5.480145   5.429542   3.169777   3.987153
    25  H    3.156844   5.152801   4.646163   3.885573   2.890250
    26  C    4.148609   5.369455   3.956179   4.478168   5.475809
    27  H    4.234868   5.557750   4.910371   4.007534   5.717964
    28  H    5.079635   6.375536   4.374551   5.400434   6.148255
    29  H    4.353837   5.128217   3.533877   4.876245   5.900372
                   11         12         13         14         15
    11  H    0.000000
    12  H    4.246470   0.000000
    13  H    3.778745   1.780989   0.000000
    14  H    3.860956   1.775475   1.759882   0.000000
    15  H    3.352657   2.626970   3.512437   3.707356   0.000000
    16  H    3.530278   2.609282   3.795834   3.128305   1.754948
    17  H    2.363036   3.695300   4.257549   4.030631   1.772923
    18  C    2.225861   4.014216   2.690101   3.225471   4.395931
    19  H    2.826300   3.973971   2.463480   3.572180   4.383734
    20  H    2.427897   5.083876   3.773744   4.225717   5.199972
    21  H    3.060121   3.961053   2.545503   2.794752   4.929568
    22  C    2.824821   5.565978   4.930607   4.267585   5.627331
    23  H    2.429570   5.946510   5.353068   4.897327   5.525200
    24  H    3.843704   6.353489   5.829475   4.941347   6.492087
    25  H    3.175991   5.698779   4.742188   4.314635   6.047672
    26  C    2.984380   4.536065   4.792533   3.650182   4.257744
    27  H    3.940055   5.475011   5.738944   4.443953   5.304195
    28  H    2.573921   4.924148   5.168558   4.318930   4.036819
    29  H    3.458946   3.889555   4.516051   3.220765   3.770694
                   16         17         18         19         20
    16  H    0.000000
    17  H    1.785190   0.000000
    18  C    4.630659   4.139907   0.000000
    19  H    4.976359   4.499027   1.097167   0.000000
    20  H    5.432363   4.682226   1.091606   1.762472   0.000000
    21  H    4.894441   4.755987   1.092904   1.762742   1.765074
    22  C    4.998107   4.473945   3.034899   4.125408   2.816852
    23  H    5.085701   4.188585   3.233795   4.240320   2.829988
    24  H    5.646814   5.247557   4.084777   5.180278   3.835552
    25  H    5.602012   5.120467   2.614597   3.667650   2.238549
    26  C    3.041958   2.982254   4.127182   5.036353   4.472633
    27  H    3.961550   3.981518   4.980682   5.960184   5.206542
    28  H    3.100338   2.450239   4.247827   5.093159   4.470028
    29  H    2.265271   2.805747   4.494834   5.272183   5.054046
                   21         22         23         24         25
    21  H    0.000000
    22  C    3.041089   0.000000
    23  H    3.580252   1.091326   0.000000
    24  H    3.941301   1.099892   1.776187   0.000000
    25  H    2.456357   1.089221   1.795967   1.762386   0.000000
    26  C    4.209660   2.564219   2.790706   2.838260   3.500801
    27  H    4.947206   2.812388   3.116783   2.642829   3.810057
    28  H    4.592335   2.819992   2.605769   3.215834   3.804513
    29  H    4.511867   3.496781   3.798310   3.805689   4.311818
                   26         27         28         29
    26  C    0.000000
    27  H    1.098984   0.000000
    28  H    1.091397   1.772825   0.000000
    29  H    1.089301   1.767066   1.794914   0.000000
 Framework group  C1[X(C8H16Cl3FeO)]
 Deg. of freedom    81
                         Standard orientation:                         
 ---------------------------------------------------------------------
 Center     Atomic      Atomic             Coordinates (Angstroms)
 Number     Number       Type             X           Y           Z
 ---------------------------------------------------------------------
      1          8           0        0.281412    0.257586   -0.522673
      2          6           0        1.081134    1.206829   -0.248701
      3          6           0        2.744608    0.146938    0.934296
      4          6           0        3.101023   -0.673276   -0.094584
      5          6           0        4.180021   -0.308803   -1.068548
      6         26           0       -1.558059   -0.182337   -0.100883
      7         17           0       -1.876966   -2.063564   -1.158502
      8          6           0        2.393125   -1.971170   -0.325419
      9         17           0       -2.595678    1.581082   -0.890908
     10         17           0       -1.787626   -0.363857    2.075449
     11          1           0        3.335726    1.050969    1.074024
     12          1           0        2.912204   -2.599487   -1.053723
     13          1           0        2.254255   -2.538569    0.600155
     14          1           0        1.385070   -1.758934   -0.716610
     15          1           0        5.009920   -1.020839   -0.961902
     16          1           0        3.834727   -0.397463   -2.106527
     17          1           0        4.575345    0.697102   -0.906396
     18          6           0        1.954358   -0.342633    2.124810
     19          1           0        2.493798   -1.156459    2.625278
     20          1           0        1.806746    0.449308    2.861454
     21          1           0        0.970284   -0.729362    1.848263
     22          6           0        0.738357    2.144759    0.881897
     23          1           0        1.593000    2.738257    1.211043
     24          1           0       -0.018461    2.828036    0.469440
     25          1           0        0.279894    1.624590    1.721920
     26          6           0        1.847870    1.796056   -1.403405
     27          1           0        1.173374    2.527466   -1.870161
     28          1           0        2.750136    2.321886   -1.086282
     29          1           0        2.083826    1.039156   -2.150401
 ---------------------------------------------------------------------
 Rotational constants (GHZ):           0.5958290           0.2987904           0.2857974
   427 basis functions,  1056 primitive gaussians,   461 cartesian basis functions
    77 alpha electrons       72 beta electrons
       nuclear repulsion energy      1613.1536956239 Hartrees.
 NAtoms=   29 NActive=   29 NUniq=   29 SFac= 1.00D+00 NAtFMM=   60 NAOKFM=F Big=F
 ExpMin= 1.40D-02 ExpMax= 4.32D+06 ExpMxC= 4.91D+03 IAcc=3 IRadAn=         5 AccDes= 0.00D+00
 Harris functional with IExCor= 1009 and IRadAn=       5 diagonalized for initial guess.
 HarFok:  IExCor= 1009 AccDes= 0.00D+00 IRadAn=         5 IDoV= 1 UseB2=F ITyADJ=14
 ICtDFT=  3500011 ScaDFX=  1.000000  1.000000  1.000000  1.000000
 FoFCou: FMM=F IPFlag=           0 FMFlag=      100000 FMFlg1=           0
         NFxFlg=           0 DoJE=T BraDBF=F KetDBF=T FulRan=T
         wScrn=  0.000000 ICntrl=       500 IOpCl=  0 I1Cent=   200000004 NGrid=           0
         NMat0=    1 NMatS0=      1 NMatT0=    0 NMatD0=    1 NMtDS0=    0 NMtDT0=    0
 Petite list used in FoFCou.
 Initial guess <Sx>= 0.0000 <Sy>= 0.0000 <Sz>= 2.5000 <S**2>= 8.7500 S= 2.5000
 EnCoef did   100 forward-backward iterations
 Restarting incremental Fock formation.
 SCF Done:  E(UPBE1PBE) =  -3033.12490749     A.U. after   21 cycles
            NFock= 21  Conv=0.45D-08     -V/T= 2.0021
 <Sx>= 0.0000 <Sy>= 0.0000 <Sz>= 2.5000 <S**2>= 8.7629 S= 2.5021
 <L.S>= 0.000000000000E+00
 Annihilation of the first spin contaminant:
 S**2 before annihilation     8.7629,   after     8.7501
 1\1\GINC-HOLY7C04207\SP\UPBE1PBE\Jul-CC-pVDZ\C8H16Cl3Fe1O1(6)\EKWAN\11
 -Feb-2020\0\\#t pop=none jul-cc-pvdz upbe1pbe\\theory_abbreviation pbe
 0\\0,6\O,0,0.281412,0.257586,-0.522673\C,0,1.081134,1.206829,-0.248701
 \C,0,2.744608,0.146938,0.934296\C,0,3.101023,-0.673276,-0.094584\C,0,4
 .180021,-0.308803,-1.068548\Fe,0,-1.558059,-0.182337,-0.100883\Cl,0,-1
 .876966,-2.063564,-1.158502\C,0,2.393125,-1.97117,-0.325419\Cl,0,-2.59
 5678,1.581082,-0.890908\Cl,0,-1.787626,-0.363857,2.075449\H,0,3.335726
 ,1.050969,1.074024\H,0,2.912204,-2.599487,-1.053723\H,0,2.254255,-2.53
 8569,0.600155\H,0,1.38507,-1.758934,-0.71661\H,0,5.00992,-1.020839,-0.
 961902\H,0,3.834727,-0.397463,-2.106527\H,0,4.575345,0.697102,-0.90639
 6\C,0,1.954358,-0.342633,2.12481\H,0,2.493798,-1.156459,2.625278\H,0,1
 .806746,0.449308,2.861454\H,0,0.970284,-0.729362,1.848263\C,0,0.738357
 ,2.144759,0.881897\H,0,1.593,2.738257,1.211043\H,0,-0.018461,2.828036,
 0.46944\H,0,0.279894,1.62459,1.72192\C,0,1.84787,1.796056,-1.403405\H,
 0,1.173374,2.527466,-1.870161\H,0,2.750136,2.321886,-1.086282\H,0,2.08
 3826,1.039156,-2.150401\\Version=ES64L-G16RevA.03\HF=-3033.1249075\S2=
 8.76288\S2-1=0.\S2A=8.750051\RMSD=4.474e-09\PG=C01 [X(C8H16Cl3Fe1O1)]\
 \@


 DON'T WORRY CHARLIE BROWN...WE LEARN MORE FROM LOSING 
 THAN WE DO FROM WINNING.
 THEN THAT MAKES ME THE SMARTEST PERSON IN THE WORLD...
 CHARLES SCHULZ 'PEANUTS'
 Job cpu time:       0 days  1 hours 28 minutes 36.7 seconds.
 Elapsed time:       0 days  0 hours 22 minutes 15.0 seconds.
 File lengths (MBytes):  RWF=    173 Int=      0 D2E=      0 Chk=     13 Scr=      1
 Normal termination of Gaussian 16 at Tue Feb 11 13:59:23 2020.
 Initial command:
 /n/sw/g16_nehalem/g16/l1.exe "/scratch/Gau-411189.inp" -scrdir="/scratch/"
 Entering Link 1 = /n/sw/g16_nehalem/g16/l1.exe PID=    412785.
  
 Copyright (c) 1988,1990,1992,1993,1995,1998,2003,2009,2016,
            Gaussian, Inc.  All Rights Reserved.
  
 This is part of the Gaussian(R) 16 program.  It is based on
 the Gaussian(R) 09 system (copyright 2009, Gaussian, Inc.),
 the Gaussian(R) 03 system (copyright 2003, Gaussian, Inc.),
 the Gaussian(R) 98 system (copyright 1998, Gaussian, Inc.),
 the Gaussian(R) 94 system (copyright 1995, Gaussian, Inc.),
 the Gaussian 92(TM) system (copyright 1992, Gaussian, Inc.),
 the Gaussian 90(TM) system (copyright 1990, Gaussian, Inc.),
 the Gaussian 88(TM) system (copyright 1988, Gaussian, Inc.),
 the Gaussian 86(TM) system (copyright 1986, Carnegie Mellon
 University), and the Gaussian 82(TM) system (copyright 1983,
 Carnegie Mellon University). Gaussian is a federally registered
 trademark of Gaussian, Inc.
  
 This software contains proprietary and confidential information,
 including trade secrets, belonging to Gaussian, Inc.
  
 This software is provided under written license and may be
 used, copied, transmitted, or stored only in accord with that
 written license.
  
 The following legend is applicable only to US Government
 contracts under FAR:
  
                    RESTRICTED RIGHTS LEGEND
  
 Use, reproduction and disclosure by the US Government is
 subject to restrictions as set forth in subparagraphs (a)
 and (c) of the Commercial Computer Software - Restricted
 Rights clause in FAR 52.227-19.
  
 Gaussian, Inc.
 340 Quinnipiac St., Bldg. 40, Wallingford CT 06492
  
  
 ---------------------------------------------------------------
 Warning -- This program may not be used in any manner that
 competes with the business of Gaussian, Inc. or will provide
 assistance to any competitor of Gaussian, Inc.  The licensee
 of this program is prohibited from giving any competitor of
 Gaussian, Inc. access to this program.  By using this program,
 the user acknowledges that Gaussian, Inc. is engaged in the
 business of creating and licensing software in the field of
 computational chemistry and represents and warrants to the
 licensee that it is not a competitor of Gaussian, Inc. and that
 it will not use this program in any manner prohibited above.
 ---------------------------------------------------------------
  

 Cite this work as:
 Gaussian 16, Revision A.03,
 M. J. Frisch, G. W. Trucks, H. B. Schlegel, G. E. Scuseria, 
 M. A. Robb, J. R. Cheeseman, G. Scalmani, V. Barone, 
 G. A. Petersson, H. Nakatsuji, X. Li, M. Caricato, A. V. Marenich, 
 J. Bloino, B. G. Janesko, R. Gomperts, B. Mennucci, H. P. Hratchian, 
 J. V. Ortiz, A. F. Izmaylov, J. L. Sonnenberg, D. Williams-Young, 
 F. Ding, F. Lipparini, F. Egidi, J. Goings, B. Peng, A. Petrone, 
 T. Henderson, D. Ranasinghe, V. G. Zakrzewski, J. Gao, N. Rega, 
 G. Zheng, W. Liang, M. Hada, M. Ehara, K. Toyota, R. Fukuda, 
 J. Hasegawa, M. Ishida, T. Nakajima, Y. Honda, O. Kitao, H. Nakai, 
 T. Vreven, K. Throssell, J. A. Montgomery, Jr., J. E. Peralta, 
 F. Ogliaro, M. J. Bearpark, J. J. Heyd, E. N. Brothers, K. N. Kudin, 
 V. N. Staroverov, T. A. Keith, R. Kobayashi, J. Normand, 
 K. Raghavachari, A. P. Rendell, J. C. Burant, S. S. Iyengar, 
 J. Tomasi, M. Cossi, J. M. Millam, M. Klene, C. Adamo, R. Cammi, 
 J. W. Ochterski, R. L. Martin, K. Morokuma, O. Farkas, 
 J. B. Foresman, and D. J. Fox, Gaussian, Inc., Wallingford CT, 2016.
 
 ******************************************
 Gaussian 16:  ES64L-G16RevA.03 25-Dec-2016
                11-Feb-2020 
 ******************************************
 %chk=checkpoint.chk
 %mem=3GB
 %nprocshared=4
 Will use up to    4 processors via shared memory.
 ---------------------------------------------------------------------
 #t pop=none jul-cc-pvdz guess=read upbe1pbe empiricaldispersion=gd3bj
 ---------------------------------------------------------------------
 -----------------------------
 theory_abbreviation pbe0_d3bj
 -----------------------------
 Symbolic Z-matrix:
 Charge =  0 Multiplicity = 6
 O                     0.28141   0.25759  -0.52267 
 C                     1.08113   1.20683  -0.2487 
 C                     2.74461   0.14694   0.9343 
 C                     3.10102  -0.67328  -0.09458 
 C                     4.18002  -0.3088   -1.06855 
 Fe                   -1.55806  -0.18234  -0.10088 
 Cl                   -1.87697  -2.06356  -1.1585 
 C                     2.39313  -1.97117  -0.32542 
 Cl                   -2.59568   1.58108  -0.89091 
 Cl                   -1.78763  -0.36386   2.07545 
 H                     3.33573   1.05097   1.07402 
 H                     2.9122   -2.59949  -1.05372 
 H                     2.25426  -2.53857   0.60016 
 H                     1.38507  -1.75893  -0.71661 
 H                     5.00992  -1.02084  -0.9619 
 H                     3.83473  -0.39746  -2.10653 
 H                     4.57535   0.6971   -0.9064 
 C                     1.95436  -0.34263   2.12481 
 H                     2.4938   -1.15646   2.62528 
 H                     1.80675   0.44931   2.86145 
 H                     0.97028  -0.72936   1.84826 
 C                     0.73836   2.14476   0.8819 
 H                     1.593     2.73826   1.21104 
 H                    -0.01846   2.82804   0.46944 
 H                     0.27989   1.62459   1.72192 
 C                     1.84787   1.79606  -1.40341 
 H                     1.17337   2.52747  -1.87016 
 H                     2.75014   2.32189  -1.08628 
 H                     2.08383   1.03916  -2.1504 
 
                    Distance matrix (angstroms):
                    1          2          3          4          5
     1  O    0.000000
     2  C    1.271093   0.000000
     3  C    2.863972   2.299999   0.000000
     4  C    2.999995   2.763783   1.363223   0.000000
     5  C    3.977176   3.545757   2.505892   1.498560   0.000000
     6  Fe   1.937806   2.986130   4.437675   4.684881   5.820475
     7  Cl   3.232741   4.502617   5.533992   5.276855   6.306692
     8  C    3.076621   3.439024   2.489338   1.496307   2.551216
     9  Cl   3.188242   3.751192   5.822954   6.178079   7.036570
    10  Cl   3.378957   4.012295   4.701520   5.357581   6.745410
    11  H    3.536627   2.618602   1.089136   2.096128   2.674402
    12  H    3.919942   4.299874   3.394578   2.160067   2.618170
    13  H    3.601574   4.015567   2.750281   2.163099   3.386001
    14  H    2.306952   3.017792   2.864643   2.123691   3.168358
    15  H    4.917935   4.572365   3.176619   2.125307   1.098681
    16  H    3.945089   3.688841   3.275872   2.159238   1.097492
    17  H    4.333391   3.591921   2.653757   2.170392   1.092895
    18  C    3.188758   2.965958   1.510463   2.519896   3.892590
    19  H    4.099240   3.980013   2.149691   2.828398   4.148038
    20  H    3.716950   3.282288   2.164475   3.416652   4.653180
    21  H    2.658937   2.856288   2.179785   2.884068   4.357415
    22  C    2.396464   1.508463   2.831798   3.804869   4.655025
    23  H    3.298449   2.176725   2.849162   3.951880   4.601498
    24  H    2.771538   2.086420   3.878006   4.723186   5.461906
    25  H    2.628098   2.167915   2.979702   4.066773   5.170659
    26  C    2.365665   1.506125   2.998095   3.062843   3.159349
    27  H    2.786337   2.093257   4.000084   4.136817   4.210336
    28  H    3.267046   2.174962   2.968697   3.174521   2.994229
    29  H    2.551283   2.156379   3.278421   2.862428   2.716879
                    6          7          8          9         10
     6  Fe   0.000000
     7  Cl   2.181576   0.000000
     8  C    4.343063   4.351579   0.000000
     9  Cl   2.193271   3.724459   6.150319   0.000000
    10  Cl   2.195922   3.654507   5.081958   3.637995   0.000000
    11  H    5.181755   6.469671   3.461251   6.270848   5.408634
    12  H    5.170471   4.820201   1.093001   6.916678   6.072739
    13  H    4.536190   4.515029   1.094492   6.535797   4.821065
    14  H    3.395112   3.305896   1.101930   5.199273   4.450599
    15  H    6.677034   6.968151   2.855846   8.038666   7.474206
    16  H    5.757693   6.024789   2.779769   6.836847   7.007204
    17  H    6.248272   7.022617   3.495611   7.225319   7.106647
    18  C    4.161307   5.331115   2.974604   5.787751   3.742370
    19  H    4.979800   5.851787   3.062760   6.764648   4.388749
    20  H    4.527287   6.003691   4.044591   5.894274   3.768097
    21  H    3.238970   4.350582   2.879489   5.055422   2.791286
    22  C    3.413907   5.358463   4.597471   3.817900   3.754772
    23  H    4.492237   6.380666   5.017930   4.827243   4.668934
    24  H    3.428991   5.480145   5.429542   3.169777   3.987153
    25  H    3.156844   5.152801   4.646163   3.885573   2.890250
    26  C    4.148609   5.369455   3.956179   4.478168   5.475809
    27  H    4.234868   5.557750   4.910371   4.007534   5.717964
    28  H    5.079635   6.375536   4.374551   5.400434   6.148255
    29  H    4.353837   5.128217   3.533877   4.876245   5.900372
                   11         12         13         14         15
    11  H    0.000000
    12  H    4.246470   0.000000
    13  H    3.778745   1.780989   0.000000
    14  H    3.860956   1.775475   1.759882   0.000000
    15  H    3.352657   2.626970   3.512437   3.707356   0.000000
    16  H    3.530278   2.609282   3.795834   3.128305   1.754948
    17  H    2.363036   3.695300   4.257549   4.030631   1.772923
    18  C    2.225861   4.014216   2.690101   3.225471   4.395931
    19  H    2.826300   3.973971   2.463480   3.572180   4.383734
    20  H    2.427897   5.083876   3.773744   4.225717   5.199972
    21  H    3.060121   3.961053   2.545503   2.794752   4.929568
    22  C    2.824821   5.565978   4.930607   4.267585   5.627331
    23  H    2.429570   5.946510   5.353068   4.897327   5.525200
    24  H    3.843704   6.353489   5.829475   4.941347   6.492087
    25  H    3.175991   5.698779   4.742188   4.314635   6.047672
    26  C    2.984380   4.536065   4.792533   3.650182   4.257744
    27  H    3.940055   5.475011   5.738944   4.443953   5.304195
    28  H    2.573921   4.924148   5.168558   4.318930   4.036819
    29  H    3.458946   3.889555   4.516051   3.220765   3.770694
                   16         17         18         19         20
    16  H    0.000000
    17  H    1.785190   0.000000
    18  C    4.630659   4.139907   0.000000
    19  H    4.976359   4.499027   1.097167   0.000000
    20  H    5.432363   4.682226   1.091606   1.762472   0.000000
    21  H    4.894441   4.755987   1.092904   1.762742   1.765074
    22  C    4.998107   4.473945   3.034899   4.125408   2.816852
    23  H    5.085701   4.188585   3.233795   4.240320   2.829988
    24  H    5.646814   5.247557   4.084777   5.180278   3.835552
    25  H    5.602012   5.120467   2.614597   3.667650   2.238549
    26  C    3.041958   2.982254   4.127182   5.036353   4.472633
    27  H    3.961550   3.981518   4.980682   5.960184   5.206542
    28  H    3.100338   2.450239   4.247827   5.093159   4.470028
    29  H    2.265271   2.805747   4.494834   5.272183   5.054046
                   21         22         23         24         25
    21  H    0.000000
    22  C    3.041089   0.000000
    23  H    3.580252   1.091326   0.000000
    24  H    3.941301   1.099892   1.776187   0.000000
    25  H    2.456357   1.089221   1.795967   1.762386   0.000000
    26  C    4.209660   2.564219   2.790706   2.838260   3.500801
    27  H    4.947206   2.812388   3.116783   2.642829   3.810057
    28  H    4.592335   2.819992   2.605769   3.215834   3.804513
    29  H    4.511867   3.496781   3.798310   3.805689   4.311818
                   26         27         28         29
    26  C    0.000000
    27  H    1.098984   0.000000
    28  H    1.091397   1.772825   0.000000
    29  H    1.089301   1.767066   1.794914   0.000000
 Framework group  C1[X(C8H16Cl3FeO)]
 Deg. of freedom    81
                         Standard orientation:                         
 ---------------------------------------------------------------------
 Center     Atomic      Atomic             Coordinates (Angstroms)
 Number     Number       Type             X           Y           Z
 ---------------------------------------------------------------------
      1          8           0        0.281412    0.257586   -0.522673
      2          6           0        1.081134    1.206829   -0.248701
      3          6           0        2.744608    0.146938    0.934296
      4          6           0        3.101023   -0.673276   -0.094584
      5          6           0        4.180021   -0.308803   -1.068548
      6         26           0       -1.558059   -0.182337   -0.100883
      7         17           0       -1.876966   -2.063564   -1.158502
      8          6           0        2.393125   -1.971170   -0.325419
      9         17           0       -2.595678    1.581082   -0.890908
     10         17           0       -1.787626   -0.363857    2.075449
     11          1           0        3.335726    1.050969    1.074024
     12          1           0        2.912204   -2.599487   -1.053723
     13          1           0        2.254255   -2.538569    0.600155
     14          1           0        1.385070   -1.758934   -0.716610
     15          1           0        5.009920   -1.020839   -0.961902
     16          1           0        3.834727   -0.397463   -2.106527
     17          1           0        4.575345    0.697102   -0.906396
     18          6           0        1.954358   -0.342633    2.124810
     19          1           0        2.493798   -1.156459    2.625278
     20          1           0        1.806746    0.449308    2.861454
     21          1           0        0.970284   -0.729362    1.848263
     22          6           0        0.738357    2.144759    0.881897
     23          1           0        1.593000    2.738257    1.211043
     24          1           0       -0.018461    2.828036    0.469440
     25          1           0        0.279894    1.624590    1.721920
     26          6           0        1.847870    1.796056   -1.403405
     27          1           0        1.173374    2.527466   -1.870161
     28          1           0        2.750136    2.321886   -1.086282
     29          1           0        2.083826    1.039156   -2.150401
 ---------------------------------------------------------------------
 Rotational constants (GHZ):           0.5958290           0.2987904           0.2857974
   427 basis functions,  1056 primitive gaussians,   461 cartesian basis functions
    77 alpha electrons       72 beta electrons
       nuclear repulsion energy      1613.1536956239 Hartrees.
 NAtoms=   29 NActive=   29 NUniq=   29 SFac= 1.00D+00 NAtFMM=   60 NAOKFM=F Big=F
 Nuclear repulsion after empirical dispersion term =     1613.1174567104 Hartrees.
 Initial guess from the checkpoint file:  "checkpoint.chk"
 B after Tr=     0.000000    0.000000    0.000000
         Rot=    1.000000    0.000000    0.000000    0.000000 Ang=   0.00 deg.
 Initial guess <Sx>= 0.0000 <Sy>= 0.0000 <Sz>= 2.5000 <S**2>= 8.7629 S= 2.5021
 SCF Done:  E(UPBE1PBE) =  -3033.16114641     A.U. after    1 cycles
            NFock=  1  Conv=0.23D-08     -V/T= 2.0021
 <Sx>= 0.0000 <Sy>= 0.0000 <Sz>= 2.5000 <S**2>= 8.7629 S= 2.5021
 <L.S>= 0.000000000000E+00
 Annihilation of the first spin contaminant:
 S**2 before annihilation     8.7629,   after     8.7501
 1\1\GINC-HOLY7C04207\SP\UPBE1PBE\Jul-CC-pVDZ\C8H16Cl3Fe1O1(6)\EKWAN\11
 -Feb-2020\0\\#t pop=none jul-cc-pvdz guess=read upbe1pbe empiricaldisp
 ersion=gd3bj\\theory_abbreviation pbe0_d3bj\\0,6\O,0,0.281412,0.257586
 ,-0.522673\C,0,1.081134,1.206829,-0.248701\C,0,2.744608,0.146938,0.934
 296\C,0,3.101023,-0.673276,-0.094584\C,0,4.180021,-0.308803,-1.068548\
 Fe,0,-1.558059,-0.182337,-0.100883\Cl,0,-1.876966,-2.063564,-1.158502\
 C,0,2.393125,-1.97117,-0.325419\Cl,0,-2.595678,1.581082,-0.890908\Cl,0
 ,-1.787626,-0.363857,2.075449\H,0,3.335726,1.050969,1.074024\H,0,2.912
 204,-2.599487,-1.053723\H,0,2.254255,-2.538569,0.600155\H,0,1.38507,-1
 .758934,-0.71661\H,0,5.00992,-1.020839,-0.961902\H,0,3.834727,-0.39746
 3,-2.106527\H,0,4.575345,0.697102,-0.906396\C,0,1.954358,-0.342633,2.1
 2481\H,0,2.493798,-1.156459,2.625278\H,0,1.806746,0.449308,2.861454\H,
 0,0.970284,-0.729362,1.848263\C,0,0.738357,2.144759,0.881897\H,0,1.593
 ,2.738257,1.211043\H,0,-0.018461,2.828036,0.46944\H,0,0.279894,1.62459
 ,1.72192\C,0,1.84787,1.796056,-1.403405\H,0,1.173374,2.527466,-1.87016
 1\H,0,2.750136,2.321886,-1.086282\H,0,2.083826,1.039156,-2.150401\\Ver
 sion=ES64L-G16RevA.03\HF=-3033.1611464\S2=8.76288\S2-1=0.\S2A=8.750051
 \RMSD=2.307e-09\PG=C01 [X(C8H16Cl3Fe1O1)]\\@


 GOOD SENSE ABOUT TRIVIALITIES IS BETTER THAN NONSENSE
 ABOUT THINGS THAT MATTER

                                       -- MAX BEERBOHM
 Job cpu time:       0 days  0 hours  4 minutes 30.1 seconds.
 Elapsed time:       0 days  0 hours  1 minutes  8.0 seconds.
 File lengths (MBytes):  RWF=    170 Int=      0 D2E=      0 Chk=     13 Scr=      1
 Normal termination of Gaussian 16 at Tue Feb 11 14:00:32 2020.
 Initial command:
 /n/sw/g16_nehalem/g16/l1.exe "/scratch/Gau-411189.inp" -scrdir="/scratch/"
 Entering Link 1 = /n/sw/g16_nehalem/g16/l1.exe PID=    413204.
  
 Copyright (c) 1988,1990,1992,1993,1995,1998,2003,2009,2016,
            Gaussian, Inc.  All Rights Reserved.
  
 This is part of the Gaussian(R) 16 program.  It is based on
 the Gaussian(R) 09 system (copyright 2009, Gaussian, Inc.),
 the Gaussian(R) 03 system (copyright 2003, Gaussian, Inc.),
 the Gaussian(R) 98 system (copyright 1998, Gaussian, Inc.),
 the Gaussian(R) 94 system (copyright 1995, Gaussian, Inc.),
 the Gaussian 92(TM) system (copyright 1992, Gaussian, Inc.),
 the Gaussian 90(TM) system (copyright 1990, Gaussian, Inc.),
 the Gaussian 88(TM) system (copyright 1988, Gaussian, Inc.),
 the Gaussian 86(TM) system (copyright 1986, Carnegie Mellon
 University), and the Gaussian 82(TM) system (copyright 1983,
 Carnegie Mellon University). Gaussian is a federally registered
 trademark of Gaussian, Inc.
  
 This software contains proprietary and confidential information,
 including trade secrets, belonging to Gaussian, Inc.
  
 This software is provided under written license and may be
 used, copied, transmitted, or stored only in accord with that
 written license.
  
 The following legend is applicable only to US Government
 contracts under FAR:
  
                    RESTRICTED RIGHTS LEGEND
  
 Use, reproduction and disclosure by the US Government is
 subject to restrictions as set forth in subparagraphs (a)
 and (c) of the Commercial Computer Software - Restricted
 Rights clause in FAR 52.227-19.
  
 Gaussian, Inc.
 340 Quinnipiac St., Bldg. 40, Wallingford CT 06492
  
  
 ---------------------------------------------------------------
 Warning -- This program may not be used in any manner that
 competes with the business of Gaussian, Inc. or will provide
 assistance to any competitor of Gaussian, Inc.  The licensee
 of this program is prohibited from giving any competitor of
 Gaussian, Inc. access to this program.  By using this program,
 the user acknowledges that Gaussian, Inc. is engaged in the
 business of creating and licensing software in the field of
 computational chemistry and represents and warrants to the
 licensee that it is not a competitor of Gaussian, Inc. and that
 it will not use this program in any manner prohibited above.
 ---------------------------------------------------------------
  

 Cite this work as:
 Gaussian 16, Revision A.03,
 M. J. Frisch, G. W. Trucks, H. B. Schlegel, G. E. Scuseria, 
 M. A. Robb, J. R. Cheeseman, G. Scalmani, V. Barone, 
 G. A. Petersson, H. Nakatsuji, X. Li, M. Caricato, A. V. Marenich, 
 J. Bloino, B. G. Janesko, R. Gomperts, B. Mennucci, H. P. Hratchian, 
 J. V. Ortiz, A. F. Izmaylov, J. L. Sonnenberg, D. Williams-Young, 
 F. Ding, F. Lipparini, F. Egidi, J. Goings, B. Peng, A. Petrone, 
 T. Henderson, D. Ranasinghe, V. G. Zakrzewski, J. Gao, N. Rega, 
 G. Zheng, W. Liang, M. Hada, M. Ehara, K. Toyota, R. Fukuda, 
 J. Hasegawa, M. Ishida, T. Nakajima, Y. Honda, O. Kitao, H. Nakai, 
 T. Vreven, K. Throssell, J. A. Montgomery, Jr., J. E. Peralta, 
 F. Ogliaro, M. J. Bearpark, J. J. Heyd, E. N. Brothers, K. N. Kudin, 
 V. N. Staroverov, T. A. Keith, R. Kobayashi, J. Normand, 
 K. Raghavachari, A. P. Rendell, J. C. Burant, S. S. Iyengar, 
 J. Tomasi, M. Cossi, J. M. Millam, M. Klene, C. Adamo, R. Cammi, 
 J. W. Ochterski, R. L. Martin, K. Morokuma, O. Farkas, 
 J. B. Foresman, and D. J. Fox, Gaussian, Inc., Wallingford CT, 2016.
 
 ******************************************
 Gaussian 16:  ES64L-G16RevA.03 25-Dec-2016
                11-Feb-2020 
 ******************************************
 %chk=checkpoint.chk
 %mem=3GB
 %nprocshared=4
 Will use up to    4 processors via shared memory.
 -----------------------------------------
 #t pop=none jul-cc-pvdz guess=read ub3lyp
 -----------------------------------------
 -------------------------
 theory_abbreviation b3lyp
 -------------------------
 Symbolic Z-matrix:
 Charge =  0 Multiplicity = 6
 O                     0.28141   0.25759  -0.52267 
 C                     1.08113   1.20683  -0.2487 
 C                     2.74461   0.14694   0.9343 
 C                     3.10102  -0.67328  -0.09458 
 C                     4.18002  -0.3088   -1.06855 
 Fe                   -1.55806  -0.18234  -0.10088 
 Cl                   -1.87697  -2.06356  -1.1585 
 C                     2.39313  -1.97117  -0.32542 
 Cl                   -2.59568   1.58108  -0.89091 
 Cl                   -1.78763  -0.36386   2.07545 
 H                     3.33573   1.05097   1.07402 
 H                     2.9122   -2.59949  -1.05372 
 H                     2.25426  -2.53857   0.60016 
 H                     1.38507  -1.75893  -0.71661 
 H                     5.00992  -1.02084  -0.9619 
 H                     3.83473  -0.39746  -2.10653 
 H                     4.57535   0.6971   -0.9064 
 C                     1.95436  -0.34263   2.12481 
 H                     2.4938   -1.15646   2.62528 
 H                     1.80675   0.44931   2.86145 
 H                     0.97028  -0.72936   1.84826 
 C                     0.73836   2.14476   0.8819 
 H                     1.593     2.73826   1.21104 
 H                    -0.01846   2.82804   0.46944 
 H                     0.27989   1.62459   1.72192 
 C                     1.84787   1.79606  -1.40341 
 H                     1.17337   2.52747  -1.87016 
 H                     2.75014   2.32189  -1.08628 
 H                     2.08383   1.03916  -2.1504 
 
                    Distance matrix (angstroms):
                    1          2          3          4          5
     1  O    0.000000
     2  C    1.271093   0.000000
     3  C    2.863972   2.299999   0.000000
     4  C    2.999995   2.763783   1.363223   0.000000
     5  C    3.977176   3.545757   2.505892   1.498560   0.000000
     6  Fe   1.937806   2.986130   4.437675   4.684881   5.820475
     7  Cl   3.232741   4.502617   5.533992   5.276855   6.306692
     8  C    3.076621   3.439024   2.489338   1.496307   2.551216
     9  Cl   3.188242   3.751192   5.822954   6.178079   7.036570
    10  Cl   3.378957   4.012295   4.701520   5.357581   6.745410
    11  H    3.536627   2.618602   1.089136   2.096128   2.674402
    12  H    3.919942   4.299874   3.394578   2.160067   2.618170
    13  H    3.601574   4.015567   2.750281   2.163099   3.386001
    14  H    2.306952   3.017792   2.864643   2.123691   3.168358
    15  H    4.917935   4.572365   3.176619   2.125307   1.098681
    16  H    3.945089   3.688841   3.275872   2.159238   1.097492
    17  H    4.333391   3.591921   2.653757   2.170392   1.092895
    18  C    3.188758   2.965958   1.510463   2.519896   3.892590
    19  H    4.099240   3.980013   2.149691   2.828398   4.148038
    20  H    3.716950   3.282288   2.164475   3.416652   4.653180
    21  H    2.658937   2.856288   2.179785   2.884068   4.357415
    22  C    2.396464   1.508463   2.831798   3.804869   4.655025
    23  H    3.298449   2.176725   2.849162   3.951880   4.601498
    24  H    2.771538   2.086420   3.878006   4.723186   5.461906
    25  H    2.628098   2.167915   2.979702   4.066773   5.170659
    26  C    2.365665   1.506125   2.998095   3.062843   3.159349
    27  H    2.786337   2.093257   4.000084   4.136817   4.210336
    28  H    3.267046   2.174962   2.968697   3.174521   2.994229
    29  H    2.551283   2.156379   3.278421   2.862428   2.716879
                    6          7          8          9         10
     6  Fe   0.000000
     7  Cl   2.181576   0.000000
     8  C    4.343063   4.351579   0.000000
     9  Cl   2.193271   3.724459   6.150319   0.000000
    10  Cl   2.195922   3.654507   5.081958   3.637995   0.000000
    11  H    5.181755   6.469671   3.461251   6.270848   5.408634
    12  H    5.170471   4.820201   1.093001   6.916678   6.072739
    13  H    4.536190   4.515029   1.094492   6.535797   4.821065
    14  H    3.395112   3.305896   1.101930   5.199273   4.450599
    15  H    6.677034   6.968151   2.855846   8.038666   7.474206
    16  H    5.757693   6.024789   2.779769   6.836847   7.007204
    17  H    6.248272   7.022617   3.495611   7.225319   7.106647
    18  C    4.161307   5.331115   2.974604   5.787751   3.742370
    19  H    4.979800   5.851787   3.062760   6.764648   4.388749
    20  H    4.527287   6.003691   4.044591   5.894274   3.768097
    21  H    3.238970   4.350582   2.879489   5.055422   2.791286
    22  C    3.413907   5.358463   4.597471   3.817900   3.754772
    23  H    4.492237   6.380666   5.017930   4.827243   4.668934
    24  H    3.428991   5.480145   5.429542   3.169777   3.987153
    25  H    3.156844   5.152801   4.646163   3.885573   2.890250
    26  C    4.148609   5.369455   3.956179   4.478168   5.475809
    27  H    4.234868   5.557750   4.910371   4.007534   5.717964
    28  H    5.079635   6.375536   4.374551   5.400434   6.148255
    29  H    4.353837   5.128217   3.533877   4.876245   5.900372
                   11         12         13         14         15
    11  H    0.000000
    12  H    4.246470   0.000000
    13  H    3.778745   1.780989   0.000000
    14  H    3.860956   1.775475   1.759882   0.000000
    15  H    3.352657   2.626970   3.512437   3.707356   0.000000
    16  H    3.530278   2.609282   3.795834   3.128305   1.754948
    17  H    2.363036   3.695300   4.257549   4.030631   1.772923
    18  C    2.225861   4.014216   2.690101   3.225471   4.395931
    19  H    2.826300   3.973971   2.463480   3.572180   4.383734
    20  H    2.427897   5.083876   3.773744   4.225717   5.199972
    21  H    3.060121   3.961053   2.545503   2.794752   4.929568
    22  C    2.824821   5.565978   4.930607   4.267585   5.627331
    23  H    2.429570   5.946510   5.353068   4.897327   5.525200
    24  H    3.843704   6.353489   5.829475   4.941347   6.492087
    25  H    3.175991   5.698779   4.742188   4.314635   6.047672
    26  C    2.984380   4.536065   4.792533   3.650182   4.257744
    27  H    3.940055   5.475011   5.738944   4.443953   5.304195
    28  H    2.573921   4.924148   5.168558   4.318930   4.036819
    29  H    3.458946   3.889555   4.516051   3.220765   3.770694
                   16         17         18         19         20
    16  H    0.000000
    17  H    1.785190   0.000000
    18  C    4.630659   4.139907   0.000000
    19  H    4.976359   4.499027   1.097167   0.000000
    20  H    5.432363   4.682226   1.091606   1.762472   0.000000
    21  H    4.894441   4.755987   1.092904   1.762742   1.765074
    22  C    4.998107   4.473945   3.034899   4.125408   2.816852
    23  H    5.085701   4.188585   3.233795   4.240320   2.829988
    24  H    5.646814   5.247557   4.084777   5.180278   3.835552
    25  H    5.602012   5.120467   2.614597   3.667650   2.238549
    26  C    3.041958   2.982254   4.127182   5.036353   4.472633
    27  H    3.961550   3.981518   4.980682   5.960184   5.206542
    28  H    3.100338   2.450239   4.247827   5.093159   4.470028
    29  H    2.265271   2.805747   4.494834   5.272183   5.054046
                   21         22         23         24         25
    21  H    0.000000
    22  C    3.041089   0.000000
    23  H    3.580252   1.091326   0.000000
    24  H    3.941301   1.099892   1.776187   0.000000
    25  H    2.456357   1.089221   1.795967   1.762386   0.000000
    26  C    4.209660   2.564219   2.790706   2.838260   3.500801
    27  H    4.947206   2.812388   3.116783   2.642829   3.810057
    28  H    4.592335   2.819992   2.605769   3.215834   3.804513
    29  H    4.511867   3.496781   3.798310   3.805689   4.311818
                   26         27         28         29
    26  C    0.000000
    27  H    1.098984   0.000000
    28  H    1.091397   1.772825   0.000000
    29  H    1.089301   1.767066   1.794914   0.000000
 Framework group  C1[X(C8H16Cl3FeO)]
 Deg. of freedom    81
                         Standard orientation:                         
 ---------------------------------------------------------------------
 Center     Atomic      Atomic             Coordinates (Angstroms)
 Number     Number       Type             X           Y           Z
 ---------------------------------------------------------------------
      1          8           0        0.281412    0.257586   -0.522673
      2          6           0        1.081134    1.206829   -0.248701
      3          6           0        2.744608    0.146938    0.934296
      4          6           0        3.101023   -0.673276   -0.094584
      5          6           0        4.180021   -0.308803   -1.068548
      6         26           0       -1.558059   -0.182337   -0.100883
      7         17           0       -1.876966   -2.063564   -1.158502
      8          6           0        2.393125   -1.971170   -0.325419
      9         17           0       -2.595678    1.581082   -0.890908
     10         17           0       -1.787626   -0.363857    2.075449
     11          1           0        3.335726    1.050969    1.074024
     12          1           0        2.912204   -2.599487   -1.053723
     13          1           0        2.254255   -2.538569    0.600155
     14          1           0        1.385070   -1.758934   -0.716610
     15          1           0        5.009920   -1.020839   -0.961902
     16          1           0        3.834727   -0.397463   -2.106527
     17          1           0        4.575345    0.697102   -0.906396
     18          6           0        1.954358   -0.342633    2.124810
     19          1           0        2.493798   -1.156459    2.625278
     20          1           0        1.806746    0.449308    2.861454
     21          1           0        0.970284   -0.729362    1.848263
     22          6           0        0.738357    2.144759    0.881897
     23          1           0        1.593000    2.738257    1.211043
     24          1           0       -0.018461    2.828036    0.469440
     25          1           0        0.279894    1.624590    1.721920
     26          6           0        1.847870    1.796056   -1.403405
     27          1           0        1.173374    2.527466   -1.870161
     28          1           0        2.750136    2.321886   -1.086282
     29          1           0        2.083826    1.039156   -2.150401
 ---------------------------------------------------------------------
 Rotational constants (GHZ):           0.5958290           0.2987904           0.2857974
   427 basis functions,  1056 primitive gaussians,   461 cartesian basis functions
    77 alpha electrons       72 beta electrons
       nuclear repulsion energy      1613.1536956239 Hartrees.
 NAtoms=   29 NActive=   29 NUniq=   29 SFac= 1.00D+00 NAtFMM=   60 NAOKFM=F Big=F
 Initial guess from the checkpoint file:  "checkpoint.chk"
 B after Tr=     0.000000    0.000000    0.000000
         Rot=    1.000000    0.000000    0.000000    0.000000 Ang=   0.00 deg.
 Initial guess <Sx>= 0.0000 <Sy>= 0.0000 <Sz>= 2.5000 <S**2>= 8.7629 S= 2.5021
 SCF Done:  E(UB3LYP) =  -3034.34208380     A.U. after   14 cycles
            NFock= 14  Conv=0.89D-08     -V/T= 2.0024
 <Sx>= 0.0000 <Sy>= 0.0000 <Sz>= 2.5000 <S**2>= 8.7622 S= 2.5020
 <L.S>= 0.000000000000E+00
 Annihilation of the first spin contaminant:
 S**2 before annihilation     8.7622,   after     8.7500
 1\1\GINC-HOLY7C04207\SP\UB3LYP\Jul-CC-pVDZ\C8H16Cl3Fe1O1(6)\EKWAN\11-F
 eb-2020\0\\#t pop=none jul-cc-pvdz guess=read ub3lyp\\theory_abbreviat
 ion b3lyp\\0,6\O,0,0.281412,0.257586,-0.522673\C,0,1.081134,1.206829,-
 0.248701\C,0,2.744608,0.146938,0.934296\C,0,3.101023,-0.673276,-0.0945
 84\C,0,4.180021,-0.308803,-1.068548\Fe,0,-1.558059,-0.182337,-0.100883
 \Cl,0,-1.876966,-2.063564,-1.158502\C,0,2.393125,-1.97117,-0.325419\Cl
 ,0,-2.595678,1.581082,-0.890908\Cl,0,-1.787626,-0.363857,2.075449\H,0,
 3.335726,1.050969,1.074024\H,0,2.912204,-2.599487,-1.053723\H,0,2.2542
 55,-2.538569,0.600155\H,0,1.38507,-1.758934,-0.71661\H,0,5.00992,-1.02
 0839,-0.961902\H,0,3.834727,-0.397463,-2.106527\H,0,4.575345,0.697102,
 -0.906396\C,0,1.954358,-0.342633,2.12481\H,0,2.493798,-1.156459,2.6252
 78\H,0,1.806746,0.449308,2.861454\H,0,0.970284,-0.729362,1.848263\C,0,
 0.738357,2.144759,0.881897\H,0,1.593,2.738257,1.211043\H,0,-0.018461,2
 .828036,0.46944\H,0,0.279894,1.62459,1.72192\C,0,1.84787,1.796056,-1.4
 03405\H,0,1.173374,2.527466,-1.870161\H,0,2.750136,2.321886,-1.086282\
 H,0,2.083826,1.039156,-2.150401\\Version=ES64L-G16RevA.03\HF=-3034.342
 0838\S2=8.762174\S2-1=0.\S2A=8.750046\RMSD=8.899e-09\PG=C01 [X(C8H16Cl
 3Fe1O1)]\\@


 The cat could very well be man's best friend
 but would never stoop to admitting it.
                               -- Doug Larson
 Job cpu time:       0 days  0 hours 57 minutes 46.0 seconds.
 Elapsed time:       0 days  0 hours 14 minutes 29.2 seconds.
 File lengths (MBytes):  RWF=    174 Int=      0 D2E=      0 Chk=     13 Scr=      1
 Normal termination of Gaussian 16 at Tue Feb 11 14:15:01 2020.
 Initial command:
 /n/sw/g16_nehalem/g16/l1.exe "/scratch/Gau-411189.inp" -scrdir="/scratch/"
 Entering Link 1 = /n/sw/g16_nehalem/g16/l1.exe PID=    414637.
  
 Copyright (c) 1988,1990,1992,1993,1995,1998,2003,2009,2016,
            Gaussian, Inc.  All Rights Reserved.
  
 This is part of the Gaussian(R) 16 program.  It is based on
 the Gaussian(R) 09 system (copyright 2009, Gaussian, Inc.),
 the Gaussian(R) 03 system (copyright 2003, Gaussian, Inc.),
 the Gaussian(R) 98 system (copyright 1998, Gaussian, Inc.),
 the Gaussian(R) 94 system (copyright 1995, Gaussian, Inc.),
 the Gaussian 92(TM) system (copyright 1992, Gaussian, Inc.),
 the Gaussian 90(TM) system (copyright 1990, Gaussian, Inc.),
 the Gaussian 88(TM) system (copyright 1988, Gaussian, Inc.),
 the Gaussian 86(TM) system (copyright 1986, Carnegie Mellon
 University), and the Gaussian 82(TM) system (copyright 1983,
 Carnegie Mellon University). Gaussian is a federally registered
 trademark of Gaussian, Inc.
  
 This software contains proprietary and confidential information,
 including trade secrets, belonging to Gaussian, Inc.
  
 This software is provided under written license and may be
 used, copied, transmitted, or stored only in accord with that
 written license.
  
 The following legend is applicable only to US Government
 contracts under FAR:
  
                    RESTRICTED RIGHTS LEGEND
  
 Use, reproduction and disclosure by the US Government is
 subject to restrictions as set forth in subparagraphs (a)
 and (c) of the Commercial Computer Software - Restricted
 Rights clause in FAR 52.227-19.
  
 Gaussian, Inc.
 340 Quinnipiac St., Bldg. 40, Wallingford CT 06492
  
  
 ---------------------------------------------------------------
 Warning -- This program may not be used in any manner that
 competes with the business of Gaussian, Inc. or will provide
 assistance to any competitor of Gaussian, Inc.  The licensee
 of this program is prohibited from giving any competitor of
 Gaussian, Inc. access to this program.  By using this program,
 the user acknowledges that Gaussian, Inc. is engaged in the
 business of creating and licensing software in the field of
 computational chemistry and represents and warrants to the
 licensee that it is not a competitor of Gaussian, Inc. and that
 it will not use this program in any manner prohibited above.
 ---------------------------------------------------------------
  

 Cite this work as:
 Gaussian 16, Revision A.03,
 M. J. Frisch, G. W. Trucks, H. B. Schlegel, G. E. Scuseria, 
 M. A. Robb, J. R. Cheeseman, G. Scalmani, V. Barone, 
 G. A. Petersson, H. Nakatsuji, X. Li, M. Caricato, A. V. Marenich, 
 J. Bloino, B. G. Janesko, R. Gomperts, B. Mennucci, H. P. Hratchian, 
 J. V. Ortiz, A. F. Izmaylov, J. L. Sonnenberg, D. Williams-Young, 
 F. Ding, F. Lipparini, F. Egidi, J. Goings, B. Peng, A. Petrone, 
 T. Henderson, D. Ranasinghe, V. G. Zakrzewski, J. Gao, N. Rega, 
 G. Zheng, W. Liang, M. Hada, M. Ehara, K. Toyota, R. Fukuda, 
 J. Hasegawa, M. Ishida, T. Nakajima, Y. Honda, O. Kitao, H. Nakai, 
 T. Vreven, K. Throssell, J. A. Montgomery, Jr., J. E. Peralta, 
 F. Ogliaro, M. J. Bearpark, J. J. Heyd, E. N. Brothers, K. N. Kudin, 
 V. N. Staroverov, T. A. Keith, R. Kobayashi, J. Normand, 
 K. Raghavachari, A. P. Rendell, J. C. Burant, S. S. Iyengar, 
 J. Tomasi, M. Cossi, J. M. Millam, M. Klene, C. Adamo, R. Cammi, 
 J. W. Ochterski, R. L. Martin, K. Morokuma, O. Farkas, 
 J. B. Foresman, and D. J. Fox, Gaussian, Inc., Wallingford CT, 2016.
 
 ******************************************
 Gaussian 16:  ES64L-G16RevA.03 25-Dec-2016
                11-Feb-2020 
 ******************************************
 %chk=checkpoint.chk
 %mem=3GB
 %nprocshared=4
 Will use up to    4 processors via shared memory.
 -------------------------------------------------------------------
 #t pop=none jul-cc-pvdz guess=read ub3lyp empiricaldispersion=gd3bj
 -------------------------------------------------------------------
 ------------------------------
 theory_abbreviation b3lyp_d3bj
 ------------------------------
 Symbolic Z-matrix:
 Charge =  0 Multiplicity = 6
 O                     0.28141   0.25759  -0.52267 
 C                     1.08113   1.20683  -0.2487 
 C                     2.74461   0.14694   0.9343 
 C                     3.10102  -0.67328  -0.09458 
 C                     4.18002  -0.3088   -1.06855 
 Fe                   -1.55806  -0.18234  -0.10088 
 Cl                   -1.87697  -2.06356  -1.1585 
 C                     2.39313  -1.97117  -0.32542 
 Cl                   -2.59568   1.58108  -0.89091 
 Cl                   -1.78763  -0.36386   2.07545 
 H                     3.33573   1.05097   1.07402 
 H                     2.9122   -2.59949  -1.05372 
 H                     2.25426  -2.53857   0.60016 
 H                     1.38507  -1.75893  -0.71661 
 H                     5.00992  -1.02084  -0.9619 
 H                     3.83473  -0.39746  -2.10653 
 H                     4.57535   0.6971   -0.9064 
 C                     1.95436  -0.34263   2.12481 
 H                     2.4938   -1.15646   2.62528 
 H                     1.80675   0.44931   2.86145 
 H                     0.97028  -0.72936   1.84826 
 C                     0.73836   2.14476   0.8819 
 H                     1.593     2.73826   1.21104 
 H                    -0.01846   2.82804   0.46944 
 H                     0.27989   1.62459   1.72192 
 C                     1.84787   1.79606  -1.40341 
 H                     1.17337   2.52747  -1.87016 
 H                     2.75014   2.32189  -1.08628 
 H                     2.08383   1.03916  -2.1504 
 
                    Distance matrix (angstroms):
                    1          2          3          4          5
     1  O    0.000000
     2  C    1.271093   0.000000
     3  C    2.863972   2.299999   0.000000
     4  C    2.999995   2.763783   1.363223   0.000000
     5  C    3.977176   3.545757   2.505892   1.498560   0.000000
     6  Fe   1.937806   2.986130   4.437675   4.684881   5.820475
     7  Cl   3.232741   4.502617   5.533992   5.276855   6.306692
     8  C    3.076621   3.439024   2.489338   1.496307   2.551216
     9  Cl   3.188242   3.751192   5.822954   6.178079   7.036570
    10  Cl   3.378957   4.012295   4.701520   5.357581   6.745410
    11  H    3.536627   2.618602   1.089136   2.096128   2.674402
    12  H    3.919942   4.299874   3.394578   2.160067   2.618170
    13  H    3.601574   4.015567   2.750281   2.163099   3.386001
    14  H    2.306952   3.017792   2.864643   2.123691   3.168358
    15  H    4.917935   4.572365   3.176619   2.125307   1.098681
    16  H    3.945089   3.688841   3.275872   2.159238   1.097492
    17  H    4.333391   3.591921   2.653757   2.170392   1.092895
    18  C    3.188758   2.965958   1.510463   2.519896   3.892590
    19  H    4.099240   3.980013   2.149691   2.828398   4.148038
    20  H    3.716950   3.282288   2.164475   3.416652   4.653180
    21  H    2.658937   2.856288   2.179785   2.884068   4.357415
    22  C    2.396464   1.508463   2.831798   3.804869   4.655025
    23  H    3.298449   2.176725   2.849162   3.951880   4.601498
    24  H    2.771538   2.086420   3.878006   4.723186   5.461906
    25  H    2.628098   2.167915   2.979702   4.066773   5.170659
    26  C    2.365665   1.506125   2.998095   3.062843   3.159349
    27  H    2.786337   2.093257   4.000084   4.136817   4.210336
    28  H    3.267046   2.174962   2.968697   3.174521   2.994229
    29  H    2.551283   2.156379   3.278421   2.862428   2.716879
                    6          7          8          9         10
     6  Fe   0.000000
     7  Cl   2.181576   0.000000
     8  C    4.343063   4.351579   0.000000
     9  Cl   2.193271   3.724459   6.150319   0.000000
    10  Cl   2.195922   3.654507   5.081958   3.637995   0.000000
    11  H    5.181755   6.469671   3.461251   6.270848   5.408634
    12  H    5.170471   4.820201   1.093001   6.916678   6.072739
    13  H    4.536190   4.515029   1.094492   6.535797   4.821065
    14  H    3.395112   3.305896   1.101930   5.199273   4.450599
    15  H    6.677034   6.968151   2.855846   8.038666   7.474206
    16  H    5.757693   6.024789   2.779769   6.836847   7.007204
    17  H    6.248272   7.022617   3.495611   7.225319   7.106647
    18  C    4.161307   5.331115   2.974604   5.787751   3.742370
    19  H    4.979800   5.851787   3.062760   6.764648   4.388749
    20  H    4.527287   6.003691   4.044591   5.894274   3.768097
    21  H    3.238970   4.350582   2.879489   5.055422   2.791286
    22  C    3.413907   5.358463   4.597471   3.817900   3.754772
    23  H    4.492237   6.380666   5.017930   4.827243   4.668934
    24  H    3.428991   5.480145   5.429542   3.169777   3.987153
    25  H    3.156844   5.152801   4.646163   3.885573   2.890250
    26  C    4.148609   5.369455   3.956179   4.478168   5.475809
    27  H    4.234868   5.557750   4.910371   4.007534   5.717964
    28  H    5.079635   6.375536   4.374551   5.400434   6.148255
    29  H    4.353837   5.128217   3.533877   4.876245   5.900372
                   11         12         13         14         15
    11  H    0.000000
    12  H    4.246470   0.000000
    13  H    3.778745   1.780989   0.000000
    14  H    3.860956   1.775475   1.759882   0.000000
    15  H    3.352657   2.626970   3.512437   3.707356   0.000000
    16  H    3.530278   2.609282   3.795834   3.128305   1.754948
    17  H    2.363036   3.695300   4.257549   4.030631   1.772923
    18  C    2.225861   4.014216   2.690101   3.225471   4.395931
    19  H    2.826300   3.973971   2.463480   3.572180   4.383734
    20  H    2.427897   5.083876   3.773744   4.225717   5.199972
    21  H    3.060121   3.961053   2.545503   2.794752   4.929568
    22  C    2.824821   5.565978   4.930607   4.267585   5.627331
    23  H    2.429570   5.946510   5.353068   4.897327   5.525200
    24  H    3.843704   6.353489   5.829475   4.941347   6.492087
    25  H    3.175991   5.698779   4.742188   4.314635   6.047672
    26  C    2.984380   4.536065   4.792533   3.650182   4.257744
    27  H    3.940055   5.475011   5.738944   4.443953   5.304195
    28  H    2.573921   4.924148   5.168558   4.318930   4.036819
    29  H    3.458946   3.889555   4.516051   3.220765   3.770694
                   16         17         18         19         20
    16  H    0.000000
    17  H    1.785190   0.000000
    18  C    4.630659   4.139907   0.000000
    19  H    4.976359   4.499027   1.097167   0.000000
    20  H    5.432363   4.682226   1.091606   1.762472   0.000000
    21  H    4.894441   4.755987   1.092904   1.762742   1.765074
    22  C    4.998107   4.473945   3.034899   4.125408   2.816852
    23  H    5.085701   4.188585   3.233795   4.240320   2.829988
    24  H    5.646814   5.247557   4.084777   5.180278   3.835552
    25  H    5.602012   5.120467   2.614597   3.667650   2.238549
    26  C    3.041958   2.982254   4.127182   5.036353   4.472633
    27  H    3.961550   3.981518   4.980682   5.960184   5.206542
    28  H    3.100338   2.450239   4.247827   5.093159   4.470028
    29  H    2.265271   2.805747   4.494834   5.272183   5.054046
                   21         22         23         24         25
    21  H    0.000000
    22  C    3.041089   0.000000
    23  H    3.580252   1.091326   0.000000
    24  H    3.941301   1.099892   1.776187   0.000000
    25  H    2.456357   1.089221   1.795967   1.762386   0.000000
    26  C    4.209660   2.564219   2.790706   2.838260   3.500801
    27  H    4.947206   2.812388   3.116783   2.642829   3.810057
    28  H    4.592335   2.819992   2.605769   3.215834   3.804513
    29  H    4.511867   3.496781   3.798310   3.805689   4.311818
                   26         27         28         29
    26  C    0.000000
    27  H    1.098984   0.000000
    28  H    1.091397   1.772825   0.000000
    29  H    1.089301   1.767066   1.794914   0.000000
 Framework group  C1[X(C8H16Cl3FeO)]
 Deg. of freedom    81
                         Standard orientation:                         
 ---------------------------------------------------------------------
 Center     Atomic      Atomic             Coordinates (Angstroms)
 Number     Number       Type             X           Y           Z
 ---------------------------------------------------------------------
      1          8           0        0.281412    0.257586   -0.522673
      2          6           0        1.081134    1.206829   -0.248701
      3          6           0        2.744608    0.146938    0.934296
      4          6           0        3.101023   -0.673276   -0.094584
      5          6           0        4.180021   -0.308803   -1.068548
      6         26           0       -1.558059   -0.182337   -0.100883
      7         17           0       -1.876966   -2.063564   -1.158502
      8          6           0        2.393125   -1.971170   -0.325419
      9         17           0       -2.595678    1.581082   -0.890908
     10         17           0       -1.787626   -0.363857    2.075449
     11          1           0        3.335726    1.050969    1.074024
     12          1           0        2.912204   -2.599487   -1.053723
     13          1           0        2.254255   -2.538569    0.600155
     14          1           0        1.385070   -1.758934   -0.716610
     15          1           0        5.009920   -1.020839   -0.961902
     16          1           0        3.834727   -0.397463   -2.106527
     17          1           0        4.575345    0.697102   -0.906396
     18          6           0        1.954358   -0.342633    2.124810
     19          1           0        2.493798   -1.156459    2.625278
     20          1           0        1.806746    0.449308    2.861454
     21          1           0        0.970284   -0.729362    1.848263
     22          6           0        0.738357    2.144759    0.881897
     23          1           0        1.593000    2.738257    1.211043
     24          1           0       -0.018461    2.828036    0.469440
     25          1           0        0.279894    1.624590    1.721920
     26          6           0        1.847870    1.796056   -1.403405
     27          1           0        1.173374    2.527466   -1.870161
     28          1           0        2.750136    2.321886   -1.086282
     29          1           0        2.083826    1.039156   -2.150401
 ---------------------------------------------------------------------
 Rotational constants (GHZ):           0.5958290           0.2987904           0.2857974
   427 basis functions,  1056 primitive gaussians,   461 cartesian basis functions
    77 alpha electrons       72 beta electrons
       nuclear repulsion energy      1613.1536956239 Hartrees.
 NAtoms=   29 NActive=   29 NUniq=   29 SFac= 1.00D+00 NAtFMM=   60 NAOKFM=F Big=F
 Nuclear repulsion after empirical dispersion term =     1613.0862253802 Hartrees.
 Initial guess from the checkpoint file:  "checkpoint.chk"
 B after Tr=     0.000000    0.000000    0.000000
         Rot=    1.000000    0.000000    0.000000    0.000000 Ang=   0.00 deg.
 Initial guess <Sx>= 0.0000 <Sy>= 0.0000 <Sz>= 2.5000 <S**2>= 8.7622 S= 2.5020
 SCF Done:  E(UB3LYP) =  -3034.40955404     A.U. after    1 cycles
            NFock=  1  Conv=0.43D-08     -V/T= 2.0024
 <Sx>= 0.0000 <Sy>= 0.0000 <Sz>= 2.5000 <S**2>= 8.7622 S= 2.5020
 <L.S>= 0.000000000000E+00
 Annihilation of the first spin contaminant:
 S**2 before annihilation     8.7622,   after     8.7500
 1\1\GINC-HOLY7C04207\SP\UB3LYP\Jul-CC-pVDZ\C8H16Cl3Fe1O1(6)\EKWAN\11-F
 eb-2020\0\\#t pop=none jul-cc-pvdz guess=read ub3lyp empiricaldispersi
 on=gd3bj\\theory_abbreviation b3lyp_d3bj\\0,6\O,0,0.281412,0.257586,-0
 .522673\C,0,1.081134,1.206829,-0.248701\C,0,2.744608,0.146938,0.934296
 \C,0,3.101023,-0.673276,-0.094584\C,0,4.180021,-0.308803,-1.068548\Fe,
 0,-1.558059,-0.182337,-0.100883\Cl,0,-1.876966,-2.063564,-1.158502\C,0
 ,2.393125,-1.97117,-0.325419\Cl,0,-2.595678,1.581082,-0.890908\Cl,0,-1
 .787626,-0.363857,2.075449\H,0,3.335726,1.050969,1.074024\H,0,2.912204
 ,-2.599487,-1.053723\H,0,2.254255,-2.538569,0.600155\H,0,1.38507,-1.75
 8934,-0.71661\H,0,5.00992,-1.020839,-0.961902\H,0,3.834727,-0.397463,-
 2.106527\H,0,4.575345,0.697102,-0.906396\C,0,1.954358,-0.342633,2.1248
 1\H,0,2.493798,-1.156459,2.625278\H,0,1.806746,0.449308,2.861454\H,0,0
 .970284,-0.729362,1.848263\C,0,0.738357,2.144759,0.881897\H,0,1.593,2.
 738257,1.211043\H,0,-0.018461,2.828036,0.46944\H,0,0.279894,1.62459,1.
 72192\C,0,1.84787,1.796056,-1.403405\H,0,1.173374,2.527466,-1.870161\H
 ,0,2.750136,2.321886,-1.086282\H,0,2.083826,1.039156,-2.150401\\Versio
 n=ES64L-G16RevA.03\HF=-3034.409554\S2=8.762174\S2-1=0.\S2A=8.750046\RM
 SD=4.254e-09\PG=C01 [X(C8H16Cl3Fe1O1)]\\@


 Where a calculator on the ENIAC is equipped with 18,000
 vacuum tubes and weighs 30 tons, computers inthe future
 may  have only 1,000 vacuum tubes and weigh only 1 1/2 tons.
              ---Popular Mechanics, March 1949
 Job cpu time:       0 days  0 hours  4 minutes 30.5 seconds.
 Elapsed time:       0 days  0 hours  1 minutes  8.2 seconds.
 File lengths (MBytes):  RWF=    170 Int=      0 D2E=      0 Chk=     13 Scr=      1
 Normal termination of Gaussian 16 at Tue Feb 11 14:16:10 2020.
 Initial command:
 /n/sw/g16_nehalem/g16/l1.exe "/scratch/Gau-411189.inp" -scrdir="/scratch/"
 Entering Link 1 = /n/sw/g16_nehalem/g16/l1.exe PID=    415028.
  
 Copyright (c) 1988,1990,1992,1993,1995,1998,2003,2009,2016,
            Gaussian, Inc.  All Rights Reserved.
  
 This is part of the Gaussian(R) 16 program.  It is based on
 the Gaussian(R) 09 system (copyright 2009, Gaussian, Inc.),
 the Gaussian(R) 03 system (copyright 2003, Gaussian, Inc.),
 the Gaussian(R) 98 system (copyright 1998, Gaussian, Inc.),
 the Gaussian(R) 94 system (copyright 1995, Gaussian, Inc.),
 the Gaussian 92(TM) system (copyright 1992, Gaussian, Inc.),
 the Gaussian 90(TM) system (copyright 1990, Gaussian, Inc.),
 the Gaussian 88(TM) system (copyright 1988, Gaussian, Inc.),
 the Gaussian 86(TM) system (copyright 1986, Carnegie Mellon
 University), and the Gaussian 82(TM) system (copyright 1983,
 Carnegie Mellon University). Gaussian is a federally registered
 trademark of Gaussian, Inc.
  
 This software contains proprietary and confidential information,
 including trade secrets, belonging to Gaussian, Inc.
  
 This software is provided under written license and may be
 used, copied, transmitted, or stored only in accord with that
 written license.
  
 The following legend is applicable only to US Government
 contracts under FAR:
  
                    RESTRICTED RIGHTS LEGEND
  
 Use, reproduction and disclosure by the US Government is
 subject to restrictions as set forth in subparagraphs (a)
 and (c) of the Commercial Computer Software - Restricted
 Rights clause in FAR 52.227-19.
  
 Gaussian, Inc.
 340 Quinnipiac St., Bldg. 40, Wallingford CT 06492
  
  
 ---------------------------------------------------------------
 Warning -- This program may not be used in any manner that
 competes with the business of Gaussian, Inc. or will provide
 assistance to any competitor of Gaussian, Inc.  The licensee
 of this program is prohibited from giving any competitor of
 Gaussian, Inc. access to this program.  By using this program,
 the user acknowledges that Gaussian, Inc. is engaged in the
 business of creating and licensing software in the field of
 computational chemistry and represents and warrants to the
 licensee that it is not a competitor of Gaussian, Inc. and that
 it will not use this program in any manner prohibited above.
 ---------------------------------------------------------------
  

 Cite this work as:
 Gaussian 16, Revision A.03,
 M. J. Frisch, G. W. Trucks, H. B. Schlegel, G. E. Scuseria, 
 M. A. Robb, J. R. Cheeseman, G. Scalmani, V. Barone, 
 G. A. Petersson, H. Nakatsuji, X. Li, M. Caricato, A. V. Marenich, 
 J. Bloino, B. G. Janesko, R. Gomperts, B. Mennucci, H. P. Hratchian, 
 J. V. Ortiz, A. F. Izmaylov, J. L. Sonnenberg, D. Williams-Young, 
 F. Ding, F. Lipparini, F. Egidi, J. Goings, B. Peng, A. Petrone, 
 T. Henderson, D. Ranasinghe, V. G. Zakrzewski, J. Gao, N. Rega, 
 G. Zheng, W. Liang, M. Hada, M. Ehara, K. Toyota, R. Fukuda, 
 J. Hasegawa, M. Ishida, T. Nakajima, Y. Honda, O. Kitao, H. Nakai, 
 T. Vreven, K. Throssell, J. A. Montgomery, Jr., J. E. Peralta, 
 F. Ogliaro, M. J. Bearpark, J. J. Heyd, E. N. Brothers, K. N. Kudin, 
 V. N. Staroverov, T. A. Keith, R. Kobayashi, J. Normand, 
 K. Raghavachari, A. P. Rendell, J. C. Burant, S. S. Iyengar, 
 J. Tomasi, M. Cossi, J. M. Millam, M. Klene, C. Adamo, R. Cammi, 
 J. W. Ochterski, R. L. Martin, K. Morokuma, O. Farkas, 
 J. B. Foresman, and D. J. Fox, Gaussian, Inc., Wallingford CT, 2016.
 
 ******************************************
 Gaussian 16:  ES64L-G16RevA.03 25-Dec-2016
                11-Feb-2020 
 ******************************************
 %chk=checkpoint.chk
 %mem=3GB
 %nprocshared=4
 Will use up to    4 processors via shared memory.
 ----------------------------------------
 #t pop=none jul-cc-pvdz guess=read ub97d
 ----------------------------------------
 ------------------------
 theory_abbreviation b97d
 ------------------------
 Symbolic Z-matrix:
 Charge =  0 Multiplicity = 6
 O                     0.28141   0.25759  -0.52267 
 C                     1.08113   1.20683  -0.2487 
 C                     2.74461   0.14694   0.9343 
 C                     3.10102  -0.67328  -0.09458 
 C                     4.18002  -0.3088   -1.06855 
 Fe                   -1.55806  -0.18234  -0.10088 
 Cl                   -1.87697  -2.06356  -1.1585 
 C                     2.39313  -1.97117  -0.32542 
 Cl                   -2.59568   1.58108  -0.89091 
 Cl                   -1.78763  -0.36386   2.07545 
 H                     3.33573   1.05097   1.07402 
 H                     2.9122   -2.59949  -1.05372 
 H                     2.25426  -2.53857   0.60016 
 H                     1.38507  -1.75893  -0.71661 
 H                     5.00992  -1.02084  -0.9619 
 H                     3.83473  -0.39746  -2.10653 
 H                     4.57535   0.6971   -0.9064 
 C                     1.95436  -0.34263   2.12481 
 H                     2.4938   -1.15646   2.62528 
 H                     1.80675   0.44931   2.86145 
 H                     0.97028  -0.72936   1.84826 
 C                     0.73836   2.14476   0.8819 
 H                     1.593     2.73826   1.21104 
 H                    -0.01846   2.82804   0.46944 
 H                     0.27989   1.62459   1.72192 
 C                     1.84787   1.79606  -1.40341 
 H                     1.17337   2.52747  -1.87016 
 H                     2.75014   2.32189  -1.08628 
 H                     2.08383   1.03916  -2.1504 
 
                    Distance matrix (angstroms):
                    1          2          3          4          5
     1  O    0.000000
     2  C    1.271093   0.000000
     3  C    2.863972   2.299999   0.000000
     4  C    2.999995   2.763783   1.363223   0.000000
     5  C    3.977176   3.545757   2.505892   1.498560   0.000000
     6  Fe   1.937806   2.986130   4.437675   4.684881   5.820475
     7  Cl   3.232741   4.502617   5.533992   5.276855   6.306692
     8  C    3.076621   3.439024   2.489338   1.496307   2.551216
     9  Cl   3.188242   3.751192   5.822954   6.178079   7.036570
    10  Cl   3.378957   4.012295   4.701520   5.357581   6.745410
    11  H    3.536627   2.618602   1.089136   2.096128   2.674402
    12  H    3.919942   4.299874   3.394578   2.160067   2.618170
    13  H    3.601574   4.015567   2.750281   2.163099   3.386001
    14  H    2.306952   3.017792   2.864643   2.123691   3.168358
    15  H    4.917935   4.572365   3.176619   2.125307   1.098681
    16  H    3.945089   3.688841   3.275872   2.159238   1.097492
    17  H    4.333391   3.591921   2.653757   2.170392   1.092895
    18  C    3.188758   2.965958   1.510463   2.519896   3.892590
    19  H    4.099240   3.980013   2.149691   2.828398   4.148038
    20  H    3.716950   3.282288   2.164475   3.416652   4.653180
    21  H    2.658937   2.856288   2.179785   2.884068   4.357415
    22  C    2.396464   1.508463   2.831798   3.804869   4.655025
    23  H    3.298449   2.176725   2.849162   3.951880   4.601498
    24  H    2.771538   2.086420   3.878006   4.723186   5.461906
    25  H    2.628098   2.167915   2.979702   4.066773   5.170659
    26  C    2.365665   1.506125   2.998095   3.062843   3.159349
    27  H    2.786337   2.093257   4.000084   4.136817   4.210336
    28  H    3.267046   2.174962   2.968697   3.174521   2.994229
    29  H    2.551283   2.156379   3.278421   2.862428   2.716879
                    6          7          8          9         10
     6  Fe   0.000000
     7  Cl   2.181576   0.000000
     8  C    4.343063   4.351579   0.000000
     9  Cl   2.193271   3.724459   6.150319   0.000000
    10  Cl   2.195922   3.654507   5.081958   3.637995   0.000000
    11  H    5.181755   6.469671   3.461251   6.270848   5.408634
    12  H    5.170471   4.820201   1.093001   6.916678   6.072739
    13  H    4.536190   4.515029   1.094492   6.535797   4.821065
    14  H    3.395112   3.305896   1.101930   5.199273   4.450599
    15  H    6.677034   6.968151   2.855846   8.038666   7.474206
    16  H    5.757693   6.024789   2.779769   6.836847   7.007204
    17  H    6.248272   7.022617   3.495611   7.225319   7.106647
    18  C    4.161307   5.331115   2.974604   5.787751   3.742370
    19  H    4.979800   5.851787   3.062760   6.764648   4.388749
    20  H    4.527287   6.003691   4.044591   5.894274   3.768097
    21  H    3.238970   4.350582   2.879489   5.055422   2.791286
    22  C    3.413907   5.358463   4.597471   3.817900   3.754772
    23  H    4.492237   6.380666   5.017930   4.827243   4.668934
    24  H    3.428991   5.480145   5.429542   3.169777   3.987153
    25  H    3.156844   5.152801   4.646163   3.885573   2.890250
    26  C    4.148609   5.369455   3.956179   4.478168   5.475809
    27  H    4.234868   5.557750   4.910371   4.007534   5.717964
    28  H    5.079635   6.375536   4.374551   5.400434   6.148255
    29  H    4.353837   5.128217   3.533877   4.876245   5.900372
                   11         12         13         14         15
    11  H    0.000000
    12  H    4.246470   0.000000
    13  H    3.778745   1.780989   0.000000
    14  H    3.860956   1.775475   1.759882   0.000000
    15  H    3.352657   2.626970   3.512437   3.707356   0.000000
    16  H    3.530278   2.609282   3.795834   3.128305   1.754948
    17  H    2.363036   3.695300   4.257549   4.030631   1.772923
    18  C    2.225861   4.014216   2.690101   3.225471   4.395931
    19  H    2.826300   3.973971   2.463480   3.572180   4.383734
    20  H    2.427897   5.083876   3.773744   4.225717   5.199972
    21  H    3.060121   3.961053   2.545503   2.794752   4.929568
    22  C    2.824821   5.565978   4.930607   4.267585   5.627331
    23  H    2.429570   5.946510   5.353068   4.897327   5.525200
    24  H    3.843704   6.353489   5.829475   4.941347   6.492087
    25  H    3.175991   5.698779   4.742188   4.314635   6.047672
    26  C    2.984380   4.536065   4.792533   3.650182   4.257744
    27  H    3.940055   5.475011   5.738944   4.443953   5.304195
    28  H    2.573921   4.924148   5.168558   4.318930   4.036819
    29  H    3.458946   3.889555   4.516051   3.220765   3.770694
                   16         17         18         19         20
    16  H    0.000000
    17  H    1.785190   0.000000
    18  C    4.630659   4.139907   0.000000
    19  H    4.976359   4.499027   1.097167   0.000000
    20  H    5.432363   4.682226   1.091606   1.762472   0.000000
    21  H    4.894441   4.755987   1.092904   1.762742   1.765074
    22  C    4.998107   4.473945   3.034899   4.125408   2.816852
    23  H    5.085701   4.188585   3.233795   4.240320   2.829988
    24  H    5.646814   5.247557   4.084777   5.180278   3.835552
    25  H    5.602012   5.120467   2.614597   3.667650   2.238549
[...]
 ---------------------------------------------------------------------
 Rotational constants (GHZ):           0.5958290           0.2987904           0.2857974
   427 basis functions,  1056 primitive gaussians,   461 cartesian basis functions
    77 alpha electrons       72 beta electrons
       nuclear repulsion energy      1613.1536956239 Hartrees.
 NAtoms=   29 NActive=   29 NUniq=   29 SFac= 1.00D+00 NAtFMM=   60 NAOKFM=F Big=F
 Nuclear repulsion after empirical dispersion term =     1613.1512154549 Hartrees.
 Initial guess from the checkpoint file:  "checkpoint.chk"
 B after Tr=     0.000000    0.000000    0.000000
         Rot=    1.000000    0.000000    0.000000    0.000000 Ang=   0.00 deg.
 Initial guess <Sx>= 0.0000 <Sy>= 0.0000 <Sz>= 2.5000 <S**2>= 8.7619 S= 2.5020
 SCF Done:  E(UM06L) =  -3034.20739263     A.U. after   16 cycles
            NFock= 16  Conv=0.92D-08     -V/T= 2.0020
 <Sx>= 0.0000 <Sy>= 0.0000 <Sz>= 2.5000 <S**2>= 8.7618 S= 2.5020
 <L.S>= 0.000000000000E+00
 Annihilation of the first spin contaminant:
 S**2 before annihilation     8.7618,   after     8.7500
 1\1\GINC-HOLY7C04207\SP\UM06L\Jul-CC-pVDZ\C8H16Cl3Fe1O1(6)\EKWAN\11-Fe
 b-2020\0\\#t pop=none jul-cc-pvdz guess=read um06l empiricaldispersion
 =gd3\\theory_abbreviation m06l_d3\\0,6\O,0,0.281412,0.257586,-0.522673
 \C,0,1.081134,1.206829,-0.248701\C,0,2.744608,0.146938,0.934296\C,0,3.
 101023,-0.673276,-0.094584\C,0,4.180021,-0.308803,-1.068548\Fe,0,-1.55
 8059,-0.182337,-0.100883\Cl,0,-1.876966,-2.063564,-1.158502\C,0,2.3931
 25,-1.97117,-0.325419\Cl,0,-2.595678,1.581082,-0.890908\Cl,0,-1.787626
 ,-0.363857,2.075449\H,0,3.335726,1.050969,1.074024\H,0,2.912204,-2.599
 487,-1.053723\H,0,2.254255,-2.538569,0.600155\H,0,1.38507,-1.758934,-0
 .71661\H,0,5.00992,-1.020839,-0.961902\H,0,3.834727,-0.397463,-2.10652
 7\H,0,4.575345,0.697102,-0.906396\C,0,1.954358,-0.342633,2.12481\H,0,2
 .493798,-1.156459,2.625278\H,0,1.806746,0.449308,2.861454\H,0,0.970284
 ,-0.729362,1.848263\C,0,0.738357,2.144759,0.881897\H,0,1.593,2.738257,
 1.211043\H,0,-0.018461,2.828036,0.46944\H,0,0.279894,1.62459,1.72192\C
 ,0,1.84787,1.796056,-1.403405\H,0,1.173374,2.527466,-1.870161\H,0,2.75
 0136,2.321886,-1.086282\H,0,2.083826,1.039156,-2.150401\\Version=ES64L
 -G16RevA.03\HF=-3034.2073926\S2=8.761772\S2-1=0.\S2A=8.750044\RMSD=9.1
 56e-09\PG=C01 [X(C8H16Cl3Fe1O1)]\\@


 IF YOU'RE NOT PART OF THE SOLUTION,
 THEN YOU'RE PART OF THE PRECIPITATE.
 Job cpu time:       0 days  1 hours 10 minutes  1.3 seconds.
 Elapsed time:       0 days  0 hours 17 minutes 33.4 seconds.
 File lengths (MBytes):  RWF=    174 Int=      0 D2E=      0 Chk=     13 Scr=      1
 Normal termination of Gaussian 16 at Tue Feb 11 23:19:58 2020.
 Initial command:
 /n/sw/g16_nehalem/g16/l1.exe "/scratch/Gau-411189.inp" -scrdir="/scratch/"
 Entering Link 1 = /n/sw/g16_nehalem/g16/l1.exe PID=      7476.
  
 Copyright (c) 1988,1990,1992,1993,1995,1998,2003,2009,2016,
            Gaussian, Inc.  All Rights Reserved.
  
 This is part of the Gaussian(R) 16 program.  It is based on
 the Gaussian(R) 09 system (copyright 2009, Gaussian, Inc.),
 the Gaussian(R) 03 system (copyright 2003, Gaussian, Inc.),
 the Gaussian(R) 98 system (copyright 1998, Gaussian, Inc.),
 the Gaussian(R) 94 system (copyright 1995, Gaussian, Inc.),
 the Gaussian 92(TM) system (copyright 1992, Gaussian, Inc.),
 the Gaussian 90(TM) system (copyright 1990, Gaussian, Inc.),
 the Gaussian 88(TM) system (copyright 1988, Gaussian, Inc.),
 the Gaussian 86(TM) system (copyright 1986, Carnegie Mellon
 University), and the Gaussian 82(TM) system (copyright 1983,
 Carnegie Mellon University). Gaussian is a federally registered
 trademark of Gaussian, Inc.
  
 This software contains proprietary and confidential information,
 including trade secrets, belonging to Gaussian, Inc.
  
 This software is provided under written license and may be
 used, copied, transmitted, or stored only in accord with that
 written license.
  
 The following legend is applicable only to US Government
 contracts under FAR:
  
                    RESTRICTED RIGHTS LEGEND
  
 Use, reproduction and disclosure by the US Government is
 subject to restrictions as set forth in subparagraphs (a)
 and (c) of the Commercial Computer Software - Restricted
 Rights clause in FAR 52.227-19.
  
 Gaussian, Inc.
 340 Quinnipiac St., Bldg. 40, Wallingford CT 06492
  
  
 ---------------------------------------------------------------
 Warning -- This program may not be used in any manner that
 competes with the business of Gaussian, Inc. or will provide
 assistance to any competitor of Gaussian, Inc.  The licensee
 of this program is prohibited from giving any competitor of
 Gaussian, Inc. access to this program.  By using this program,
 the user acknowledges that Gaussian, Inc. is engaged in the
 business of creating and licensing software in the field of
 computational chemistry and represents and warrants to the
 licensee that it is not a competitor of Gaussian, Inc. and that
 it will not use this program in any manner prohibited above.
 ---------------------------------------------------------------
  

 Cite this work as:
 Gaussian 16, Revision A.03,
 M. J. Frisch, G. W. Trucks, H. B. Schlegel, G. E. Scuseria, 
 M. A. Robb, J. R. Cheeseman, G. Scalmani, V. Barone, 
 G. A. Petersson, H. Nakatsuji, X. Li, M. Caricato, A. V. Marenich, 
 J. Bloino, B. G. Janesko, R. Gomperts, B. Mennucci, H. P. Hratchian, 
 J. V. Ortiz, A. F. Izmaylov, J. L. Sonnenberg, D. Williams-Young, 
 F. Ding, F. Lipparini, F. Egidi, J. Goings, B. Peng, A. Petrone, 
 T. Henderson, D. Ranasinghe, V. G. Zakrzewski, J. Gao, N. Rega, 
 G. Zheng, W. Liang, M. Hada, M. Ehara, K. Toyota, R. Fukuda, 
 J. Hasegawa, M. Ishida, T. Nakajima, Y. Honda, O. Kitao, H. Nakai, 
 T. Vreven, K. Throssell, J. A. Montgomery, Jr., J. E. Peralta, 
 F. Ogliaro, M. J. Bearpark, J. J. Heyd, E. N. Brothers, K. N. Kudin, 
 V. N. Staroverov, T. A. Keith, R. Kobayashi, J. Normand, 
 K. Raghavachari, A. P. Rendell, J. C. Burant, S. S. Iyengar, 
 J. Tomasi, M. Cossi, J. M. Millam, M. Klene, C. Adamo, R. Cammi, 
 J. W. Ochterski, R. L. Martin, K. Morokuma, O. Farkas, 
 J. B. Foresman, and D. J. Fox, Gaussian, Inc., Wallingford CT, 2016.
 
 ******************************************
 Gaussian 16:  ES64L-G16RevA.03 25-Dec-2016
                11-Feb-2020 
 ******************************************
 %chk=checkpoint.chk
 %mem=3GB
 %nprocshared=4
 Will use up to    4 processors via shared memory.
 -------------------------------------------------------------------
 #t pop=none jul-cc-pvdz guess=read ub97d3 empiricaldispersion=gd3bj
 -------------------------------------------------------------------
 ------------------------------
 theory_abbreviation b97d3_d3bj
 ------------------------------
 Symbolic Z-matrix:
 Charge =  0 Multiplicity = 6
 O                     0.28141   0.25759  -0.52267 
 C                     1.08113   1.20683  -0.2487 
 C                     2.74461   0.14694   0.9343 
 C                     3.10102  -0.67328  -0.09458 
 C                     4.18002  -0.3088   -1.06855 
 Fe                   -1.55806  -0.18234  -0.10088 
 Cl                   -1.87697  -2.06356  -1.1585 
 C                     2.39313  -1.97117  -0.32542 
 Cl                   -2.59568   1.58108  -0.89091 
 Cl                   -1.78763  -0.36386   2.07545 
 H                     3.33573   1.05097   1.07402 
 H                     2.9122   -2.59949  -1.05372 
 H                     2.25426  -2.53857   0.60016 
 H                     1.38507  -1.75893  -0.71661 
 H                     5.00992  -1.02084  -0.9619 
 H                     3.83473  -0.39746  -2.10653 
 H                     4.57535   0.6971   -0.9064 
 C                     1.95436  -0.34263   2.12481 
 H                     2.4938   -1.15646   2.62528 
 H                     1.80675   0.44931   2.86145 
 H                     0.97028  -0.72936   1.84826 
 C                     0.73836   2.14476   0.8819 
 H                     1.593     2.73826   1.21104 
 H                    -0.01846   2.82804   0.46944 
 H                     0.27989   1.62459   1.72192 
 C                     1.84787   1.79606  -1.40341 
 H                     1.17337   2.52747  -1.87016 
 H                     2.75014   2.32189  -1.08628 
 H                     2.08383   1.03916  -2.1504 
 
                    Distance matrix (angstroms):
                    1          2          3          4          5
     1  O    0.000000
     2  C    1.271093   0.000000
     3  C    2.863972   2.299999   0.000000
     4  C    2.999995   2.763783   1.363223   0.000000
     5  C    3.977176   3.545757   2.505892   1.498560   0.000000
     6  Fe   1.937806   2.986130   4.437675   4.684881   5.820475
     7  Cl   3.232741   4.502617   5.533992   5.276855   6.306692
     8  C    3.076621   3.439024   2.489338   1.496307   2.551216
     9  Cl   3.188242   3.751192   5.822954   6.178079   7.036570
    10  Cl   3.378957   4.012295   4.701520   5.357581   6.745410
    11  H    3.536627   2.618602   1.089136   2.096128   2.674402
    12  H    3.919942   4.299874   3.394578   2.160067   2.618170
    13  H    3.601574   4.015567   2.750281   2.163099   3.386001
    14  H    2.306952   3.017792   2.864643   2.123691   3.168358
    15  H    4.917935   4.572365   3.176619   2.125307   1.098681
    16  H    3.945089   3.688841   3.275872   2.159238   1.097492
    17  H    4.333391   3.591921   2.653757   2.170392   1.092895
    18  C    3.188758   2.965958   1.510463   2.519896   3.892590
    19  H    4.099240   3.980013   2.149691   2.828398   4.148038
    20  H    3.716950   3.282288   2.164475   3.416652   4.653180
    21  H    2.658937   2.856288   2.179785   2.884068   4.357415
    22  C    2.396464   1.508463   2.831798   3.804869   4.655025
    23  H    3.298449   2.176725   2.849162   3.951880   4.601498
    24  H    2.771538   2.086420   3.878006   4.723186   5.461906
    25  H    2.628098   2.167915   2.979702   4.066773   5.170659
    26  C    2.365665   1.506125   2.998095   3.062843   3.159349
    27  H    2.786337   2.093257   4.000084   4.136817   4.210336
    28  H    3.267046   2.174962   2.968697   3.174521   2.994229
    29  H    2.551283   2.156379   3.278421   2.862428   2.716879
                    6          7          8          9         10
     6  Fe   0.000000
     7  Cl   2.181576   0.000000
     8  C    4.343063   4.351579   0.000000
     9  Cl   2.193271   3.724459   6.150319   0.000000
    10  Cl   2.195922   3.654507   5.081958   3.637995   0.000000
    11  H    5.181755   6.469671   3.461251   6.270848   5.408634
    12  H    5.170471   4.820201   1.093001   6.916678   6.072739
    13  H    4.536190   4.515029   1.094492   6.535797   4.821065
    14  H    3.395112   3.305896   1.101930   5.199273   4.450599
    15  H    6.677034   6.968151   2.855846   8.038666   7.474206
    16  H    5.757693   6.024789   2.779769   6.836847   7.007204
    17  H    6.248272   7.022617   3.495611   7.225319   7.106647
    18  C    4.161307   5.331115   2.974604   5.787751   3.742370
    19  H    4.979800   5.851787   3.062760   6.764648   4.388749
    20  H    4.527287   6.003691   4.044591   5.894274   3.768097
    21  H    3.238970   4.350582   2.879489   5.055422   2.791286
    22  C    3.413907   5.358463   4.597471   3.817900   3.754772
    23  H    4.492237   6.380666   5.017930   4.827243   4.668934
    24  H    3.428991   5.480145   5.429542   3.169777   3.987153
    25  H    3.156844   5.152801   4.646163   3.885573   2.890250
    26  C    4.148609   5.369455   3.956179   4.478168   5.475809
    27  H    4.234868   5.557750   4.910371   4.007534   5.717964
    28  H    5.079635   6.375536   4.374551   5.400434   6.148255
    29  H    4.353837   5.128217   3.533877   4.876245   5.900372
                   11         12         13         14         15
    11  H    0.000000
    12  H    4.246470   0.000000
    13  H    3.778745   1.780989   0.000000
    14  H    3.860956   1.775475   1.759882   0.000000
    15  H    3.352657   2.626970   3.512437   3.707356   0.000000
    16  H    3.530278   2.609282   3.795834   3.128305   1.754948
    17  H    2.363036   3.695300   4.257549   4.030631   1.772923
    18  C    2.225861   4.014216   2.690101   3.225471   4.395931
    19  H    2.826300   3.973971   2.463480   3.572180   4.383734
    20  H    2.427897   5.083876   3.773744   4.225717   5.199972
    21  H    3.060121   3.961053   2.545503   2.794752   4.929568
    22  C    2.824821   5.565978   4.930607   4.267585   5.627331
    23  H    2.429570   5.946510   5.353068   4.897327   5.525200
    24  H    3.843704   6.353489   5.829475   4.941347   6.492087
    25  H    3.175991   5.698779   4.742188   4.314635   6.047672
    26  C    2.984380   4.536065   4.792533   3.650182   4.257744
    27  H    3.940055   5.475011   5.738944   4.443953   5.304195
    28  H    2.573921   4.924148   5.168558   4.318930   4.036819
    29  H    3.458946   3.889555   4.516051   3.220765   3.770694
                   16         17         18         19         20
    16  H    0.000000
    17  H    1.785190   0.000000
    18  C    4.630659   4.139907   0.000000
    19  H    4.976359   4.499027   1.097167   0.000000
    20  H    5.432363   4.682226   1.091606   1.762472   0.000000
    21  H    4.894441   4.755987   1.092904   1.762742   1.765074
    22  C    4.998107   4.473945   3.034899   4.125408   2.816852
    23  H    5.085701   4.188585   3.233795   4.240320   2.829988
    24  H    5.646814   5.247557   4.084777   5.180278   3.835552
    25  H    5.602012   5.120467   2.614597   3.667650   2.238549
    26  C    3.041958   2.982254   4.127182   5.036353   4.472633
    27  H    3.961550   3.981518   4.980682   5.960184   5.206542
    28  H    3.100338   2.450239   4.247827   5.093159   4.470028
    29  H    2.265271   2.805747   4.494834   5.272183   5.054046
                   21         22         23         24         25
    21  H    0.000000
    22  C    3.041089   0.000000
    23  H    3.580252   1.091326   0.000000
    24  H    3.941301   1.099892   1.776187   0.000000
    25  H    2.456357   1.089221   1.795967   1.762386   0.000000
    26  C    4.209660   2.564219   2.790706   2.838260   3.500801
    27  H    4.947206   2.812388   3.116783   2.642829   3.810057
    28  H    4.592335   2.819992   2.605769   3.215834   3.804513
    29  H    4.511867   3.496781   3.798310   3.805689   4.311818
                   26         27         28         29
    26  C    0.000000
    27  H    1.098984   0.000000
    28  H    1.091397   1.772825   0.000000
    29  H    1.089301   1.767066   1.794914   0.000000
 Framework group  C1[X(C8H16Cl3FeO)]
 Deg. of freedom    81
                         Standard orientation:                         
 ---------------------------------------------------------------------
 Center     Atomic      Atomic             Coordinates (Angstroms)
 Number     Number       Type             X           Y           Z
 ---------------------------------------------------------------------
      1          8           0        0.281412    0.257586   -0.522673
      2          6           0        1.081134    1.206829   -0.248701
      3          6           0        2.744608    0.146938    0.934296
      4          6           0        3.101023   -0.673276   -0.094584
      5          6           0        4.180021   -0.308803   -1.068548
      6         26           0       -1.558059   -0.182337   -0.100883
      7         17           0       -1.876966   -2.063564   -1.158502
      8          6           0        2.393125   -1.971170   -0.325419
      9         17           0       -2.595678    1.581082   -0.890908
     10         17           0       -1.787626   -0.363857    2.075449
     11          1           0        3.335726    1.050969    1.074024
     12          1           0        2.912204   -2.599487   -1.053723
     13          1           0        2.254255   -2.538569    0.600155
     14          1           0        1.385070   -1.758934   -0.716610
     15          1           0        5.009920   -1.020839   -0.961902
     16          1           0        3.834727   -0.397463   -2.106527
     17          1           0        4.575345    0.697102   -0.906396
     18          6           0        1.954358   -0.342633    2.124810
     19          1           0        2.493798   -1.156459    2.625278
     20          1           0        1.806746    0.449308    2.861454
     21          1           0        0.970284   -0.729362    1.848263
     22          6           0        0.738357    2.144759    0.881897
     23          1           0        1.593000    2.738257    1.211043
     24          1           0       -0.018461    2.828036    0.469440
     25          1           0        0.279894    1.624590    1.721920
     26          6           0        1.847870    1.796056   -1.403405
     27          1           0        1.173374    2.527466   -1.870161
     28          1           0        2.750136    2.321886   -1.086282
     29          1           0        2.083826    1.039156   -2.150401
 ---------------------------------------------------------------------
 Rotational constants (GHZ):           0.5958290           0.2987904           0.2857974
   427 basis functions,  1056 primitive gaussians,   461 cartesian basis functions
    77 alpha electrons       72 beta electrons
       nuclear repulsion energy      1613.1536956239 Hartrees.
 NAtoms=   29 NActive=   29 NUniq=   29 SFac= 1.00D+00 NAtFMM=   60 NAOKFM=F Big=F
 Nuclear repulsion after empirical dispersion term =     1613.0541434170 Hartrees.
 Initial guess from the checkpoint file:  "checkpoint.chk"
 B after Tr=     0.000000    0.000000    0.000000
         Rot=    1.000000    0.000000    0.000000    0.000000 Ang=   0.00 deg.
 Initial guess <Sx>= 0.0000 <Sy>= 0.0000 <Sz>= 2.5000 <S**2>= 8.7618 S= 2.5020
 EnCoef did   100 forward-backward iterations
 SCF Done:  E(UB97D3) =  -3034.63057304     A.U. after   15 cycles
            NFock= 15  Conv=0.52D-08     -V/T= 2.0019
 <Sx>= 0.0000 <Sy>= 0.0000 <Sz>= 2.5000 <S**2>= 8.7600 S= 2.5017
 <L.S>= 0.000000000000E+00
 Annihilation of the first spin contaminant:
 S**2 before annihilation     8.7600,   after     8.7500
 1\1\GINC-HOLY7C04207\SP\UB97D3\Jul-CC-pVDZ\C8H16Cl3Fe1O1(6)\EKWAN\11-F
 eb-2020\0\\#t pop=none jul-cc-pvdz guess=read ub97d3 empiricaldispersi
 on=gd3bj\\theory_abbreviation b97d3_d3bj\\0,6\O,0,0.281412,0.257586,-0
 .522673\C,0,1.081134,1.206829,-0.248701\C,0,2.744608,0.146938,0.934296
 \C,0,3.101023,-0.673276,-0.094584\C,0,4.180021,-0.308803,-1.068548\Fe,
 0,-1.558059,-0.182337,-0.100883\Cl,0,-1.876966,-2.063564,-1.158502\C,0
 ,2.393125,-1.97117,-0.325419\Cl,0,-2.595678,1.581082,-0.890908\Cl,0,-1
 .787626,-0.363857,2.075449\H,0,3.335726,1.050969,1.074024\H,0,2.912204
 ,-2.599487,-1.053723\H,0,2.254255,-2.538569,0.600155\H,0,1.38507,-1.75
 8934,-0.71661\H,0,5.00992,-1.020839,-0.961902\H,0,3.834727,-0.397463,-
 2.106527\H,0,4.575345,0.697102,-0.906396\C,0,1.954358,-0.342633,2.1248
 1\H,0,2.493798,-1.156459,2.625278\H,0,1.806746,0.449308,2.861454\H,0,0
 .970284,-0.729362,1.848263\C,0,0.738357,2.144759,0.881897\H,0,1.593,2.
 738257,1.211043\H,0,-0.018461,2.828036,0.46944\H,0,0.279894,1.62459,1.
 72192\C,0,1.84787,1.796056,-1.403405\H,0,1.173374,2.527466,-1.870161\H
 ,0,2.750136,2.321886,-1.086282\H,0,2.083826,1.039156,-2.150401\\Versio
 n=ES64L-G16RevA.03\HF=-3034.630573\S2=8.759962\S2-1=0.\S2A=8.750031\RM
 SD=5.164e-09\PG=C01 [X(C8H16Cl3Fe1O1)]\\@


 There are more things in heaven and earth, Horatio,
 than are dreamt of in your philosophy.
                   -- Hamlet, Act I, Scene 5
 Job cpu time:       0 days  0 hours 47 minutes 29.6 seconds.
 Elapsed time:       0 days  0 hours 11 minutes 54.6 seconds.
 File lengths (MBytes):  RWF=    174 Int=      0 D2E=      0 Chk=     13 Scr=      1
 Normal termination of Gaussian 16 at Tue Feb 11 23:31:54 2020.
