 Entering Gaussian System, Link 0=g16
 Input=simple-grid-190-270-b3lyp_d3bj-631gd-gas-singlepoint-DFT-juldz2-gas.gjf
 Output=simple-grid-190-270-b3lyp_d3bj-631gd-gas-singlepoint-DFT-juldz2-gas.out
 Initial command:
 /n/sw/g16_nehalem/g16/l1.exe "/scratch/Gau-10628.inp" -scrdir="/scratch/"
 Entering Link 1 = /n/sw/g16_nehalem/g16/l1.exe PID=     10643.
  
 Copyright (c) 1988,1990,1992,1993,1995,1998,2003,2009,2016,
            Gaussian, Inc.  All Rights Reserved.
  
 This is part of the Gaussian(R) 16 program.  It is based on
 the Gaussian(R) 09 system (copyright 2009, Gaussian, Inc.),
 the Gaussian(R) 03 system (copyright 2003, Gaussian, Inc.),
 the Gaussian(R) 98 system (copyright 1998, Gaussian, Inc.),
 the Gaussian(R) 94 system (copyright 1995, Gaussian, Inc.),
 the Gaussian 92(TM) system (copyright 1992, Gaussian, Inc.),
 the Gaussian 90(TM) system (copyright 1990, Gaussian, Inc.),
 the Gaussian 88(TM) system (copyright 1988, Gaussian, Inc.),
 the Gaussian 86(TM) system (copyright 1986, Carnegie Mellon
 University), and the Gaussian 82(TM) system (copyright 1983,
 Carnegie Mellon University). Gaussian is a federally registered
 trademark of Gaussian, Inc.
  
 This software contains proprietary and confidential information,
 including trade secrets, belonging to Gaussian, Inc.
  
 This software is provided under written license and may be
 used, copied, transmitted, or stored only in accord with that
 written license.
  
 The following legend is applicable only to US Government
 contracts under FAR:
  
                    RESTRICTED RIGHTS LEGEND
  
 Use, reproduction and disclosure by the US Government is
 subject to restrictions as set forth in subparagraphs (a)
 and (c) of the Commercial Computer Software - Restricted
 Rights clause in FAR 52.227-19.
  
 Gaussian, Inc.
 340 Quinnipiac St., Bldg. 40, Wallingford CT 06492
  
  
 ---------------------------------------------------------------
 Warning -- This program may not be used in any manner that
 competes with the business of Gaussian, Inc. or will provide
 assistance to any competitor of Gaussian, Inc.  The licensee
 of this program is prohibited from giving any competitor of
 Gaussian, Inc. access to this program.  By using this program,
 the user acknowledges that Gaussian, Inc. is engaged in the
 business of creating and licensing software in the field of
 computational chemistry and represents and warrants to the
 licensee that it is not a competitor of Gaussian, Inc. and that
 it will not use this program in any manner prohibited above.
 ---------------------------------------------------------------
  

 Cite this work as:
 Gaussian 16, Revision A.03,
 M. J. Frisch, G. W. Trucks, H. B. Schlegel, G. E. Scuseria, 
 M. A. Robb, J. R. Cheeseman, G. Scalmani, V. Barone, 
 G. A. Petersson, H. Nakatsuji, X. Li, M. Caricato, A. V. Marenich, 
 J. Bloino, B. G. Janesko, R. Gomperts, B. Mennucci, H. P. Hratchian, 
 J. V. Ortiz, A. F. Izmaylov, J. L. Sonnenberg, D. Williams-Young, 
 F. Ding, F. Lipparini, F. Egidi, J. Goings, B. Peng, A. Petrone, 
 T. Henderson, D. Ranasinghe, V. G. Zakrzewski, J. Gao, N. Rega, 
 G. Zheng, W. Liang, M. Hada, M. Ehara, K. Toyota, R. Fukuda, 
 J. Hasegawa, M. Ishida, T. Nakajima, Y. Honda, O. Kitao, H. Nakai, 
 T. Vreven, K. Throssell, J. A. Montgomery, Jr., J. E. Peralta, 
 F. Ogliaro, M. J. Bearpark, J. J. Heyd, E. N. Brothers, K. N. Kudin, 
 V. N. Staroverov, T. A. Keith, R. Kobayashi, J. Normand, 
 K. Raghavachari, A. P. Rendell, J. C. Burant, S. S. Iyengar, 
 J. Tomasi, M. Cossi, J. M. Millam, M. Klene, C. Adamo, R. Cammi, 
 J. W. Ochterski, R. L. Martin, K. Morokuma, O. Farkas, 
 J. B. Foresman, and D. J. Fox, Gaussian, Inc., Wallingford CT, 2016.
 
 ******************************************
 Gaussian 16:  ES64L-G16RevA.03 25-Dec-2016
                11-Feb-2020 
 ******************************************
 %chk=checkpoint.chk
 %mem=3GB
 %nprocshared=4
 Will use up to    4 processors via shared memory.
 --------------------------------
 #t pop=none jul-cc-pvdz upbe1pbe
 --------------------------------
 ------------------------
 theory_abbreviation pbe0
 ------------------------
 Symbolic Z-matrix:
 Charge =  0 Multiplicity = 6
 O                    -0.34303  -0.13027  -0.47992 
 C                    -1.20813  -1.10746  -0.32113 
 C                    -2.6222   -0.38088   0.71931 
 C                    -2.8599    0.75265  -0.06064 
 C                    -3.83788   0.73542  -1.18524 
 Fe                    1.4759    0.17216  -0.07533 
 Cl                    1.79306   2.19545  -0.8772 
 C                    -2.09106   1.99214   0.13732 
 Cl                    2.56193  -1.45851  -1.07215 
 Cl                    1.68783   0.11098   2.12571 
 H                    -3.35707  -1.1762    0.59166 
 H                    -2.50465   2.84373  -0.4065 
 H                    -1.93632   2.24153   1.19002 
 H                    -1.08411   1.77232  -0.27094 
 H                    -4.65087   1.43147  -0.93185 
 H                    -3.38568   1.12255  -2.10712 
 H                    -4.27213  -0.2485   -1.36746 
 C                    -2.09724  -0.20973   2.13767 
 H                    -2.75622   0.46139   2.69993 
 H                    -2.07885  -1.16658   2.66144 
 H                    -1.08704   0.2058    2.15829 
 C                    -0.75423  -2.25935   0.57373 
 H                    -1.56923  -2.95013   0.80531 
 H                     0.00986  -2.79924   0.00115 
 H                    -0.28628  -1.90636   1.49178 
 C                    -1.80376  -1.60117  -1.63452 
 H                    -1.02384  -2.19391  -2.12554 
 H                    -2.6786   -2.24102  -1.48733 
 H                    -2.04973  -0.77524  -2.30209 
 
                    Distance matrix (angstroms):
                    1          2          3          4          5
     1  O    0.000000
     2  C    1.314732   0.000000
     3  C    2.587579   1.900001   0.000000
     4  C    2.700002   2.501247   1.396328   0.000000
     5  C    3.668904   3.325426   2.520181   1.490453   0.000000
     6  Fe   1.887764   2.983596   4.210898   4.374514   5.457598
     7  Cl   3.182718   4.497289   5.355450   4.939488   5.825296
     8  C    2.818018   3.255347   2.500414   1.471955   2.525849
     9  Cl   3.248649   3.860129   5.589787   5.942107   6.766357
    10  Cl   3.312385   3.982238   4.560288   5.086626   6.471920
    11  H    3.365522   2.335782   1.090351   2.095983   2.653833
    12  H    3.677318   4.159345   3.417510   2.149049   2.613217
    13  H    3.309488   3.745606   2.751188   2.152653   3.395019
    14  H    2.052494   2.882890   2.825349   2.058495   3.081293
    15  H    4.604425   4.321061   3.182209   2.104125   1.099837
    16  H    3.670839   3.592274   3.291188   2.145073   1.097369
    17  H    4.029837   3.349737   2.663538   2.168984   1.090820
    18  C    3.152037   2.764437   1.522042   2.518014   3.868440
    19  H    4.035467   3.739606   2.156439   2.777825   4.042223
    20  H    3.735665   3.107633   2.164357   3.421003   4.637754
    21  H    2.761643   2.808353   2.184395   2.892366   4.361975
    22  C    2.410863   1.527628   2.653130   3.729401   4.644509
    23  H    3.332719   2.189680   2.777980   4.015761   4.763649
    24  H    2.734839   2.109377   3.645806   4.566759   5.357835
    25  H    2.654305   2.185107   2.894871   4.012965   5.172935
    26  C    2.372842   1.524308   2.774788   3.022090   3.130359
    27  H    2.725832   2.114289   3.732955   4.039451   4.169405
    28  H    3.305307   2.192550   2.886619   3.321209   3.208488
    29  H    2.578584   2.177809   3.100332   2.831061   2.593626
                    6          7          8          9         10
     6  Fe   0.000000
     7  Cl   2.199392   0.000000
     8  C    4.010079   4.019573   0.000000
     9  Cl   2.198224   3.739063   5.917776   0.000000
    10  Cl   2.212057   3.656982   4.666093   3.667921   0.000000
    11  H    5.061675   6.328467   3.442036   6.154881   5.427818
    12  H    4.805387   4.371747   1.091787   6.680012   5.608642
    13  H    4.186481   4.264249   1.092845   6.248353   4.306878
    14  H    3.025298   2.970641   1.108576   4.936982   4.023381
    15  H    6.313219   6.489289   2.830215   7.771488   7.160407
    16  H    5.354098   5.429843   2.733086   6.565596   6.684355
    17  H    5.906475   6.557431   3.470156   6.946633   6.917562
    18  C    4.220246   5.478026   2.974838   5.793980   3.798654
    19  H    5.069172   6.041422   3.058198   6.796858   4.494679
    20  H    4.681702   6.230326   4.043375   5.963366   4.013362
    21  H    3.399827   4.633350   2.878092   5.149819   2.776682
    22  C    3.362586   5.332840   4.478027   3.787771   3.740426
    23  H    4.449380   6.372823   5.014438   4.776635   4.660718
    24  H    3.314253   5.375705   5.233518   3.076128   3.974756
    25  H    3.143459   5.173066   4.504451   3.858320   2.892865
    26  C    4.041276   5.284411   4.016700   4.404067   5.409434
    27  H    4.006283   5.362813   4.876733   3.808955   5.544254
    28  H    5.007699   6.328535   4.572136   5.314868   6.136100
    29  H    4.276221   5.061852   3.689284   4.821512   5.861749
                   11         12         13         14         15
    11  H    0.000000
    12  H    4.228800   0.000000
    13  H    3.749323   1.798477   0.000000
    14  H    3.821548   1.784441   1.755226   0.000000
    15  H    3.285563   2.622347   3.539394   3.643453   0.000000
    16  H    3.545208   2.575030   3.771458   3.015128   1.754246
    17  H    2.352898   3.689085   4.265797   3.930601   1.776374
    18  C    2.216160   3.995292   2.632982   3.279686   4.317000
    19  H    2.736326   3.922840   2.474053   3.652469   4.209576
    20  H    2.432682   5.067164   3.714917   4.269137   5.126102
    21  H    3.085012   3.942900   2.408948   2.890532   4.873617
    22  C    2.819275   5.483266   4.694148   4.132392   5.574285
    23  H    2.527624   5.992688   5.218819   4.867774   5.631400
    24  H    3.784074   6.191284   5.532659   4.708497   6.363312
    25  H    3.282241   5.575657   4.474219   4.156489   6.005387
    26  C    2.747597   4.664378   4.770948   3.709140   4.218610
    27  H    3.723294   5.525007   5.612366   4.378832   5.265318
    28  H    2.432368   5.201267   5.273754   4.486533   4.205425
    29  H    3.200581   4.110610   4.616118   3.398242   3.676003
                   16         17         18         19         20
    16  H    0.000000
    17  H    1.792397   0.000000
    18  C    4.631766   4.125239   0.000000
    19  H    4.892957   4.398361   1.095809   0.000000
    20  H    5.448590   4.678190   1.090984   1.763693   0.000000
    21  H    4.931323   4.773069   1.092517   1.773377   1.766428
    22  C    5.054575   4.493035   2.906971   3.991374   2.703196
    23  H    5.326210   4.396073   3.092531   4.078845   2.624113
    24  H    5.599547   5.168639   3.963596   5.056310   3.755717
    25  H    5.633174   5.177913   2.564229   3.628558   2.264654
    26  C    3.185042   2.827351   4.031330   4.893747   4.326643
    27  H    4.071553   3.861439   4.823283   5.773808   5.008356
    28  H    3.492526   2.554185   4.195802   4.984195   4.327410
    29  H    2.329028   2.467803   4.475875   5.200817   4.979019
                   21         22         23         24         25
    21  H    0.000000
    22  C    2.949327   0.000000
    23  H    3.467410   1.093170   0.000000
    24  H    3.858323   1.096891   1.778474   0.000000
    25  H    2.355131   1.089218   1.790710   1.762643   0.000000
    26  C    4.261954   2.532011   2.797765   2.720294   3.488501
    27  H    4.910579   2.713491   3.075584   2.440854   3.702929
    28  H    4.670181   2.819843   2.643818   3.123302   3.835403
    29  H    4.667354   3.485863   3.823218   3.693698   4.333894
                   26         27         28         29
    26  C    0.000000
    27  H    1.095770   0.000000
    28  H    1.093812   1.774193   0.000000
    29  H    1.090100   1.759618   1.791044   0.000000
 Framework group  C1[X(C8H16Cl3FeO)]
 Deg. of freedom    81
                         Standard orientation:                         
 ---------------------------------------------------------------------
 Center     Atomic      Atomic             Coordinates (Angstroms)
 Number     Number       Type             X           Y           Z
 ---------------------------------------------------------------------
      1          8           0       -0.343028   -0.130269   -0.479922
      2          6           0       -1.208130   -1.107461   -0.321130
      3          6           0       -2.622195   -0.380884    0.719308
      4          6           0       -2.859904    0.752653   -0.060641
      5          6           0       -3.837877    0.735418   -1.185239
      6         26           0        1.475898    0.172156   -0.075325
      7         17           0        1.793063    2.195453   -0.877198
      8          6           0       -2.091056    1.992143    0.137324
      9         17           0        2.561927   -1.458508   -1.072152
     10         17           0        1.687833    0.110984    2.125706
     11          1           0       -3.357074   -1.176198    0.591664
     12          1           0       -2.504652    2.843728   -0.406495
     13          1           0       -1.936319    2.241527    1.190023
     14          1           0       -1.084108    1.772323   -0.270936
     15          1           0       -4.650865    1.431469   -0.931852
     16          1           0       -3.385679    1.122552   -2.107119
     17          1           0       -4.272134   -0.248504   -1.367463
     18          6           0       -2.097239   -0.209732    2.137666
     19          1           0       -2.756222    0.461389    2.699925
     20          1           0       -2.078847   -1.166584    2.661443
     21          1           0       -1.087038    0.205795    2.158294
     22          6           0       -0.754234   -2.259349    0.573733
     23          1           0       -1.569226   -2.950131    0.805314
     24          1           0        0.009863   -2.799235    0.001152
     25          1           0       -0.286283   -1.906359    1.491783
     26          6           0       -1.803757   -1.601171   -1.634520
     27          1           0       -1.023837   -2.193908   -2.125538
     28          1           0       -2.678599   -2.241024   -1.487334
     29          1           0       -2.049729   -0.775235   -2.302087
 ---------------------------------------------------------------------
 Rotational constants (GHZ):           0.5899999           0.3209449           0.3052791
   427 basis functions,  1056 primitive gaussians,   461 cartesian basis functions
    77 alpha electrons       72 beta electrons
       nuclear repulsion energy      1637.4651310264 Hartrees.
 NAtoms=   29 NActive=   29 NUniq=   29 SFac= 1.00D+00 NAtFMM=   60 NAOKFM=F Big=F
 ExpMin= 1.40D-02 ExpMax= 4.32D+06 ExpMxC= 4.91D+03 IAcc=3 IRadAn=         5 AccDes= 0.00D+00
 Harris functional with IExCor= 1009 and IRadAn=       5 diagonalized for initial guess.
 HarFok:  IExCor= 1009 AccDes= 0.00D+00 IRadAn=         5 IDoV= 1 UseB2=F ITyADJ=14
 ICtDFT=  3500011 ScaDFX=  1.000000  1.000000  1.000000  1.000000
 FoFCou: FMM=F IPFlag=           0 FMFlag=      100000 FMFlg1=           0
         NFxFlg=           0 DoJE=T BraDBF=F KetDBF=T FulRan=T
         wScrn=  0.000000 ICntrl=       500 IOpCl=  0 I1Cent=   200000004 NGrid=           0
         NMat0=    1 NMatS0=      1 NMatT0=    0 NMatD0=    1 NMtDS0=    0 NMtDT0=    0
 Petite list used in FoFCou.
 Initial guess <Sx>= 0.0000 <Sy>= 0.0000 <Sz>= 2.5000 <S**2>= 8.7500 S= 2.5000
 EnCoef did   100 forward-backward iterations
 Restarting incremental Fock formation.
 SCF Done:  E(UPBE1PBE) =  -3033.11264176     A.U. after   21 cycles
            NFock= 21  Conv=0.64D-08     -V/T= 2.0021
 <Sx>= 0.0000 <Sy>= 0.0000 <Sz>= 2.5000 <S**2>= 8.7625 S= 2.5021
 <L.S>= 0.000000000000E+00
 Annihilation of the first spin contaminant:
 S**2 before annihilation     8.7625,   after     8.7500
 1\1\GINC-HOLY7C06107\SP\UPBE1PBE\Jul-CC-pVDZ\C8H16Cl3Fe1O1(6)\EKWAN\11
 -Feb-2020\0\\#t pop=none jul-cc-pvdz upbe1pbe\\theory_abbreviation pbe
 0\\0,6\O,0,-0.343028,-0.130269,-0.479922\C,0,-1.20813,-1.107461,-0.321
 13\C,0,-2.622195,-0.380884,0.719308\C,0,-2.859904,0.752653,-0.060641\C
 ,0,-3.837877,0.735418,-1.185239\Fe,0,1.475898,0.172156,-0.075325\Cl,0,
 1.793063,2.195453,-0.877198\C,0,-2.091056,1.992143,0.137324\Cl,0,2.561
 927,-1.458508,-1.072152\Cl,0,1.687833,0.110984,2.125706\H,0,-3.357074,
 -1.176198,0.591664\H,0,-2.504652,2.843728,-0.406495\H,0,-1.936319,2.24
 1527,1.190023\H,0,-1.084108,1.772323,-0.270936\H,0,-4.650865,1.431469,
 -0.931852\H,0,-3.385679,1.122552,-2.107119\H,0,-4.272134,-0.248504,-1.
 367463\C,0,-2.097239,-0.209732,2.137666\H,0,-2.756222,0.461389,2.69992
 5\H,0,-2.078847,-1.166584,2.661443\H,0,-1.087038,0.205795,2.158294\C,0
 ,-0.754234,-2.259349,0.573733\H,0,-1.569226,-2.950131,0.805314\H,0,0.0
 09863,-2.799235,0.001152\H,0,-0.286283,-1.906359,1.491783\C,0,-1.80375
 7,-1.601171,-1.63452\H,0,-1.023837,-2.193908,-2.125538\H,0,-2.678599,-
 2.241024,-1.487334\H,0,-2.049729,-0.775235,-2.302087\\Version=ES64L-G1
 6RevA.03\HF=-3033.1126418\S2=8.762539\S2-1=0.\S2A=8.750049\RMSD=6.432e
 -09\PG=C01 [X(C8H16Cl3Fe1O1)]\\@


 We find comfort among those who agree with us -- growth among those who don't.
 -- Frank A. Clark
 Job cpu time:       0 days  1 hours 32 minutes 29.1 seconds.
 Elapsed time:       0 days  0 hours 23 minutes 11.9 seconds.
 File lengths (MBytes):  RWF=    173 Int=      0 D2E=      0 Chk=     13 Scr=      1
 Normal termination of Gaussian 16 at Tue Feb 11 13:59:24 2020.
 Initial command:
 /n/sw/g16_nehalem/g16/l1.exe "/scratch/Gau-10628.inp" -scrdir="/scratch/"
 Entering Link 1 = /n/sw/g16_nehalem/g16/l1.exe PID=     13410.
  
 Copyright (c) 1988,1990,1992,1993,1995,1998,2003,2009,2016,
            Gaussian, Inc.  All Rights Reserved.
  
 This is part of the Gaussian(R) 16 program.  It is based on
 the Gaussian(R) 09 system (copyright 2009, Gaussian, Inc.),
 the Gaussian(R) 03 system (copyright 2003, Gaussian, Inc.),
 the Gaussian(R) 98 system (copyright 1998, Gaussian, Inc.),
 the Gaussian(R) 94 system (copyright 1995, Gaussian, Inc.),
 the Gaussian 92(TM) system (copyright 1992, Gaussian, Inc.),
 the Gaussian 90(TM) system (copyright 1990, Gaussian, Inc.),
 the Gaussian 88(TM) system (copyright 1988, Gaussian, Inc.),
 the Gaussian 86(TM) system (copyright 1986, Carnegie Mellon
 University), and the Gaussian 82(TM) system (copyright 1983,
 Carnegie Mellon University). Gaussian is a federally registered
 trademark of Gaussian, Inc.
  
 This software contains proprietary and confidential information,
 including trade secrets, belonging to Gaussian, Inc.
  
 This software is provided under written license and may be
 used, copied, transmitted, or stored only in accord with that
 written license.
  
 The following legend is applicable only to US Government
 contracts under FAR:
  
                    RESTRICTED RIGHTS LEGEND
  
 Use, reproduction and disclosure by the US Government is
 subject to restrictions as set forth in subparagraphs (a)
 and (c) of the Commercial Computer Software - Restricted
 Rights clause in FAR 52.227-19.
  
 Gaussian, Inc.
 340 Quinnipiac St., Bldg. 40, Wallingford CT 06492
  
  
 ---------------------------------------------------------------
 Warning -- This program may not be used in any manner that
 competes with the business of Gaussian, Inc. or will provide
 assistance to any competitor of Gaussian, Inc.  The licensee
 of this program is prohibited from giving any competitor of
 Gaussian, Inc. access to this program.  By using this program,
 the user acknowledges that Gaussian, Inc. is engaged in the
 business of creating and licensing software in the field of
 computational chemistry and represents and warrants to the
 licensee that it is not a competitor of Gaussian, Inc. and that
 it will not use this program in any manner prohibited above.
 ---------------------------------------------------------------
  

 Cite this work as:
 Gaussian 16, Revision A.03,
 M. J. Frisch, G. W. Trucks, H. B. Schlegel, G. E. Scuseria, 
 M. A. Robb, J. R. Cheeseman, G. Scalmani, V. Barone, 
 G. A. Petersson, H. Nakatsuji, X. Li, M. Caricato, A. V. Marenich, 
 J. Bloino, B. G. Janesko, R. Gomperts, B. Mennucci, H. P. Hratchian, 
 J. V. Ortiz, A. F. Izmaylov, J. L. Sonnenberg, D. Williams-Young, 
 F. Ding, F. Lipparini, F. Egidi, J. Goings, B. Peng, A. Petrone, 
 T. Henderson, D. Ranasinghe, V. G. Zakrzewski, J. Gao, N. Rega, 
 G. Zheng, W. Liang, M. Hada, M. Ehara, K. Toyota, R. Fukuda, 
 J. Hasegawa, M. Ishida, T. Nakajima, Y. Honda, O. Kitao, H. Nakai, 
 T. Vreven, K. Throssell, J. A. Montgomery, Jr., J. E. Peralta, 
 F. Ogliaro, M. J. Bearpark, J. J. Heyd, E. N. Brothers, K. N. Kudin, 
 V. N. Staroverov, T. A. Keith, R. Kobayashi, J. Normand, 
 K. Raghavachari, A. P. Rendell, J. C. Burant, S. S. Iyengar, 
 J. Tomasi, M. Cossi, J. M. Millam, M. Klene, C. Adamo, R. Cammi, 
 J. W. Ochterski, R. L. Martin, K. Morokuma, O. Farkas, 
 J. B. Foresman, and D. J. Fox, Gaussian, Inc., Wallingford CT, 2016.
 
 ******************************************
 Gaussian 16:  ES64L-G16RevA.03 25-Dec-2016
                11-Feb-2020 
 ******************************************
 %chk=checkpoint.chk
 %mem=3GB
 %nprocshared=4
 Will use up to    4 processors via shared memory.
 ---------------------------------------------------------------------
 #t pop=none jul-cc-pvdz guess=read upbe1pbe empiricaldispersion=gd3bj
 ---------------------------------------------------------------------
 -----------------------------
 theory_abbreviation pbe0_d3bj
 -----------------------------
 Symbolic Z-matrix:
 Charge =  0 Multiplicity = 6
 O                    -0.34303  -0.13027  -0.47992 
 C                    -1.20813  -1.10746  -0.32113 
 C                    -2.6222   -0.38088   0.71931 
 C                    -2.8599    0.75265  -0.06064 
 C                    -3.83788   0.73542  -1.18524 
 Fe                    1.4759    0.17216  -0.07533 
 Cl                    1.79306   2.19545  -0.8772 
 C                    -2.09106   1.99214   0.13732 
 Cl                    2.56193  -1.45851  -1.07215 
 Cl                    1.68783   0.11098   2.12571 
 H                    -3.35707  -1.1762    0.59166 
 H                    -2.50465   2.84373  -0.4065 
 H                    -1.93632   2.24153   1.19002 
 H                    -1.08411   1.77232  -0.27094 
 H                    -4.65087   1.43147  -0.93185 
 H                    -3.38568   1.12255  -2.10712 
 H                    -4.27213  -0.2485   -1.36746 
 C                    -2.09724  -0.20973   2.13767 
 H                    -2.75622   0.46139   2.69993 
 H                    -2.07885  -1.16658   2.66144 
 H                    -1.08704   0.2058    2.15829 
 C                    -0.75423  -2.25935   0.57373 
 H                    -1.56923  -2.95013   0.80531 
 H                     0.00986  -2.79924   0.00115 
 H                    -0.28628  -1.90636   1.49178 
 C                    -1.80376  -1.60117  -1.63452 
 H                    -1.02384  -2.19391  -2.12554 
 H                    -2.6786   -2.24102  -1.48733 
 H                    -2.04973  -0.77524  -2.30209 
 
                    Distance matrix (angstroms):
                    1          2          3          4          5
     1  O    0.000000
     2  C    1.314732   0.000000
     3  C    2.587579   1.900001   0.000000
     4  C    2.700002   2.501247   1.396328   0.000000
     5  C    3.668904   3.325426   2.520181   1.490453   0.000000
     6  Fe   1.887764   2.983596   4.210898   4.374514   5.457598
     7  Cl   3.182718   4.497289   5.355450   4.939488   5.825296
     8  C    2.818018   3.255347   2.500414   1.471955   2.525849
     9  Cl   3.248649   3.860129   5.589787   5.942107   6.766357
    10  Cl   3.312385   3.982238   4.560288   5.086626   6.471920
    11  H    3.365522   2.335782   1.090351   2.095983   2.653833
    12  H    3.677318   4.159345   3.417510   2.149049   2.613217
    13  H    3.309488   3.745606   2.751188   2.152653   3.395019
    14  H    2.052494   2.882890   2.825349   2.058495   3.081293
    15  H    4.604425   4.321061   3.182209   2.104125   1.099837
    16  H    3.670839   3.592274   3.291188   2.145073   1.097369
    17  H    4.029837   3.349737   2.663538   2.168984   1.090820
    18  C    3.152037   2.764437   1.522042   2.518014   3.868440
    19  H    4.035467   3.739606   2.156439   2.777825   4.042223
    20  H    3.735665   3.107633   2.164357   3.421003   4.637754
    21  H    2.761643   2.808353   2.184395   2.892366   4.361975
    22  C    2.410863   1.527628   2.653130   3.729401   4.644509
    23  H    3.332719   2.189680   2.777980   4.015761   4.763649
    24  H    2.734839   2.109377   3.645806   4.566759   5.357835
    25  H    2.654305   2.185107   2.894871   4.012965   5.172935
    26  C    2.372842   1.524308   2.774788   3.022090   3.130359
    27  H    2.725832   2.114289   3.732955   4.039451   4.169405
    28  H    3.305307   2.192550   2.886619   3.321209   3.208488
    29  H    2.578584   2.177809   3.100332   2.831061   2.593626
                    6          7          8          9         10
     6  Fe   0.000000
     7  Cl   2.199392   0.000000
     8  C    4.010079   4.019573   0.000000
     9  Cl   2.198224   3.739063   5.917776   0.000000
    10  Cl   2.212057   3.656982   4.666093   3.667921   0.000000
    11  H    5.061675   6.328467   3.442036   6.154881   5.427818
    12  H    4.805387   4.371747   1.091787   6.680012   5.608642
    13  H    4.186481   4.264249   1.092845   6.248353   4.306878
    14  H    3.025298   2.970641   1.108576   4.936982   4.023381
    15  H    6.313219   6.489289   2.830215   7.771488   7.160407
    16  H    5.354098   5.429843   2.733086   6.565596   6.684355
    17  H    5.906475   6.557431   3.470156   6.946633   6.917562
    18  C    4.220246   5.478026   2.974838   5.793980   3.798654
    19  H    5.069172   6.041422   3.058198   6.796858   4.494679
    20  H    4.681702   6.230326   4.043375   5.963366   4.013362
    21  H    3.399827   4.633350   2.878092   5.149819   2.776682
    22  C    3.362586   5.332840   4.478027   3.787771   3.740426
    23  H    4.449380   6.372823   5.014438   4.776635   4.660718
    24  H    3.314253   5.375705   5.233518   3.076128   3.974756
    25  H    3.143459   5.173066   4.504451   3.858320   2.892865
    26  C    4.041276   5.284411   4.016700   4.404067   5.409434
    27  H    4.006283   5.362813   4.876733   3.808955   5.544254
    28  H    5.007699   6.328535   4.572136   5.314868   6.136100
    29  H    4.276221   5.061852   3.689284   4.821512   5.861749
                   11         12         13         14         15
    11  H    0.000000
    12  H    4.228800   0.000000
    13  H    3.749323   1.798477   0.000000
    14  H    3.821548   1.784441   1.755226   0.000000
    15  H    3.285563   2.622347   3.539394   3.643453   0.000000
    16  H    3.545208   2.575030   3.771458   3.015128   1.754246
    17  H    2.352898   3.689085   4.265797   3.930601   1.776374
    18  C    2.216160   3.995292   2.632982   3.279686   4.317000
    19  H    2.736326   3.922840   2.474053   3.652469   4.209576
    20  H    2.432682   5.067164   3.714917   4.269137   5.126102
    21  H    3.085012   3.942900   2.408948   2.890532   4.873617
    22  C    2.819275   5.483266   4.694148   4.132392   5.574285
    23  H    2.527624   5.992688   5.218819   4.867774   5.631400
    24  H    3.784074   6.191284   5.532659   4.708497   6.363312
    25  H    3.282241   5.575657   4.474219   4.156489   6.005387
    26  C    2.747597   4.664378   4.770948   3.709140   4.218610
    27  H    3.723294   5.525007   5.612366   4.378832   5.265318
    28  H    2.432368   5.201267   5.273754   4.486533   4.205425
    29  H    3.200581   4.110610   4.616118   3.398242   3.676003
                   16         17         18         19         20
    16  H    0.000000
    17  H    1.792397   0.000000
    18  C    4.631766   4.125239   0.000000
    19  H    4.892957   4.398361   1.095809   0.000000
    20  H    5.448590   4.678190   1.090984   1.763693   0.000000
    21  H    4.931323   4.773069   1.092517   1.773377   1.766428
    22  C    5.054575   4.493035   2.906971   3.991374   2.703196
    23  H    5.326210   4.396073   3.092531   4.078845   2.624113
    24  H    5.599547   5.168639   3.963596   5.056310   3.755717
    25  H    5.633174   5.177913   2.564229   3.628558   2.264654
    26  C    3.185042   2.827351   4.031330   4.893747   4.326643
    27  H    4.071553   3.861439   4.823283   5.773808   5.008356
    28  H    3.492526   2.554185   4.195802   4.984195   4.327410
    29  H    2.329028   2.467803   4.475875   5.200817   4.979019
                   21         22         23         24         25
    21  H    0.000000
    22  C    2.949327   0.000000
    23  H    3.467410   1.093170   0.000000
    24  H    3.858323   1.096891   1.778474   0.000000
    25  H    2.355131   1.089218   1.790710   1.762643   0.000000
    26  C    4.261954   2.532011   2.797765   2.720294   3.488501
    27  H    4.910579   2.713491   3.075584   2.440854   3.702929
    28  H    4.670181   2.819843   2.643818   3.123302   3.835403
    29  H    4.667354   3.485863   3.823218   3.693698   4.333894
                   26         27         28         29
    26  C    0.000000
    27  H    1.095770   0.000000
    28  H    1.093812   1.774193   0.000000
    29  H    1.090100   1.759618   1.791044   0.000000
 Framework group  C1[X(C8H16Cl3FeO)]
 Deg. of freedom    81
                         Standard orientation:                         
 ---------------------------------------------------------------------
 Center     Atomic      Atomic             Coordinates (Angstroms)
 Number     Number       Type             X           Y           Z
 ---------------------------------------------------------------------
      1          8           0       -0.343028   -0.130269   -0.479922
      2          6           0       -1.208130   -1.107461   -0.321130
      3          6           0       -2.622195   -0.380884    0.719308
      4          6           0       -2.859904    0.752653   -0.060641
      5          6           0       -3.837877    0.735418   -1.185239
      6         26           0        1.475898    0.172156   -0.075325
      7         17           0        1.793063    2.195453   -0.877198
      8          6           0       -2.091056    1.992143    0.137324
      9         17           0        2.561927   -1.458508   -1.072152
     10         17           0        1.687833    0.110984    2.125706
     11          1           0       -3.357074   -1.176198    0.591664
     12          1           0       -2.504652    2.843728   -0.406495
     13          1           0       -1.936319    2.241527    1.190023
     14          1           0       -1.084108    1.772323   -0.270936
     15          1           0       -4.650865    1.431469   -0.931852
     16          1           0       -3.385679    1.122552   -2.107119
     17          1           0       -4.272134   -0.248504   -1.367463
     18          6           0       -2.097239   -0.209732    2.137666
     19          1           0       -2.756222    0.461389    2.699925
     20          1           0       -2.078847   -1.166584    2.661443
     21          1           0       -1.087038    0.205795    2.158294
     22          6           0       -0.754234   -2.259349    0.573733
     23          1           0       -1.569226   -2.950131    0.805314
     24          1           0        0.009863   -2.799235    0.001152
     25          1           0       -0.286283   -1.906359    1.491783
     26          6           0       -1.803757   -1.601171   -1.634520
     27          1           0       -1.023837   -2.193908   -2.125538
     28          1           0       -2.678599   -2.241024   -1.487334
     29          1           0       -2.049729   -0.775235   -2.302087
 ---------------------------------------------------------------------
 Rotational constants (GHZ):           0.5899999           0.3209449           0.3052791
   427 basis functions,  1056 primitive gaussians,   461 cartesian basis functions
    77 alpha electrons       72 beta electrons
       nuclear repulsion energy      1637.4651310264 Hartrees.
 NAtoms=   29 NActive=   29 NUniq=   29 SFac= 1.00D+00 NAtFMM=   60 NAOKFM=F Big=F
 Nuclear repulsion after empirical dispersion term =     1637.4289204663 Hartrees.
 Initial guess from the checkpoint file:  "checkpoint.chk"
 B after Tr=     0.000000    0.000000    0.000000
         Rot=    1.000000    0.000000    0.000000    0.000000 Ang=   0.00 deg.
 Initial guess <Sx>= 0.0000 <Sy>= 0.0000 <Sz>= 2.5000 <S**2>= 8.7625 S= 2.5021
 SCF Done:  E(UPBE1PBE) =  -3033.14885232     A.U. after    1 cycles
            NFock=  1  Conv=0.30D-08     -V/T= 2.0021
 <Sx>= 0.0000 <Sy>= 0.0000 <Sz>= 2.5000 <S**2>= 8.7625 S= 2.5021
 <L.S>= 0.000000000000E+00
 Annihilation of the first spin contaminant:
 S**2 before annihilation     8.7625,   after     8.7500
 1\1\GINC-HOLY7C06107\SP\UPBE1PBE\Jul-CC-pVDZ\C8H16Cl3Fe1O1(6)\EKWAN\11
 -Feb-2020\0\\#t pop=none jul-cc-pvdz guess=read upbe1pbe empiricaldisp
 ersion=gd3bj\\theory_abbreviation pbe0_d3bj\\0,6\O,0,-0.343028,-0.1302
 69,-0.479922\C,0,-1.20813,-1.107461,-0.32113\C,0,-2.622195,-0.380884,0
 .719308\C,0,-2.859904,0.752653,-0.060641\C,0,-3.837877,0.735418,-1.185
 239\Fe,0,1.475898,0.172156,-0.075325\Cl,0,1.793063,2.195453,-0.877198\
 C,0,-2.091056,1.992143,0.137324\Cl,0,2.561927,-1.458508,-1.072152\Cl,0
 ,1.687833,0.110984,2.125706\H,0,-3.357074,-1.176198,0.591664\H,0,-2.50
 4652,2.843728,-0.406495\H,0,-1.936319,2.241527,1.190023\H,0,-1.084108,
 1.772323,-0.270936\H,0,-4.650865,1.431469,-0.931852\H,0,-3.385679,1.12
 2552,-2.107119\H,0,-4.272134,-0.248504,-1.367463\C,0,-2.097239,-0.2097
 32,2.137666\H,0,-2.756222,0.461389,2.699925\H,0,-2.078847,-1.166584,2.
 661443\H,0,-1.087038,0.205795,2.158294\C,0,-0.754234,-2.259349,0.57373
 3\H,0,-1.569226,-2.950131,0.805314\H,0,0.009863,-2.799235,0.001152\H,0
 ,-0.286283,-1.906359,1.491783\C,0,-1.803757,-1.601171,-1.63452\H,0,-1.
 023837,-2.193908,-2.125538\H,0,-2.678599,-2.241024,-1.487334\H,0,-2.04
 9729,-0.775235,-2.302087\\Version=ES64L-G16RevA.03\HF=-3033.1488523\S2
 =8.762539\S2-1=0.\S2A=8.750049\RMSD=3.035e-09\PG=C01 [X(C8H16Cl3Fe1O1)
 ]\\@


 RESEARCH IS WHAT I AM DOING WHEN I DON'T KNOW WHAT I AM DOING.
     -- WERNER VON BRAUN
 Job cpu time:       0 days  0 hours  4 minutes 43.0 seconds.
 Elapsed time:       0 days  0 hours  1 minutes 11.6 seconds.
 File lengths (MBytes):  RWF=    170 Int=      0 D2E=      0 Chk=     13 Scr=      1
 Normal termination of Gaussian 16 at Tue Feb 11 14:00:37 2020.
 Initial command:
 /n/sw/g16_nehalem/g16/l1.exe "/scratch/Gau-10628.inp" -scrdir="/scratch/"
 Entering Link 1 = /n/sw/g16_nehalem/g16/l1.exe PID=     13763.
  
 Copyright (c) 1988,1990,1992,1993,1995,1998,2003,2009,2016,
            Gaussian, Inc.  All Rights Reserved.
  
 This is part of the Gaussian(R) 16 program.  It is based on
 the Gaussian(R) 09 system (copyright 2009, Gaussian, Inc.),
 the Gaussian(R) 03 system (copyright 2003, Gaussian, Inc.),
 the Gaussian(R) 98 system (copyright 1998, Gaussian, Inc.),
 the Gaussian(R) 94 system (copyright 1995, Gaussian, Inc.),
 the Gaussian 92(TM) system (copyright 1992, Gaussian, Inc.),
 the Gaussian 90(TM) system (copyright 1990, Gaussian, Inc.),
 the Gaussian 88(TM) system (copyright 1988, Gaussian, Inc.),
 the Gaussian 86(TM) system (copyright 1986, Carnegie Mellon
 University), and the Gaussian 82(TM) system (copyright 1983,
 Carnegie Mellon University). Gaussian is a federally registered
 trademark of Gaussian, Inc.
  
 This software contains proprietary and confidential information,
 including trade secrets, belonging to Gaussian, Inc.
  
 This software is provided under written license and may be
 used, copied, transmitted, or stored only in accord with that
 written license.
  
 The following legend is applicable only to US Government
 contracts under FAR:
  
                    RESTRICTED RIGHTS LEGEND
  
 Use, reproduction and disclosure by the US Government is
 subject to restrictions as set forth in subparagraphs (a)
 and (c) of the Commercial Computer Software - Restricted
 Rights clause in FAR 52.227-19.
  
 Gaussian, Inc.
 340 Quinnipiac St., Bldg. 40, Wallingford CT 06492
  
  
 ---------------------------------------------------------------
 Warning -- This program may not be used in any manner that
 competes with the business of Gaussian, Inc. or will provide
 assistance to any competitor of Gaussian, Inc.  The licensee
 of this program is prohibited from giving any competitor of
 Gaussian, Inc. access to this program.  By using this program,
 the user acknowledges that Gaussian, Inc. is engaged in the
 business of creating and licensing software in the field of
 computational chemistry and represents and warrants to the
 licensee that it is not a competitor of Gaussian, Inc. and that
 it will not use this program in any manner prohibited above.
 ---------------------------------------------------------------
  

 Cite this work as:
 Gaussian 16, Revision A.03,
 M. J. Frisch, G. W. Trucks, H. B. Schlegel, G. E. Scuseria, 
 M. A. Robb, J. R. Cheeseman, G. Scalmani, V. Barone, 
 G. A. Petersson, H. Nakatsuji, X. Li, M. Caricato, A. V. Marenich, 
 J. Bloino, B. G. Janesko, R. Gomperts, B. Mennucci, H. P. Hratchian, 
 J. V. Ortiz, A. F. Izmaylov, J. L. Sonnenberg, D. Williams-Young, 
 F. Ding, F. Lipparini, F. Egidi, J. Goings, B. Peng, A. Petrone, 
 T. Henderson, D. Ranasinghe, V. G. Zakrzewski, J. Gao, N. Rega, 
 G. Zheng, W. Liang, M. Hada, M. Ehara, K. Toyota, R. Fukuda, 
 J. Hasegawa, M. Ishida, T. Nakajima, Y. Honda, O. Kitao, H. Nakai, 
 T. Vreven, K. Throssell, J. A. Montgomery, Jr., J. E. Peralta, 
 F. Ogliaro, M. J. Bearpark, J. J. Heyd, E. N. Brothers, K. N. Kudin, 
 V. N. Staroverov, T. A. Keith, R. Kobayashi, J. Normand, 
 K. Raghavachari, A. P. Rendell, J. C. Burant, S. S. Iyengar, 
 J. Tomasi, M. Cossi, J. M. Millam, M. Klene, C. Adamo, R. Cammi, 
 J. W. Ochterski, R. L. Martin, K. Morokuma, O. Farkas, 
 J. B. Foresman, and D. J. Fox, Gaussian, Inc., Wallingford CT, 2016.
 
 ******************************************
 Gaussian 16:  ES64L-G16RevA.03 25-Dec-2016
                11-Feb-2020 
 ******************************************
 %chk=checkpoint.chk
 %mem=3GB
 %nprocshared=4
 Will use up to    4 processors via shared memory.
 -----------------------------------------
 #t pop=none jul-cc-pvdz guess=read ub3lyp
 -----------------------------------------
 -------------------------
 theory_abbreviation b3lyp
 -------------------------
 Symbolic Z-matrix:
 Charge =  0 Multiplicity = 6
 O                    -0.34303  -0.13027  -0.47992 
 C                    -1.20813  -1.10746  -0.32113 
 C                    -2.6222   -0.38088   0.71931 
 C                    -2.8599    0.75265  -0.06064 
 C                    -3.83788   0.73542  -1.18524 
 Fe                    1.4759    0.17216  -0.07533 
 Cl                    1.79306   2.19545  -0.8772 
 C                    -2.09106   1.99214   0.13732 
 Cl                    2.56193  -1.45851  -1.07215 
 Cl                    1.68783   0.11098   2.12571 
 H                    -3.35707  -1.1762    0.59166 
 H                    -2.50465   2.84373  -0.4065 
 H                    -1.93632   2.24153   1.19002 
 H                    -1.08411   1.77232  -0.27094 
 H                    -4.65087   1.43147  -0.93185 
 H                    -3.38568   1.12255  -2.10712 
 H                    -4.27213  -0.2485   -1.36746 
 C                    -2.09724  -0.20973   2.13767 
 H                    -2.75622   0.46139   2.69993 
 H                    -2.07885  -1.16658   2.66144 
 H                    -1.08704   0.2058    2.15829 
 C                    -0.75423  -2.25935   0.57373 
 H                    -1.56923  -2.95013   0.80531 
 H                     0.00986  -2.79924   0.00115 
 H                    -0.28628  -1.90636   1.49178 
 C                    -1.80376  -1.60117  -1.63452 
 H                    -1.02384  -2.19391  -2.12554 
 H                    -2.6786   -2.24102  -1.48733 
 H                    -2.04973  -0.77524  -2.30209 
 
                    Distance matrix (angstroms):
                    1          2          3          4          5
     1  O    0.000000
     2  C    1.314732   0.000000
     3  C    2.587579   1.900001   0.000000
     4  C    2.700002   2.501247   1.396328   0.000000
     5  C    3.668904   3.325426   2.520181   1.490453   0.000000
     6  Fe   1.887764   2.983596   4.210898   4.374514   5.457598
     7  Cl   3.182718   4.497289   5.355450   4.939488   5.825296
     8  C    2.818018   3.255347   2.500414   1.471955   2.525849
     9  Cl   3.248649   3.860129   5.589787   5.942107   6.766357
    10  Cl   3.312385   3.982238   4.560288   5.086626   6.471920
    11  H    3.365522   2.335782   1.090351   2.095983   2.653833
    12  H    3.677318   4.159345   3.417510   2.149049   2.613217
    13  H    3.309488   3.745606   2.751188   2.152653   3.395019
    14  H    2.052494   2.882890   2.825349   2.058495   3.081293
    15  H    4.604425   4.321061   3.182209   2.104125   1.099837
    16  H    3.670839   3.592274   3.291188   2.145073   1.097369
    17  H    4.029837   3.349737   2.663538   2.168984   1.090820
    18  C    3.152037   2.764437   1.522042   2.518014   3.868440
    19  H    4.035467   3.739606   2.156439   2.777825   4.042223
    20  H    3.735665   3.107633   2.164357   3.421003   4.637754
    21  H    2.761643   2.808353   2.184395   2.892366   4.361975
    22  C    2.410863   1.527628   2.653130   3.729401   4.644509
    23  H    3.332719   2.189680   2.777980   4.015761   4.763649
    24  H    2.734839   2.109377   3.645806   4.566759   5.357835
    25  H    2.654305   2.185107   2.894871   4.012965   5.172935
    26  C    2.372842   1.524308   2.774788   3.022090   3.130359
    27  H    2.725832   2.114289   3.732955   4.039451   4.169405
    28  H    3.305307   2.192550   2.886619   3.321209   3.208488
    29  H    2.578584   2.177809   3.100332   2.831061   2.593626
                    6          7          8          9         10
     6  Fe   0.000000
     7  Cl   2.199392   0.000000
     8  C    4.010079   4.019573   0.000000
     9  Cl   2.198224   3.739063   5.917776   0.000000
    10  Cl   2.212057   3.656982   4.666093   3.667921   0.000000
    11  H    5.061675   6.328467   3.442036   6.154881   5.427818
    12  H    4.805387   4.371747   1.091787   6.680012   5.608642
    13  H    4.186481   4.264249   1.092845   6.248353   4.306878
    14  H    3.025298   2.970641   1.108576   4.936982   4.023381
    15  H    6.313219   6.489289   2.830215   7.771488   7.160407
    16  H    5.354098   5.429843   2.733086   6.565596   6.684355
    17  H    5.906475   6.557431   3.470156   6.946633   6.917562
    18  C    4.220246   5.478026   2.974838   5.793980   3.798654
    19  H    5.069172   6.041422   3.058198   6.796858   4.494679
    20  H    4.681702   6.230326   4.043375   5.963366   4.013362
    21  H    3.399827   4.633350   2.878092   5.149819   2.776682
    22  C    3.362586   5.332840   4.478027   3.787771   3.740426
    23  H    4.449380   6.372823   5.014438   4.776635   4.660718
    24  H    3.314253   5.375705   5.233518   3.076128   3.974756
    25  H    3.143459   5.173066   4.504451   3.858320   2.892865
    26  C    4.041276   5.284411   4.016700   4.404067   5.409434
    27  H    4.006283   5.362813   4.876733   3.808955   5.544254
    28  H    5.007699   6.328535   4.572136   5.314868   6.136100
    29  H    4.276221   5.061852   3.689284   4.821512   5.861749
                   11         12         13         14         15
    11  H    0.000000
    12  H    4.228800   0.000000
    13  H    3.749323   1.798477   0.000000
    14  H    3.821548   1.784441   1.755226   0.000000
    15  H    3.285563   2.622347   3.539394   3.643453   0.000000
    16  H    3.545208   2.575030   3.771458   3.015128   1.754246
    17  H    2.352898   3.689085   4.265797   3.930601   1.776374
    18  C    2.216160   3.995292   2.632982   3.279686   4.317000
    19  H    2.736326   3.922840   2.474053   3.652469   4.209576
    20  H    2.432682   5.067164   3.714917   4.269137   5.126102
    21  H    3.085012   3.942900   2.408948   2.890532   4.873617
    22  C    2.819275   5.483266   4.694148   4.132392   5.574285
    23  H    2.527624   5.992688   5.218819   4.867774   5.631400
    24  H    3.784074   6.191284   5.532659   4.708497   6.363312
    25  H    3.282241   5.575657   4.474219   4.156489   6.005387
    26  C    2.747597   4.664378   4.770948   3.709140   4.218610
    27  H    3.723294   5.525007   5.612366   4.378832   5.265318
    28  H    2.432368   5.201267   5.273754   4.486533   4.205425
    29  H    3.200581   4.110610   4.616118   3.398242   3.676003
                   16         17         18         19         20
    16  H    0.000000
    17  H    1.792397   0.000000
    18  C    4.631766   4.125239   0.000000
    19  H    4.892957   4.398361   1.095809   0.000000
    20  H    5.448590   4.678190   1.090984   1.763693   0.000000
    21  H    4.931323   4.773069   1.092517   1.773377   1.766428
    22  C    5.054575   4.493035   2.906971   3.991374   2.703196
    23  H    5.326210   4.396073   3.092531   4.078845   2.624113
    24  H    5.599547   5.168639   3.963596   5.056310   3.755717
    25  H    5.633174   5.177913   2.564229   3.628558   2.264654
    26  C    3.185042   2.827351   4.031330   4.893747   4.326643
    27  H    4.071553   3.861439   4.823283   5.773808   5.008356
    28  H    3.492526   2.554185   4.195802   4.984195   4.327410
    29  H    2.329028   2.467803   4.475875   5.200817   4.979019
                   21         22         23         24         25
    21  H    0.000000
    22  C    2.949327   0.000000
    23  H    3.467410   1.093170   0.000000
    24  H    3.858323   1.096891   1.778474   0.000000
    25  H    2.355131   1.089218   1.790710   1.762643   0.000000
    26  C    4.261954   2.532011   2.797765   2.720294   3.488501
    27  H    4.910579   2.713491   3.075584   2.440854   3.702929
    28  H    4.670181   2.819843   2.643818   3.123302   3.835403
    29  H    4.667354   3.485863   3.823218   3.693698   4.333894
                   26         27         28         29
    26  C    0.000000
    27  H    1.095770   0.000000
    28  H    1.093812   1.774193   0.000000
    29  H    1.090100   1.759618   1.791044   0.000000
 Framework group  C1[X(C8H16Cl3FeO)]
 Deg. of freedom    81
                         Standard orientation:                         
 ---------------------------------------------------------------------
 Center     Atomic      Atomic             Coordinates (Angstroms)
 Number     Number       Type             X           Y           Z
 ---------------------------------------------------------------------
      1          8           0       -0.343028   -0.130269   -0.479922
      2          6           0       -1.208130   -1.107461   -0.321130
      3          6           0       -2.622195   -0.380884    0.719308
      4          6           0       -2.859904    0.752653   -0.060641
      5          6           0       -3.837877    0.735418   -1.185239
      6         26           0        1.475898    0.172156   -0.075325
      7         17           0        1.793063    2.195453   -0.877198
      8          6           0       -2.091056    1.992143    0.137324
      9         17           0        2.561927   -1.458508   -1.072152
     10         17           0        1.687833    0.110984    2.125706
     11          1           0       -3.357074   -1.176198    0.591664
     12          1           0       -2.504652    2.843728   -0.406495
     13          1           0       -1.936319    2.241527    1.190023
     14          1           0       -1.084108    1.772323   -0.270936
     15          1           0       -4.650865    1.431469   -0.931852
     16          1           0       -3.385679    1.122552   -2.107119
     17          1           0       -4.272134   -0.248504   -1.367463
     18          6           0       -2.097239   -0.209732    2.137666
     19          1           0       -2.756222    0.461389    2.699925
     20          1           0       -2.078847   -1.166584    2.661443
     21          1           0       -1.087038    0.205795    2.158294
     22          6           0       -0.754234   -2.259349    0.573733
     23          1           0       -1.569226   -2.950131    0.805314
     24          1           0        0.009863   -2.799235    0.001152
     25          1           0       -0.286283   -1.906359    1.491783
     26          6           0       -1.803757   -1.601171   -1.634520
     27          1           0       -1.023837   -2.193908   -2.125538
     28          1           0       -2.678599   -2.241024   -1.487334
     29          1           0       -2.049729   -0.775235   -2.302087
 ---------------------------------------------------------------------
 Rotational constants (GHZ):           0.5899999           0.3209449           0.3052791
   427 basis functions,  1056 primitive gaussians,   461 cartesian basis functions
    77 alpha electrons       72 beta electrons
       nuclear repulsion energy      1637.4651310264 Hartrees.
 NAtoms=   29 NActive=   29 NUniq=   29 SFac= 1.00D+00 NAtFMM=   60 NAOKFM=F Big=F
 Initial guess from the checkpoint file:  "checkpoint.chk"
 B after Tr=     0.000000    0.000000    0.000000
         Rot=    1.000000    0.000000    0.000000    0.000000 Ang=   0.00 deg.
 Initial guess <Sx>= 0.0000 <Sy>= 0.0000 <Sz>= 2.5000 <S**2>= 8.7625 S= 2.5021
 SCF Done:  E(UB3LYP) =  -3034.32587396     A.U. after   13 cycles
            NFock= 13  Conv=0.60D-08     -V/T= 2.0024
 <Sx>= 0.0000 <Sy>= 0.0000 <Sz>= 2.5000 <S**2>= 8.7618 S= 2.5020
 <L.S>= 0.000000000000E+00
 Annihilation of the first spin contaminant:
 S**2 before annihilation     8.7618,   after     8.7500
 1\1\GINC-HOLY7C06107\SP\UB3LYP\Jul-CC-pVDZ\C8H16Cl3Fe1O1(6)\EKWAN\11-F
 eb-2020\0\\#t pop=none jul-cc-pvdz guess=read ub3lyp\\theory_abbreviat
 ion b3lyp\\0,6\O,0,-0.343028,-0.130269,-0.479922\C,0,-1.20813,-1.10746
 1,-0.32113\C,0,-2.622195,-0.380884,0.719308\C,0,-2.859904,0.752653,-0.
 060641\C,0,-3.837877,0.735418,-1.185239\Fe,0,1.475898,0.172156,-0.0753
 25\Cl,0,1.793063,2.195453,-0.877198\C,0,-2.091056,1.992143,0.137324\Cl
 ,0,2.561927,-1.458508,-1.072152\Cl,0,1.687833,0.110984,2.125706\H,0,-3
 .357074,-1.176198,0.591664\H,0,-2.504652,2.843728,-0.406495\H,0,-1.936
 319,2.241527,1.190023\H,0,-1.084108,1.772323,-0.270936\H,0,-4.650865,1
 .431469,-0.931852\H,0,-3.385679,1.122552,-2.107119\H,0,-4.272134,-0.24
 8504,-1.367463\C,0,-2.097239,-0.209732,2.137666\H,0,-2.756222,0.461389
 ,2.699925\H,0,-2.078847,-1.166584,2.661443\H,0,-1.087038,0.205795,2.15
 8294\C,0,-0.754234,-2.259349,0.573733\H,0,-1.569226,-2.950131,0.805314
 \H,0,0.009863,-2.799235,0.001152\H,0,-0.286283,-1.906359,1.491783\C,0,
 -1.803757,-1.601171,-1.63452\H,0,-1.023837,-2.193908,-2.125538\H,0,-2.
 678599,-2.241024,-1.487334\H,0,-2.049729,-0.775235,-2.302087\\Version=
 ES64L-G16RevA.03\HF=-3034.325874\S2=8.761833\S2-1=0.\S2A=8.750044\RMSD
 =6.030e-09\PG=C01 [X(C8H16Cl3Fe1O1)]\\@


 AND THIS OUR LIFE, EXEMPT FROM PUBLIC HAUNT,
 FINDS TONGUES IN TREES, BOOKS IN THE RUNNING BROOKS,
 SERMONS IN STONES, AND GOOD IN EVERYTHING.
 I WOULD NOT CHANGE IT. -- W. SHAKESPEARE
 AS YOU LIKE IT, ACT II, SCENE 1.
 Job cpu time:       0 days  0 hours 55 minutes 35.1 seconds.
 Elapsed time:       0 days  0 hours 13 minutes 56.3 seconds.
 File lengths (MBytes):  RWF=    174 Int=      0 D2E=      0 Chk=     13 Scr=      1
 Normal termination of Gaussian 16 at Tue Feb 11 14:14:34 2020.
 Initial command:
 /n/sw/g16_nehalem/g16/l1.exe "/scratch/Gau-10628.inp" -scrdir="/scratch/"
 Entering Link 1 = /n/sw/g16_nehalem/g16/l1.exe PID=     15240.
  
 Copyright (c) 1988,1990,1992,1993,1995,1998,2003,2009,2016,
            Gaussian, Inc.  All Rights Reserved.
  
 This is part of the Gaussian(R) 16 program.  It is based on
 the Gaussian(R) 09 system (copyright 2009, Gaussian, Inc.),
 the Gaussian(R) 03 system (copyright 2003, Gaussian, Inc.),
 the Gaussian(R) 98 system (copyright 1998, Gaussian, Inc.),
 the Gaussian(R) 94 system (copyright 1995, Gaussian, Inc.),
 the Gaussian 92(TM) system (copyright 1992, Gaussian, Inc.),
 the Gaussian 90(TM) system (copyright 1990, Gaussian, Inc.),
 the Gaussian 88(TM) system (copyright 1988, Gaussian, Inc.),
 the Gaussian 86(TM) system (copyright 1986, Carnegie Mellon
 University), and the Gaussian 82(TM) system (copyright 1983,
 Carnegie Mellon University). Gaussian is a federally registered
 trademark of Gaussian, Inc.
  
 This software contains proprietary and confidential information,
 including trade secrets, belonging to Gaussian, Inc.
  
 This software is provided under written license and may be
 used, copied, transmitted, or stored only in accord with that
 written license.
  
 The following legend is applicable only to US Government
 contracts under FAR:
  
                    RESTRICTED RIGHTS LEGEND
  
 Use, reproduction and disclosure by the US Government is
 subject to restrictions as set forth in subparagraphs (a)
 and (c) of the Commercial Computer Software - Restricted
 Rights clause in FAR 52.227-19.
  
 Gaussian, Inc.
 340 Quinnipiac St., Bldg. 40, Wallingford CT 06492
  
  
 ---------------------------------------------------------------
 Warning -- This program may not be used in any manner that
 competes with the business of Gaussian, Inc. or will provide
 assistance to any competitor of Gaussian, Inc.  The licensee
 of this program is prohibited from giving any competitor of
 Gaussian, Inc. access to this program.  By using this program,
 the user acknowledges that Gaussian, Inc. is engaged in the
 business of creating and licensing software in the field of
 computational chemistry and represents and warrants to the
 licensee that it is not a competitor of Gaussian, Inc. and that
 it will not use this program in any manner prohibited above.
 ---------------------------------------------------------------
  

 Cite this work as:
 Gaussian 16, Revision A.03,
 M. J. Frisch, G. W. Trucks, H. B. Schlegel, G. E. Scuseria, 
 M. A. Robb, J. R. Cheeseman, G. Scalmani, V. Barone, 
 G. A. Petersson, H. Nakatsuji, X. Li, M. Caricato, A. V. Marenich, 
 J. Bloino, B. G. Janesko, R. Gomperts, B. Mennucci, H. P. Hratchian, 
 J. V. Ortiz, A. F. Izmaylov, J. L. Sonnenberg, D. Williams-Young, 
 F. Ding, F. Lipparini, F. Egidi, J. Goings, B. Peng, A. Petrone, 
 T. Henderson, D. Ranasinghe, V. G. Zakrzewski, J. Gao, N. Rega, 
 G. Zheng, W. Liang, M. Hada, M. Ehara, K. Toyota, R. Fukuda, 
 J. Hasegawa, M. Ishida, T. Nakajima, Y. Honda, O. Kitao, H. Nakai, 
 T. Vreven, K. Throssell, J. A. Montgomery, Jr., J. E. Peralta, 
 F. Ogliaro, M. J. Bearpark, J. J. Heyd, E. N. Brothers, K. N. Kudin, 
 V. N. Staroverov, T. A. Keith, R. Kobayashi, J. Normand, 
 K. Raghavachari, A. P. Rendell, J. C. Burant, S. S. Iyengar, 
 J. Tomasi, M. Cossi, J. M. Millam, M. Klene, C. Adamo, R. Cammi, 
 J. W. Ochterski, R. L. Martin, K. Morokuma, O. Farkas, 
 J. B. Foresman, and D. J. Fox, Gaussian, Inc., Wallingford CT, 2016.
 
 ******************************************
 Gaussian 16:  ES64L-G16RevA.03 25-Dec-2016
                11-Feb-2020 
 ******************************************
 %chk=checkpoint.chk
 %mem=3GB
 %nprocshared=4
 Will use up to    4 processors via shared memory.
 -------------------------------------------------------------------
 #t pop=none jul-cc-pvdz guess=read ub3lyp empiricaldispersion=gd3bj
 -------------------------------------------------------------------
 ------------------------------
 theory_abbreviation b3lyp_d3bj
 ------------------------------
 Symbolic Z-matrix:
 Charge =  0 Multiplicity = 6
 O                    -0.34303  -0.13027  -0.47992 
 C                    -1.20813  -1.10746  -0.32113 
 C                    -2.6222   -0.38088   0.71931 
 C                    -2.8599    0.75265  -0.06064 
 C                    -3.83788   0.73542  -1.18524 
 Fe                    1.4759    0.17216  -0.07533 
 Cl                    1.79306   2.19545  -0.8772 
 C                    -2.09106   1.99214   0.13732 
 Cl                    2.56193  -1.45851  -1.07215 
 Cl                    1.68783   0.11098   2.12571 
 H                    -3.35707  -1.1762    0.59166 
 H                    -2.50465   2.84373  -0.4065 
 H                    -1.93632   2.24153   1.19002 
 H                    -1.08411   1.77232  -0.27094 
 H                    -4.65087   1.43147  -0.93185 
 H                    -3.38568   1.12255  -2.10712 
 H                    -4.27213  -0.2485   -1.36746 
 C                    -2.09724  -0.20973   2.13767 
 H                    -2.75622   0.46139   2.69993 
 H                    -2.07885  -1.16658   2.66144 
 H                    -1.08704   0.2058    2.15829 
 C                    -0.75423  -2.25935   0.57373 
 H                    -1.56923  -2.95013   0.80531 
 H                     0.00986  -2.79924   0.00115 
 H                    -0.28628  -1.90636   1.49178 
 C                    -1.80376  -1.60117  -1.63452 
 H                    -1.02384  -2.19391  -2.12554 
 H                    -2.6786   -2.24102  -1.48733 
 H                    -2.04973  -0.77524  -2.30209 
 
                    Distance matrix (angstroms):
                    1          2          3          4          5
     1  O    0.000000
     2  C    1.314732   0.000000
     3  C    2.587579   1.900001   0.000000
     4  C    2.700002   2.501247   1.396328   0.000000
     5  C    3.668904   3.325426   2.520181   1.490453   0.000000
     6  Fe   1.887764   2.983596   4.210898   4.374514   5.457598
     7  Cl   3.182718   4.497289   5.355450   4.939488   5.825296
     8  C    2.818018   3.255347   2.500414   1.471955   2.525849
     9  Cl   3.248649   3.860129   5.589787   5.942107   6.766357
    10  Cl   3.312385   3.982238   4.560288   5.086626   6.471920
    11  H    3.365522   2.335782   1.090351   2.095983   2.653833
    12  H    3.677318   4.159345   3.417510   2.149049   2.613217
    13  H    3.309488   3.745606   2.751188   2.152653   3.395019
    14  H    2.052494   2.882890   2.825349   2.058495   3.081293
    15  H    4.604425   4.321061   3.182209   2.104125   1.099837
    16  H    3.670839   3.592274   3.291188   2.145073   1.097369
    17  H    4.029837   3.349737   2.663538   2.168984   1.090820
    18  C    3.152037   2.764437   1.522042   2.518014   3.868440
    19  H    4.035467   3.739606   2.156439   2.777825   4.042223
    20  H    3.735665   3.107633   2.164357   3.421003   4.637754
    21  H    2.761643   2.808353   2.184395   2.892366   4.361975
    22  C    2.410863   1.527628   2.653130   3.729401   4.644509
    23  H    3.332719   2.189680   2.777980   4.015761   4.763649
    24  H    2.734839   2.109377   3.645806   4.566759   5.357835
    25  H    2.654305   2.185107   2.894871   4.012965   5.172935
    26  C    2.372842   1.524308   2.774788   3.022090   3.130359
    27  H    2.725832   2.114289   3.732955   4.039451   4.169405
    28  H    3.305307   2.192550   2.886619   3.321209   3.208488
    29  H    2.578584   2.177809   3.100332   2.831061   2.593626
                    6          7          8          9         10
     6  Fe   0.000000
     7  Cl   2.199392   0.000000
     8  C    4.010079   4.019573   0.000000
     9  Cl   2.198224   3.739063   5.917776   0.000000
    10  Cl   2.212057   3.656982   4.666093   3.667921   0.000000
    11  H    5.061675   6.328467   3.442036   6.154881   5.427818
    12  H    4.805387   4.371747   1.091787   6.680012   5.608642
    13  H    4.186481   4.264249   1.092845   6.248353   4.306878
    14  H    3.025298   2.970641   1.108576   4.936982   4.023381
    15  H    6.313219   6.489289   2.830215   7.771488   7.160407
    16  H    5.354098   5.429843   2.733086   6.565596   6.684355
    17  H    5.906475   6.557431   3.470156   6.946633   6.917562
    18  C    4.220246   5.478026   2.974838   5.793980   3.798654
    19  H    5.069172   6.041422   3.058198   6.796858   4.494679
    20  H    4.681702   6.230326   4.043375   5.963366   4.013362
    21  H    3.399827   4.633350   2.878092   5.149819   2.776682
    22  C    3.362586   5.332840   4.478027   3.787771   3.740426
    23  H    4.449380   6.372823   5.014438   4.776635   4.660718
    24  H    3.314253   5.375705   5.233518   3.076128   3.974756
    25  H    3.143459   5.173066   4.504451   3.858320   2.892865
    26  C    4.041276   5.284411   4.016700   4.404067   5.409434
    27  H    4.006283   5.362813   4.876733   3.808955   5.544254
    28  H    5.007699   6.328535   4.572136   5.314868   6.136100
    29  H    4.276221   5.061852   3.689284   4.821512   5.861749
                   11         12         13         14         15
    11  H    0.000000
    12  H    4.228800   0.000000
    13  H    3.749323   1.798477   0.000000
    14  H    3.821548   1.784441   1.755226   0.000000
    15  H    3.285563   2.622347   3.539394   3.643453   0.000000
    16  H    3.545208   2.575030   3.771458   3.015128   1.754246
    17  H    2.352898   3.689085   4.265797   3.930601   1.776374
    18  C    2.216160   3.995292   2.632982   3.279686   4.317000
    19  H    2.736326   3.922840   2.474053   3.652469   4.209576
    20  H    2.432682   5.067164   3.714917   4.269137   5.126102
    21  H    3.085012   3.942900   2.408948   2.890532   4.873617
    22  C    2.819275   5.483266   4.694148   4.132392   5.574285
    23  H    2.527624   5.992688   5.218819   4.867774   5.631400
    24  H    3.784074   6.191284   5.532659   4.708497   6.363312
    25  H    3.282241   5.575657   4.474219   4.156489   6.005387
    26  C    2.747597   4.664378   4.770948   3.709140   4.218610
    27  H    3.723294   5.525007   5.612366   4.378832   5.265318
    28  H    2.432368   5.201267   5.273754   4.486533   4.205425
    29  H    3.200581   4.110610   4.616118   3.398242   3.676003
                   16         17         18         19         20
    16  H    0.000000
    17  H    1.792397   0.000000
    18  C    4.631766   4.125239   0.000000
    19  H    4.892957   4.398361   1.095809   0.000000
    20  H    5.448590   4.678190   1.090984   1.763693   0.000000
    21  H    4.931323   4.773069   1.092517   1.773377   1.766428
    22  C    5.054575   4.493035   2.906971   3.991374   2.703196
    23  H    5.326210   4.396073   3.092531   4.078845   2.624113
    24  H    5.599547   5.168639   3.963596   5.056310   3.755717
    25  H    5.633174   5.177913   2.564229   3.628558   2.264654
    26  C    3.185042   2.827351   4.031330   4.893747   4.326643
    27  H    4.071553   3.861439   4.823283   5.773808   5.008356
    28  H    3.492526   2.554185   4.195802   4.984195   4.327410
    29  H    2.329028   2.467803   4.475875   5.200817   4.979019
                   21         22         23         24         25
    21  H    0.000000
    22  C    2.949327   0.000000
    23  H    3.467410   1.093170   0.000000
    24  H    3.858323   1.096891   1.778474   0.000000
    25  H    2.355131   1.089218   1.790710   1.762643   0.000000
    26  C    4.261954   2.532011   2.797765   2.720294   3.488501
    27  H    4.910579   2.713491   3.075584   2.440854   3.702929
    28  H    4.670181   2.819843   2.643818   3.123302   3.835403
    29  H    4.667354   3.485863   3.823218   3.693698   4.333894
                   26         27         28         29
    26  C    0.000000
    27  H    1.095770   0.000000
    28  H    1.093812   1.774193   0.000000
    29  H    1.090100   1.759618   1.791044   0.000000
 Framework group  C1[X(C8H16Cl3FeO)]
 Deg. of freedom    81
                         Standard orientation:                         
 ---------------------------------------------------------------------
 Center     Atomic      Atomic             Coordinates (Angstroms)
 Number     Number       Type             X           Y           Z
 ---------------------------------------------------------------------
      1          8           0       -0.343028   -0.130269   -0.479922
      2          6           0       -1.208130   -1.107461   -0.321130
      3          6           0       -2.622195   -0.380884    0.719308
      4          6           0       -2.859904    0.752653   -0.060641
      5          6           0       -3.837877    0.735418   -1.185239
      6         26           0        1.475898    0.172156   -0.075325
      7         17           0        1.793063    2.195453   -0.877198
      8          6           0       -2.091056    1.992143    0.137324
      9         17           0        2.561927   -1.458508   -1.072152
     10         17           0        1.687833    0.110984    2.125706
     11          1           0       -3.357074   -1.176198    0.591664
     12          1           0       -2.504652    2.843728   -0.406495
     13          1           0       -1.936319    2.241527    1.190023
     14          1           0       -1.084108    1.772323   -0.270936
     15          1           0       -4.650865    1.431469   -0.931852
     16          1           0       -3.385679    1.122552   -2.107119
     17          1           0       -4.272134   -0.248504   -1.367463
     18          6           0       -2.097239   -0.209732    2.137666
     19          1           0       -2.756222    0.461389    2.699925
     20          1           0       -2.078847   -1.166584    2.661443
     21          1           0       -1.087038    0.205795    2.158294
     22          6           0       -0.754234   -2.259349    0.573733
     23          1           0       -1.569226   -2.950131    0.805314
     24          1           0        0.009863   -2.799235    0.001152
     25          1           0       -0.286283   -1.906359    1.491783
     26          6           0       -1.803757   -1.601171   -1.634520
     27          1           0       -1.023837   -2.193908   -2.125538
     28          1           0       -2.678599   -2.241024   -1.487334
     29          1           0       -2.049729   -0.775235   -2.302087
 ---------------------------------------------------------------------
 Rotational constants (GHZ):           0.5899999           0.3209449           0.3052791
   427 basis functions,  1056 primitive gaussians,   461 cartesian basis functions
    77 alpha electrons       72 beta electrons
       nuclear repulsion energy      1637.4651310264 Hartrees.
 NAtoms=   29 NActive=   29 NUniq=   29 SFac= 1.00D+00 NAtFMM=   60 NAOKFM=F Big=F
 Nuclear repulsion after empirical dispersion term =     1637.3976108534 Hartrees.
 Initial guess from the checkpoint file:  "checkpoint.chk"
 B after Tr=     0.000000    0.000000    0.000000
         Rot=    1.000000    0.000000    0.000000    0.000000 Ang=   0.00 deg.
 Initial guess <Sx>= 0.0000 <Sy>= 0.0000 <Sz>= 2.5000 <S**2>= 8.7618 S= 2.5020
 SCF Done:  E(UB3LYP) =  -3034.39339414     A.U. after    1 cycles
            NFock=  1  Conv=0.40D-08     -V/T= 2.0024
 <Sx>= 0.0000 <Sy>= 0.0000 <Sz>= 2.5000 <S**2>= 8.7618 S= 2.5020
 <L.S>= 0.000000000000E+00
 Annihilation of the first spin contaminant:
 S**2 before annihilation     8.7618,   after     8.7500
 1\1\GINC-HOLY7C06107\SP\UB3LYP\Jul-CC-pVDZ\C8H16Cl3Fe1O1(6)\EKWAN\11-F
 eb-2020\0\\#t pop=none jul-cc-pvdz guess=read ub3lyp empiricaldispersi
 on=gd3bj\\theory_abbreviation b3lyp_d3bj\\0,6\O,0,-0.343028,-0.130269,
 -0.479922\C,0,-1.20813,-1.107461,-0.32113\C,0,-2.622195,-0.380884,0.71
 9308\C,0,-2.859904,0.752653,-0.060641\C,0,-3.837877,0.735418,-1.185239
 \Fe,0,1.475898,0.172156,-0.075325\Cl,0,1.793063,2.195453,-0.877198\C,0
 ,-2.091056,1.992143,0.137324\Cl,0,2.561927,-1.458508,-1.072152\Cl,0,1.
 687833,0.110984,2.125706\H,0,-3.357074,-1.176198,0.591664\H,0,-2.50465
 2,2.843728,-0.406495\H,0,-1.936319,2.241527,1.190023\H,0,-1.084108,1.7
 72323,-0.270936\H,0,-4.650865,1.431469,-0.931852\H,0,-3.385679,1.12255
 2,-2.107119\H,0,-4.272134,-0.248504,-1.367463\C,0,-2.097239,-0.209732,
 2.137666\H,0,-2.756222,0.461389,2.699925\H,0,-2.078847,-1.166584,2.661
 443\H,0,-1.087038,0.205795,2.158294\C,0,-0.754234,-2.259349,0.573733\H
 ,0,-1.569226,-2.950131,0.805314\H,0,0.009863,-2.799235,0.001152\H,0,-0
 .286283,-1.906359,1.491783\C,0,-1.803757,-1.601171,-1.63452\H,0,-1.023
 837,-2.193908,-2.125538\H,0,-2.678599,-2.241024,-1.487334\H,0,-2.04972
 9,-0.775235,-2.302087\\Version=ES64L-G16RevA.03\HF=-3034.3933941\S2=8.
 761833\S2-1=0.\S2A=8.750044\RMSD=3.976e-09\PG=C01 [X(C8H16Cl3Fe1O1)]\\
 @


 ... IT CAN BE VERY DIFFICULT, IN THESE COMPLEX TIMES,
 TO UNDERSTAND JUST HOW SCIENTISTS DO WHAT THEY DO.

                     DON MOSER IN THE FEBRUARY 1979 SMITHSONIAN
 Job cpu time:       0 days  0 hours  4 minutes 40.8 seconds.
 Elapsed time:       0 days  0 hours  1 minutes 10.9 seconds.
 File lengths (MBytes):  RWF=    170 Int=      0 D2E=      0 Chk=     13 Scr=      1
 Normal termination of Gaussian 16 at Tue Feb 11 14:15:45 2020.
 Initial command:
 /n/sw/g16_nehalem/g16/l1.exe "/scratch/Gau-10628.inp" -scrdir="/scratch/"
 Entering Link 1 = /n/sw/g16_nehalem/g16/l1.exe PID=     15552.
  
 Copyright (c) 1988,1990,1992,1993,1995,1998,2003,2009,2016,
            Gaussian, Inc.  All Rights Reserved.
  
 This is part of the Gaussian(R) 16 program.  It is based on
 the Gaussian(R) 09 system (copyright 2009, Gaussian, Inc.),
 the Gaussian(R) 03 system (copyright 2003, Gaussian, Inc.),
 the Gaussian(R) 98 system (copyright 1998, Gaussian, Inc.),
 the Gaussian(R) 94 system (copyright 1995, Gaussian, Inc.),
 the Gaussian 92(TM) system (copyright 1992, Gaussian, Inc.),
 the Gaussian 90(TM) system (copyright 1990, Gaussian, Inc.),
 the Gaussian 88(TM) system (copyright 1988, Gaussian, Inc.),
 the Gaussian 86(TM) system (copyright 1986, Carnegie Mellon
 University), and the Gaussian 82(TM) system (copyright 1983,
 Carnegie Mellon University). Gaussian is a federally registered
 trademark of Gaussian, Inc.
  
 This software contains proprietary and confidential information,
 including trade secrets, belonging to Gaussian, Inc.
  
 This software is provided under written license and may be
 used, copied, transmitted, or stored only in accord with that
 written license.
  
 The following legend is applicable only to US Government
 contracts under FAR:
  
                    RESTRICTED RIGHTS LEGEND
  
 Use, reproduction and disclosure by the US Government is
 subject to restrictions as set forth in subparagraphs (a)
 and (c) of the Commercial Computer Software - Restricted
 Rights clause in FAR 52.227-19.
  
 Gaussian, Inc.
 340 Quinnipiac St., Bldg. 40, Wallingford CT 06492
  
  
 ---------------------------------------------------------------
 Warning -- This program may not be used in any manner that
 competes with the business of Gaussian, Inc. or will provide
 assistance to any competitor of Gaussian, Inc.  The licensee
 of this program is prohibited from giving any competitor of
 Gaussian, Inc. access to this program.  By using this program,
 the user acknowledges that Gaussian, Inc. is engaged in the
 business of creating and licensing software in the field of
 computational chemistry and represents and warrants to the
 licensee that it is not a competitor of Gaussian, Inc. and that
 it will not use this program in any manner prohibited above.
 ---------------------------------------------------------------
  

 Cite this work as:
 Gaussian 16, Revision A.03,
 M. J. Frisch, G. W. Trucks, H. B. Schlegel, G. E. Scuseria, 
 M. A. Robb, J. R. Cheeseman, G. Scalmani, V. Barone, 
 G. A. Petersson, H. Nakatsuji, X. Li, M. Caricato, A. V. Marenich, 
 J. Bloino, B. G. Janesko, R. Gomperts, B. Mennucci, H. P. Hratchian, 
 J. V. Ortiz, A. F. Izmaylov, J. L. Sonnenberg, D. Williams-Young, 
 F. Ding, F. Lipparini, F. Egidi, J. Goings, B. Peng, A. Petrone, 
 T. Henderson, D. Ranasinghe, V. G. Zakrzewski, J. Gao, N. Rega, 
 G. Zheng, W. Liang, M. Hada, M. Ehara, K. Toyota, R. Fukuda, 
 J. Hasegawa, M. Ishida, T. Nakajima, Y. Honda, O. Kitao, H. Nakai, 
 T. Vreven, K. Throssell, J. A. Montgomery, Jr., J. E. Peralta, 
 F. Ogliaro, M. J. Bearpark, J. J. Heyd, E. N. Brothers, K. N. Kudin, 
 V. N. Staroverov, T. A. Keith, R. Kobayashi, J. Normand, 
 K. Raghavachari, A. P. Rendell, J. C. Burant, S. S. Iyengar, 
 J. Tomasi, M. Cossi, J. M. Millam, M. Klene, C. Adamo, R. Cammi, 
 J. W. Ochterski, R. L. Martin, K. Morokuma, O. Farkas, 
 J. B. Foresman, and D. J. Fox, Gaussian, Inc., Wallingford CT, 2016.
 
 ******************************************
 Gaussian 16:  ES64L-G16RevA.03 25-Dec-2016
                11-Feb-2020 
 ******************************************
 %chk=checkpoint.chk
 %mem=3GB
 %nprocshared=4
 Will use up to    4 processors via shared memory.
 ----------------------------------------
 #t pop=none jul-cc-pvdz guess=read ub97d
 ----------------------------------------
 ------------------------
 theory_abbreviation b97d
 ------------------------
 Symbolic Z-matrix:
 Charge =  0 Multiplicity = 6
 O                    -0.34303  -0.13027  -0.47992 
 C                    -1.20813  -1.10746  -0.32113 
 C                    -2.6222   -0.38088   0.71931 
 C                    -2.8599    0.75265  -0.06064 
 C                    -3.83788   0.73542  -1.18524 
 Fe                    1.4759    0.17216  -0.07533 
 Cl                    1.79306   2.19545  -0.8772 
 C                    -2.09106   1.99214   0.13732 
 Cl                    2.56193  -1.45851  -1.07215 
 Cl                    1.68783   0.11098   2.12571 
 H                    -3.35707  -1.1762    0.59166 
 H                    -2.50465   2.84373  -0.4065 
 H                    -1.93632   2.24153   1.19002 
 H                    -1.08411   1.77232  -0.27094 
 H                    -4.65087   1.43147  -0.93185 
 H                    -3.38568   1.12255  -2.10712 
 H                    -4.27213  -0.2485   -1.36746 
 C                    -2.09724  -0.20973   2.13767 
 H                    -2.75622   0.46139   2.69993 
 H                    -2.07885  -1.16658   2.66144 
 H                    -1.08704   0.2058    2.15829 
 C                    -0.75423  -2.25935   0.57373 
 H                    -1.56923  -2.95013   0.80531 
 H                     0.00986  -2.79924   0.00115 
 H                    -0.28628  -1.90636   1.49178 
 C                    -1.80376  -1.60117  -1.63452 
 H                    -1.02384  -2.19391  -2.12554 
 H                    -2.6786   -2.24102  -1.48733 
 H                    -2.04973  -0.77524  -2.30209 
 
                    Distance matrix (angstroms):
                    1          2          3          4          5
     1  O    0.000000
     2  C    1.314732   0.000000
     3  C    2.587579   1.900001   0.000000
     4  C    2.700002   2.501247   1.396328   0.000000
     5  C    3.668904   3.325426   2.520181   1.490453   0.000000
     6  Fe   1.887764   2.983596   4.210898   4.374514   5.457598
     7  Cl   3.182718   4.497289   5.355450   4.939488   5.825296
     8  C    2.818018   3.255347   2.500414   1.471955   2.525849
     9  Cl   3.248649   3.860129   5.589787   5.942107   6.766357
    10  Cl   3.312385   3.982238   4.560288   5.086626   6.471920
    11  H    3.365522   2.335782   1.090351   2.095983   2.653833
    12  H    3.677318   4.159345   3.417510   2.149049   2.613217
    13  H    3.309488   3.745606   2.751188   2.152653   3.395019
    14  H    2.052494   2.882890   2.825349   2.058495   3.081293
    15  H    4.604425   4.321061   3.182209   2.104125   1.099837
    16  H    3.670839   3.592274   3.291188   2.145073   1.097369
    17  H    4.029837   3.349737   2.663538   2.168984   1.090820
    18  C    3.152037   2.764437   1.522042   2.518014   3.868440
    19  H    4.035467   3.739606   2.156439   2.777825   4.042223
    20  H    3.735665   3.107633   2.164357   3.421003   4.637754
    21  H    2.761643   2.808353   2.184395   2.892366   4.361975
    22  C    2.410863   1.527628   2.653130   3.729401   4.644509
    23  H    3.332719   2.189680   2.777980   4.015761   4.763649
    24  H    2.734839   2.109377   3.645806   4.566759   5.357835
    25  H    2.654305   2.185107   2.894871   4.012965   5.172935
    26  C    2.372842   1.524308   2.774788   3.022090   3.130359
    27  H    2.725832   2.114289   3.732955   4.039451   4.169405
    28  H    3.305307   2.192550   2.886619   3.321209   3.208488
    29  H    2.578584   2.177809   3.100332   2.831061   2.593626
                    6          7          8          9         10
     6  Fe   0.000000
     7  Cl   2.199392   0.000000
     8  C    4.010079   4.019573   0.000000
     9  Cl   2.198224   3.739063   5.917776   0.000000
    10  Cl   2.212057   3.656982   4.666093   3.667921   0.000000
    11  H    5.061675   6.328467   3.442036   6.154881   5.427818
    12  H    4.805387   4.371747   1.091787   6.680012   5.608642
    13  H    4.186481   4.264249   1.092845   6.248353   4.306878
    14  H    3.025298   2.970641   1.108576   4.936982   4.023381
    15  H    6.313219   6.489289   2.830215   7.771488   7.160407
    16  H    5.354098   5.429843   2.733086   6.565596   6.684355
    17  H    5.906475   6.557431   3.470156   6.946633   6.917562
    18  C    4.220246   5.478026   2.974838   5.793980   3.798654
    19  H    5.069172   6.041422   3.058198   6.796858   4.494679
    20  H    4.681702   6.230326   4.043375   5.963366   4.013362
    21  H    3.399827   4.633350   2.878092   5.149819   2.776682
    22  C    3.362586   5.332840   4.478027   3.787771   3.740426
    23  H    4.449380   6.372823   5.014438   4.776635   4.660718
    24  H    3.314253   5.375705   5.233518   3.076128   3.974756
    25  H    3.143459   5.173066   4.504451   3.858320   2.892865
    26  C    4.041276   5.284411   4.016700   4.404067   5.409434
    27  H    4.006283   5.362813   4.876733   3.808955   5.544254
    28  H    5.007699   6.328535   4.572136   5.314868   6.136100
    29  H    4.276221   5.061852   3.689284   4.821512   5.861749
                   11         12         13         14         15
    11  H    0.000000
    12  H    4.228800   0.000000
    13  H    3.749323   1.798477   0.000000
    14  H    3.821548   1.784441   1.755226   0.000000
    15  H    3.285563   2.622347   3.539394   3.643453   0.000000
    16  H    3.545208   2.575030   3.771458   3.015128   1.754246
    17  H    2.352898   3.689085   4.265797   3.930601   1.776374
    18  C    2.216160   3.995292   2.632982   3.279686   4.317000
    19  H    2.736326   3.922840   2.474053   3.652469   4.209576
    20  H    2.432682   5.067164   3.714917   4.269137   5.126102
    21  H    3.085012   3.942900   2.408948   2.890532   4.873617
    22  C    2.819275   5.483266   4.694148   4.132392   5.574285
    23  H    2.527624   5.992688   5.218819   4.867774   5.631400
    24  H    3.784074   6.191284   5.532659   4.708497   6.363312
    25  H    3.282241   5.575657   4.474219   4.156489   6.005387
    26  C    2.747597   4.664378   4.770948   3.709140   4.218610
    27  H    3.723294   5.525007   5.612366   4.378832   5.265318
    28  H    2.432368   5.201267   5.273754   4.486533   4.205425
    29  H    3.200581   4.110610   4.616118   3.398242   3.676003
                   16         17         18         19         20
    16  H    0.000000
    17  H    1.792397   0.000000
    18  C    4.631766   4.125239   0.000000
    19  H    4.892957   4.398361   1.095809   0.000000
    20  H    5.448590   4.678190   1.090984   1.763693   0.000000
    21  H    4.931323   4.773069   1.092517   1.773377   1.766428
    22  C    5.054575   4.493035   2.906971   3.991374   2.703196
    23  H    5.326210   4.396073   3.092531   4.078845   2.624113
    24  H    5.599547   5.168639   3.963596   5.056310   3.755717
[...]
     29          1           0       -2.049729   -0.775235   -2.302087
 ---------------------------------------------------------------------
 Rotational constants (GHZ):           0.5899999           0.3209449           0.3052791
   427 basis functions,  1056 primitive gaussians,   461 cartesian basis functions
    77 alpha electrons       72 beta electrons
       nuclear repulsion energy      1637.4651310264 Hartrees.
 NAtoms=   29 NActive=   29 NUniq=   29 SFac= 1.00D+00 NAtFMM=   60 NAOKFM=F Big=F
 Nuclear repulsion after empirical dispersion term =     1637.4626965181 Hartrees.
 Initial guess from the checkpoint file:  "checkpoint.chk"
 B after Tr=     0.000000    0.000000    0.000000
         Rot=    1.000000    0.000000    0.000000    0.000000 Ang=   0.00 deg.
 Initial guess <Sx>= 0.0000 <Sy>= 0.0000 <Sz>= 2.5000 <S**2>= 8.7616 S= 2.5019
 SCF Done:  E(UM06L) =  -3034.19195007     A.U. after   16 cycles
            NFock= 16  Conv=0.99D-08     -V/T= 2.0020
 <Sx>= 0.0000 <Sy>= 0.0000 <Sz>= 2.5000 <S**2>= 8.7618 S= 2.5020
 <L.S>= 0.000000000000E+00
 Annihilation of the first spin contaminant:
 S**2 before annihilation     8.7618,   after     8.7500
 1\1\GINC-HOLY7C06107\SP\UM06L\Jul-CC-pVDZ\C8H16Cl3Fe1O1(6)\EKWAN\11-Fe
 b-2020\0\\#t pop=none jul-cc-pvdz guess=read um06l empiricaldispersion
 =gd3\\theory_abbreviation m06l_d3\\0,6\O,0,-0.343028,-0.130269,-0.4799
 22\C,0,-1.20813,-1.107461,-0.32113\C,0,-2.622195,-0.380884,0.719308\C,
 0,-2.859904,0.752653,-0.060641\C,0,-3.837877,0.735418,-1.185239\Fe,0,1
 .475898,0.172156,-0.075325\Cl,0,1.793063,2.195453,-0.877198\C,0,-2.091
 056,1.992143,0.137324\Cl,0,2.561927,-1.458508,-1.072152\Cl,0,1.687833,
 0.110984,2.125706\H,0,-3.357074,-1.176198,0.591664\H,0,-2.504652,2.843
 728,-0.406495\H,0,-1.936319,2.241527,1.190023\H,0,-1.084108,1.772323,-
 0.270936\H,0,-4.650865,1.431469,-0.931852\H,0,-3.385679,1.122552,-2.10
 7119\H,0,-4.272134,-0.248504,-1.367463\C,0,-2.097239,-0.209732,2.13766
 6\H,0,-2.756222,0.461389,2.699925\H,0,-2.078847,-1.166584,2.661443\H,0
 ,-1.087038,0.205795,2.158294\C,0,-0.754234,-2.259349,0.573733\H,0,-1.5
 69226,-2.950131,0.805314\H,0,0.009863,-2.799235,0.001152\H,0,-0.286283
 ,-1.906359,1.491783\C,0,-1.803757,-1.601171,-1.63452\H,0,-1.023837,-2.
 193908,-2.125538\H,0,-2.678599,-2.241024,-1.487334\H,0,-2.049729,-0.77
 5235,-2.302087\\Version=ES64L-G16RevA.03\HF=-3034.1919501\S2=8.761782\
 S2-1=0.\S2A=8.750044\RMSD=9.890e-09\PG=C01 [X(C8H16Cl3Fe1O1)]\\@


 WHEN ALL ELSE FAILS, TRY THE BOSS'S SUGGESTION.
 Job cpu time:       0 days  1 hours 10 minutes  4.4 seconds.
 Elapsed time:       0 days  0 hours 17 minutes 36.2 seconds.
 File lengths (MBytes):  RWF=    174 Int=      0 D2E=      0 Chk=     13 Scr=      1
 Normal termination of Gaussian 16 at Tue Feb 11 23:47:40 2020.
 Initial command:
 /n/sw/g16_nehalem/g16/l1.exe "/scratch/Gau-10628.inp" -scrdir="/scratch/"
 Entering Link 1 = /n/sw/g16_nehalem/g16/l1.exe PID=     72117.
  
 Copyright (c) 1988,1990,1992,1993,1995,1998,2003,2009,2016,
            Gaussian, Inc.  All Rights Reserved.
  
 This is part of the Gaussian(R) 16 program.  It is based on
 the Gaussian(R) 09 system (copyright 2009, Gaussian, Inc.),
 the Gaussian(R) 03 system (copyright 2003, Gaussian, Inc.),
 the Gaussian(R) 98 system (copyright 1998, Gaussian, Inc.),
 the Gaussian(R) 94 system (copyright 1995, Gaussian, Inc.),
 the Gaussian 92(TM) system (copyright 1992, Gaussian, Inc.),
 the Gaussian 90(TM) system (copyright 1990, Gaussian, Inc.),
 the Gaussian 88(TM) system (copyright 1988, Gaussian, Inc.),
 the Gaussian 86(TM) system (copyright 1986, Carnegie Mellon
 University), and the Gaussian 82(TM) system (copyright 1983,
 Carnegie Mellon University). Gaussian is a federally registered
 trademark of Gaussian, Inc.
  
 This software contains proprietary and confidential information,
 including trade secrets, belonging to Gaussian, Inc.
  
 This software is provided under written license and may be
 used, copied, transmitted, or stored only in accord with that
 written license.
  
 The following legend is applicable only to US Government
 contracts under FAR:
  
                    RESTRICTED RIGHTS LEGEND
  
 Use, reproduction and disclosure by the US Government is
 subject to restrictions as set forth in subparagraphs (a)
 and (c) of the Commercial Computer Software - Restricted
 Rights clause in FAR 52.227-19.
  
 Gaussian, Inc.
 340 Quinnipiac St., Bldg. 40, Wallingford CT 06492
  
  
 ---------------------------------------------------------------
 Warning -- This program may not be used in any manner that
 competes with the business of Gaussian, Inc. or will provide
 assistance to any competitor of Gaussian, Inc.  The licensee
 of this program is prohibited from giving any competitor of
 Gaussian, Inc. access to this program.  By using this program,
 the user acknowledges that Gaussian, Inc. is engaged in the
 business of creating and licensing software in the field of
 computational chemistry and represents and warrants to the
 licensee that it is not a competitor of Gaussian, Inc. and that
 it will not use this program in any manner prohibited above.
 ---------------------------------------------------------------
  

 Cite this work as:
 Gaussian 16, Revision A.03,
 M. J. Frisch, G. W. Trucks, H. B. Schlegel, G. E. Scuseria, 
 M. A. Robb, J. R. Cheeseman, G. Scalmani, V. Barone, 
 G. A. Petersson, H. Nakatsuji, X. Li, M. Caricato, A. V. Marenich, 
 J. Bloino, B. G. Janesko, R. Gomperts, B. Mennucci, H. P. Hratchian, 
 J. V. Ortiz, A. F. Izmaylov, J. L. Sonnenberg, D. Williams-Young, 
 F. Ding, F. Lipparini, F. Egidi, J. Goings, B. Peng, A. Petrone, 
 T. Henderson, D. Ranasinghe, V. G. Zakrzewski, J. Gao, N. Rega, 
 G. Zheng, W. Liang, M. Hada, M. Ehara, K. Toyota, R. Fukuda, 
 J. Hasegawa, M. Ishida, T. Nakajima, Y. Honda, O. Kitao, H. Nakai, 
 T. Vreven, K. Throssell, J. A. Montgomery, Jr., J. E. Peralta, 
 F. Ogliaro, M. J. Bearpark, J. J. Heyd, E. N. Brothers, K. N. Kudin, 
 V. N. Staroverov, T. A. Keith, R. Kobayashi, J. Normand, 
 K. Raghavachari, A. P. Rendell, J. C. Burant, S. S. Iyengar, 
 J. Tomasi, M. Cossi, J. M. Millam, M. Klene, C. Adamo, R. Cammi, 
 J. W. Ochterski, R. L. Martin, K. Morokuma, O. Farkas, 
 J. B. Foresman, and D. J. Fox, Gaussian, Inc., Wallingford CT, 2016.
 
 ******************************************
 Gaussian 16:  ES64L-G16RevA.03 25-Dec-2016
                11-Feb-2020 
 ******************************************
 %chk=checkpoint.chk
 %mem=3GB
 %nprocshared=4
 Will use up to    4 processors via shared memory.
 -------------------------------------------------------------------
 #t pop=none jul-cc-pvdz guess=read ub97d3 empiricaldispersion=gd3bj
 -------------------------------------------------------------------
 ------------------------------
 theory_abbreviation b97d3_d3bj
 ------------------------------
 Symbolic Z-matrix:
 Charge =  0 Multiplicity = 6
 O                    -0.34303  -0.13027  -0.47992 
 C                    -1.20813  -1.10746  -0.32113 
 C                    -2.6222   -0.38088   0.71931 
 C                    -2.8599    0.75265  -0.06064 
 C                    -3.83788   0.73542  -1.18524 
 Fe                    1.4759    0.17216  -0.07533 
 Cl                    1.79306   2.19545  -0.8772 
 C                    -2.09106   1.99214   0.13732 
 Cl                    2.56193  -1.45851  -1.07215 
 Cl                    1.68783   0.11098   2.12571 
 H                    -3.35707  -1.1762    0.59166 
 H                    -2.50465   2.84373  -0.4065 
 H                    -1.93632   2.24153   1.19002 
 H                    -1.08411   1.77232  -0.27094 
 H                    -4.65087   1.43147  -0.93185 
 H                    -3.38568   1.12255  -2.10712 
 H                    -4.27213  -0.2485   -1.36746 
 C                    -2.09724  -0.20973   2.13767 
 H                    -2.75622   0.46139   2.69993 
 H                    -2.07885  -1.16658   2.66144 
 H                    -1.08704   0.2058    2.15829 
 C                    -0.75423  -2.25935   0.57373 
 H                    -1.56923  -2.95013   0.80531 
 H                     0.00986  -2.79924   0.00115 
 H                    -0.28628  -1.90636   1.49178 
 C                    -1.80376  -1.60117  -1.63452 
 H                    -1.02384  -2.19391  -2.12554 
 H                    -2.6786   -2.24102  -1.48733 
 H                    -2.04973  -0.77524  -2.30209 
 
                    Distance matrix (angstroms):
                    1          2          3          4          5
     1  O    0.000000
     2  C    1.314732   0.000000
     3  C    2.587579   1.900001   0.000000
     4  C    2.700002   2.501247   1.396328   0.000000
     5  C    3.668904   3.325426   2.520181   1.490453   0.000000
     6  Fe   1.887764   2.983596   4.210898   4.374514   5.457598
     7  Cl   3.182718   4.497289   5.355450   4.939488   5.825296
     8  C    2.818018   3.255347   2.500414   1.471955   2.525849
     9  Cl   3.248649   3.860129   5.589787   5.942107   6.766357
    10  Cl   3.312385   3.982238   4.560288   5.086626   6.471920
    11  H    3.365522   2.335782   1.090351   2.095983   2.653833
    12  H    3.677318   4.159345   3.417510   2.149049   2.613217
    13  H    3.309488   3.745606   2.751188   2.152653   3.395019
    14  H    2.052494   2.882890   2.825349   2.058495   3.081293
    15  H    4.604425   4.321061   3.182209   2.104125   1.099837
    16  H    3.670839   3.592274   3.291188   2.145073   1.097369
    17  H    4.029837   3.349737   2.663538   2.168984   1.090820
    18  C    3.152037   2.764437   1.522042   2.518014   3.868440
    19  H    4.035467   3.739606   2.156439   2.777825   4.042223
    20  H    3.735665   3.107633   2.164357   3.421003   4.637754
    21  H    2.761643   2.808353   2.184395   2.892366   4.361975
    22  C    2.410863   1.527628   2.653130   3.729401   4.644509
    23  H    3.332719   2.189680   2.777980   4.015761   4.763649
    24  H    2.734839   2.109377   3.645806   4.566759   5.357835
    25  H    2.654305   2.185107   2.894871   4.012965   5.172935
    26  C    2.372842   1.524308   2.774788   3.022090   3.130359
    27  H    2.725832   2.114289   3.732955   4.039451   4.169405
    28  H    3.305307   2.192550   2.886619   3.321209   3.208488
    29  H    2.578584   2.177809   3.100332   2.831061   2.593626
                    6          7          8          9         10
     6  Fe   0.000000
     7  Cl   2.199392   0.000000
     8  C    4.010079   4.019573   0.000000
     9  Cl   2.198224   3.739063   5.917776   0.000000
    10  Cl   2.212057   3.656982   4.666093   3.667921   0.000000
    11  H    5.061675   6.328467   3.442036   6.154881   5.427818
    12  H    4.805387   4.371747   1.091787   6.680012   5.608642
    13  H    4.186481   4.264249   1.092845   6.248353   4.306878
    14  H    3.025298   2.970641   1.108576   4.936982   4.023381
    15  H    6.313219   6.489289   2.830215   7.771488   7.160407
    16  H    5.354098   5.429843   2.733086   6.565596   6.684355
    17  H    5.906475   6.557431   3.470156   6.946633   6.917562
    18  C    4.220246   5.478026   2.974838   5.793980   3.798654
    19  H    5.069172   6.041422   3.058198   6.796858   4.494679
    20  H    4.681702   6.230326   4.043375   5.963366   4.013362
    21  H    3.399827   4.633350   2.878092   5.149819   2.776682
    22  C    3.362586   5.332840   4.478027   3.787771   3.740426
    23  H    4.449380   6.372823   5.014438   4.776635   4.660718
    24  H    3.314253   5.375705   5.233518   3.076128   3.974756
    25  H    3.143459   5.173066   4.504451   3.858320   2.892865
    26  C    4.041276   5.284411   4.016700   4.404067   5.409434
    27  H    4.006283   5.362813   4.876733   3.808955   5.544254
    28  H    5.007699   6.328535   4.572136   5.314868   6.136100
    29  H    4.276221   5.061852   3.689284   4.821512   5.861749
                   11         12         13         14         15
    11  H    0.000000
    12  H    4.228800   0.000000
    13  H    3.749323   1.798477   0.000000
    14  H    3.821548   1.784441   1.755226   0.000000
    15  H    3.285563   2.622347   3.539394   3.643453   0.000000
    16  H    3.545208   2.575030   3.771458   3.015128   1.754246
    17  H    2.352898   3.689085   4.265797   3.930601   1.776374
    18  C    2.216160   3.995292   2.632982   3.279686   4.317000
    19  H    2.736326   3.922840   2.474053   3.652469   4.209576
    20  H    2.432682   5.067164   3.714917   4.269137   5.126102
    21  H    3.085012   3.942900   2.408948   2.890532   4.873617
    22  C    2.819275   5.483266   4.694148   4.132392   5.574285
    23  H    2.527624   5.992688   5.218819   4.867774   5.631400
    24  H    3.784074   6.191284   5.532659   4.708497   6.363312
    25  H    3.282241   5.575657   4.474219   4.156489   6.005387
    26  C    2.747597   4.664378   4.770948   3.709140   4.218610
    27  H    3.723294   5.525007   5.612366   4.378832   5.265318
    28  H    2.432368   5.201267   5.273754   4.486533   4.205425
    29  H    3.200581   4.110610   4.616118   3.398242   3.676003
                   16         17         18         19         20
    16  H    0.000000
    17  H    1.792397   0.000000
    18  C    4.631766   4.125239   0.000000
    19  H    4.892957   4.398361   1.095809   0.000000
    20  H    5.448590   4.678190   1.090984   1.763693   0.000000
    21  H    4.931323   4.773069   1.092517   1.773377   1.766428
    22  C    5.054575   4.493035   2.906971   3.991374   2.703196
    23  H    5.326210   4.396073   3.092531   4.078845   2.624113
    24  H    5.599547   5.168639   3.963596   5.056310   3.755717
    25  H    5.633174   5.177913   2.564229   3.628558   2.264654
    26  C    3.185042   2.827351   4.031330   4.893747   4.326643
    27  H    4.071553   3.861439   4.823283   5.773808   5.008356
    28  H    3.492526   2.554185   4.195802   4.984195   4.327410
    29  H    2.329028   2.467803   4.475875   5.200817   4.979019
                   21         22         23         24         25
    21  H    0.000000
    22  C    2.949327   0.000000
    23  H    3.467410   1.093170   0.000000
    24  H    3.858323   1.096891   1.778474   0.000000
    25  H    2.355131   1.089218   1.790710   1.762643   0.000000
    26  C    4.261954   2.532011   2.797765   2.720294   3.488501
    27  H    4.910579   2.713491   3.075584   2.440854   3.702929
    28  H    4.670181   2.819843   2.643818   3.123302   3.835403
    29  H    4.667354   3.485863   3.823218   3.693698   4.333894
                   26         27         28         29
    26  C    0.000000
    27  H    1.095770   0.000000
    28  H    1.093812   1.774193   0.000000
    29  H    1.090100   1.759618   1.791044   0.000000
 Framework group  C1[X(C8H16Cl3FeO)]
 Deg. of freedom    81
                         Standard orientation:                         
 ---------------------------------------------------------------------
 Center     Atomic      Atomic             Coordinates (Angstroms)
 Number     Number       Type             X           Y           Z
 ---------------------------------------------------------------------
      1          8           0       -0.343028   -0.130269   -0.479922
      2          6           0       -1.208130   -1.107461   -0.321130
      3          6           0       -2.622195   -0.380884    0.719308
      4          6           0       -2.859904    0.752653   -0.060641
      5          6           0       -3.837877    0.735418   -1.185239
      6         26           0        1.475898    0.172156   -0.075325
      7         17           0        1.793063    2.195453   -0.877198
      8          6           0       -2.091056    1.992143    0.137324
      9         17           0        2.561927   -1.458508   -1.072152
     10         17           0        1.687833    0.110984    2.125706
     11          1           0       -3.357074   -1.176198    0.591664
     12          1           0       -2.504652    2.843728   -0.406495
     13          1           0       -1.936319    2.241527    1.190023
     14          1           0       -1.084108    1.772323   -0.270936
     15          1           0       -4.650865    1.431469   -0.931852
     16          1           0       -3.385679    1.122552   -2.107119
     17          1           0       -4.272134   -0.248504   -1.367463
     18          6           0       -2.097239   -0.209732    2.137666
     19          1           0       -2.756222    0.461389    2.699925
     20          1           0       -2.078847   -1.166584    2.661443
     21          1           0       -1.087038    0.205795    2.158294
     22          6           0       -0.754234   -2.259349    0.573733
     23          1           0       -1.569226   -2.950131    0.805314
     24          1           0        0.009863   -2.799235    0.001152
     25          1           0       -0.286283   -1.906359    1.491783
     26          6           0       -1.803757   -1.601171   -1.634520
     27          1           0       -1.023837   -2.193908   -2.125538
     28          1           0       -2.678599   -2.241024   -1.487334
     29          1           0       -2.049729   -0.775235   -2.302087
 ---------------------------------------------------------------------
 Rotational constants (GHZ):           0.5899999           0.3209449           0.3052791
   427 basis functions,  1056 primitive gaussians,   461 cartesian basis functions
    77 alpha electrons       72 beta electrons
       nuclear repulsion energy      1637.4651310264 Hartrees.
 NAtoms=   29 NActive=   29 NUniq=   29 SFac= 1.00D+00 NAtFMM=   60 NAOKFM=F Big=F
 Nuclear repulsion after empirical dispersion term =     1637.3653126805 Hartrees.
 Initial guess from the checkpoint file:  "checkpoint.chk"
 B after Tr=     0.000000    0.000000    0.000000
         Rot=    1.000000    0.000000    0.000000    0.000000 Ang=   0.00 deg.
 Initial guess <Sx>= 0.0000 <Sy>= 0.0000 <Sz>= 2.5000 <S**2>= 8.7618 S= 2.5020
 EnCoef did     4 forward-backward iterations
 SCF Done:  E(UB97D3) =  -3034.61278960     A.U. after   16 cycles
            NFock= 16  Conv=0.55D-08     -V/T= 2.0019
 <Sx>= 0.0000 <Sy>= 0.0000 <Sz>= 2.5000 <S**2>= 8.7600 S= 2.5017
 <L.S>= 0.000000000000E+00
 Annihilation of the first spin contaminant:
 S**2 before annihilation     8.7600,   after     8.7500
 1\1\GINC-HOLY7C06107\SP\UB97D3\Jul-CC-pVDZ\C8H16Cl3Fe1O1(6)\EKWAN\12-F
 eb-2020\0\\#t pop=none jul-cc-pvdz guess=read ub97d3 empiricaldispersi
 on=gd3bj\\theory_abbreviation b97d3_d3bj\\0,6\O,0,-0.343028,-0.130269,
 -0.479922\C,0,-1.20813,-1.107461,-0.32113\C,0,-2.622195,-0.380884,0.71
 9308\C,0,-2.859904,0.752653,-0.060641\C,0,-3.837877,0.735418,-1.185239
 \Fe,0,1.475898,0.172156,-0.075325\Cl,0,1.793063,2.195453,-0.877198\C,0
 ,-2.091056,1.992143,0.137324\Cl,0,2.561927,-1.458508,-1.072152\Cl,0,1.
 687833,0.110984,2.125706\H,0,-3.357074,-1.176198,0.591664\H,0,-2.50465
 2,2.843728,-0.406495\H,0,-1.936319,2.241527,1.190023\H,0,-1.084108,1.7
 72323,-0.270936\H,0,-4.650865,1.431469,-0.931852\H,0,-3.385679,1.12255
 2,-2.107119\H,0,-4.272134,-0.248504,-1.367463\C,0,-2.097239,-0.209732,
 2.137666\H,0,-2.756222,0.461389,2.699925\H,0,-2.078847,-1.166584,2.661
 443\H,0,-1.087038,0.205795,2.158294\C,0,-0.754234,-2.259349,0.573733\H
 ,0,-1.569226,-2.950131,0.805314\H,0,0.009863,-2.799235,0.001152\H,0,-0
 .286283,-1.906359,1.491783\C,0,-1.803757,-1.601171,-1.63452\H,0,-1.023
 837,-2.193908,-2.125538\H,0,-2.678599,-2.241024,-1.487334\H,0,-2.04972
 9,-0.775235,-2.302087\\Version=ES64L-G16RevA.03\HF=-3034.6127896\S2=8.
 760001\S2-1=0.\S2A=8.750032\RMSD=5.453e-09\PG=C01 [X(C8H16Cl3Fe1O1)]\\
 @


 "A LITTLE BIT GOES A LONG WAY"
 R.S. MULLIKEN AS QUOTED BY K. RUEDENBERG
 Job cpu time:       0 days  0 hours 53 minutes  6.6 seconds.
 Elapsed time:       0 days  0 hours 13 minutes 34.4 seconds.
 File lengths (MBytes):  RWF=    174 Int=      0 D2E=      0 Chk=     13 Scr=      1
 Normal termination of Gaussian 16 at Wed Feb 12 00:01:16 2020.
