 Entering Gaussian System, Link 0=g16
 Input=simple-grid-235-275-b3lyp_d3bj-631gd-gas-singlepoint-DFT-juldz2-gas.gjf
 Output=simple-grid-235-275-b3lyp_d3bj-631gd-gas-singlepoint-DFT-juldz2-gas.out
 Initial command:
 /n/sw/g16_nehalem/g16/l1.exe "/scratch/Gau-411192.inp" -scrdir="/scratch/"
 Entering Link 1 = /n/sw/g16_nehalem/g16/l1.exe PID=    411202.
  
 Copyright (c) 1988,1990,1992,1993,1995,1998,2003,2009,2016,
            Gaussian, Inc.  All Rights Reserved.
  
 This is part of the Gaussian(R) 16 program.  It is based on
 the Gaussian(R) 09 system (copyright 2009, Gaussian, Inc.),
 the Gaussian(R) 03 system (copyright 2003, Gaussian, Inc.),
 the Gaussian(R) 98 system (copyright 1998, Gaussian, Inc.),
 the Gaussian(R) 94 system (copyright 1995, Gaussian, Inc.),
 the Gaussian 92(TM) system (copyright 1992, Gaussian, Inc.),
 the Gaussian 90(TM) system (copyright 1990, Gaussian, Inc.),
 the Gaussian 88(TM) system (copyright 1988, Gaussian, Inc.),
 the Gaussian 86(TM) system (copyright 1986, Carnegie Mellon
 University), and the Gaussian 82(TM) system (copyright 1983,
 Carnegie Mellon University). Gaussian is a federally registered
 trademark of Gaussian, Inc.
  
 This software contains proprietary and confidential information,
 including trade secrets, belonging to Gaussian, Inc.
  
 This software is provided under written license and may be
 used, copied, transmitted, or stored only in accord with that
 written license.
  
 The following legend is applicable only to US Government
 contracts under FAR:
  
                    RESTRICTED RIGHTS LEGEND
  
 Use, reproduction and disclosure by the US Government is
 subject to restrictions as set forth in subparagraphs (a)
 and (c) of the Commercial Computer Software - Restricted
 Rights clause in FAR 52.227-19.
  
 Gaussian, Inc.
 340 Quinnipiac St., Bldg. 40, Wallingford CT 06492
  
  
 ---------------------------------------------------------------
 Warning -- This program may not be used in any manner that
 competes with the business of Gaussian, Inc. or will provide
 assistance to any competitor of Gaussian, Inc.  The licensee
 of this program is prohibited from giving any competitor of
 Gaussian, Inc. access to this program.  By using this program,
 the user acknowledges that Gaussian, Inc. is engaged in the
 business of creating and licensing software in the field of
 computational chemistry and represents and warrants to the
 licensee that it is not a competitor of Gaussian, Inc. and that
 it will not use this program in any manner prohibited above.
 ---------------------------------------------------------------
  

 Cite this work as:
 Gaussian 16, Revision A.03,
 M. J. Frisch, G. W. Trucks, H. B. Schlegel, G. E. Scuseria, 
 M. A. Robb, J. R. Cheeseman, G. Scalmani, V. Barone, 
 G. A. Petersson, H. Nakatsuji, X. Li, M. Caricato, A. V. Marenich, 
 J. Bloino, B. G. Janesko, R. Gomperts, B. Mennucci, H. P. Hratchian, 
 J. V. Ortiz, A. F. Izmaylov, J. L. Sonnenberg, D. Williams-Young, 
 F. Ding, F. Lipparini, F. Egidi, J. Goings, B. Peng, A. Petrone, 
 T. Henderson, D. Ranasinghe, V. G. Zakrzewski, J. Gao, N. Rega, 
 G. Zheng, W. Liang, M. Hada, M. Ehara, K. Toyota, R. Fukuda, 
 J. Hasegawa, M. Ishida, T. Nakajima, Y. Honda, O. Kitao, H. Nakai, 
 T. Vreven, K. Throssell, J. A. Montgomery, Jr., J. E. Peralta, 
 F. Ogliaro, M. J. Bearpark, J. J. Heyd, E. N. Brothers, K. N. Kudin, 
 V. N. Staroverov, T. A. Keith, R. Kobayashi, J. Normand, 
 K. Raghavachari, A. P. Rendell, J. C. Burant, S. S. Iyengar, 
 J. Tomasi, M. Cossi, J. M. Millam, M. Klene, C. Adamo, R. Cammi, 
 J. W. Ochterski, R. L. Martin, K. Morokuma, O. Farkas, 
 J. B. Foresman, and D. J. Fox, Gaussian, Inc., Wallingford CT, 2016.
 
 ******************************************
 Gaussian 16:  ES64L-G16RevA.03 25-Dec-2016
                11-Feb-2020 
 ******************************************
 %chk=checkpoint.chk
 %mem=3GB
 %nprocshared=4
 Will use up to    4 processors via shared memory.
 --------------------------------
 #t pop=none jul-cc-pvdz upbe1pbe
 --------------------------------
 ------------------------
 theory_abbreviation pbe0
 ------------------------
 Symbolic Z-matrix:
 Charge =  0 Multiplicity = 6
 O                    -0.25322  -0.27386  -0.8179 
 C                    -1.10716  -1.19819  -0.64358 
 C                    -2.89316  -0.22825   0.53623 
 C                    -2.61595   0.93825  -0.10324 
 C                    -3.18851   1.25818  -1.45236 
 Fe                    1.45882   0.14491  -0.00719 
 Cl                    2.03609   2.03921  -0.92331 
 C                    -1.70568   1.98658   0.45111 
 Cl                    2.67473  -1.59314  -0.55316 
 Cl                    1.14931   0.28925   2.16962 
 H                    -3.62971  -0.88126   0.07055 
 H                    -2.24474   2.93926   0.53514 
 H                    -1.28618   1.73772   1.42478 
 H                    -0.87625   2.16405  -0.24646 
 H                    -3.73937   2.20599  -1.39946 
 H                    -2.3861    1.40973  -2.18676 
 H                    -3.87349   0.48877  -1.81638 
 C                    -2.6466   -0.47869   2.0053 
 H                    -3.40432   0.05066   2.59752 
 H                    -2.73668  -1.53957   2.25064 
 H                    -1.66647  -0.13501   2.34294 
 C                    -0.85586  -2.2472    0.40459 
 H                    -1.7311   -2.87137   0.58897 
 H                    -0.05743  -2.88046  -0.00923 
 H                    -0.48138  -1.82255   1.3353 
 C                    -1.8755   -1.63662  -1.86396 
 H                    -1.21032  -2.33353  -2.39307 
 H                    -2.79452  -2.1704   -1.61773 
 H                    -2.07731  -0.80371  -2.53464 
 
                    Distance matrix (angstroms):
                    1          2          3          4          5
     1  O    0.000000
     2  C    1.270426   0.000000
     3  C    2.967323   2.350001   0.000000
     4  C    2.749989   2.670724   1.358856   0.000000
     5  C    3.371297   3.319622   2.500239   1.500101   0.000000
     6  Fe   1.940024   2.965329   4.401621   4.152392   4.992552
     7  Cl   3.256125   4.520954   5.618636   4.850367   5.309081
     8  C    2.971464   3.420421   2.514515   1.494954   2.520432
     9  Cl   3.222334   3.803532   5.835327   5.882313   6.581500
    10  Cl   3.348048   3.901052   4.390590   4.445702   5.733607
    11  H    3.543860   2.640768   1.088941   2.090105   2.662916
    12  H    4.015102   4.449940   3.233198   2.132929   2.768922
    13  H    3.184817   3.595786   2.690148   2.177677   3.482349
    14  H    2.580335   3.393475   3.225463   2.132990   2.760678
    15  H    4.317538   4.369015   3.223115   2.132934   1.097536
    16  H    3.042606   3.289123   3.217878   2.148524   1.098259
    17  H    3.832093   3.445847   2.647628   2.172157   1.092560
    18  C    3.706839   3.147076   1.510520   2.540591   3.907145
    19  H    4.658307   4.164283   2.141959   2.950167   4.231575
    20  H    4.145539   3.338916   2.164081   3.419785   4.663020
    21  H    3.465171   3.219074   2.185782   2.834993   4.319938
    22  C    2.398270   1.504072   2.871255   3.674633   4.601874
    23  H    3.303095   2.169793   2.887774   3.971814   4.831587
    24  H    2.736167   2.081914   3.920852   4.597541   5.386522
    25  H    2.662090   2.167342   2.999500   3.774630   4.958883
    26  C    2.362865   1.507282   2.963117   3.205985   3.205193
    27  H    2.763949   2.088146   3.980569   4.233629   4.206962
    28  H    3.270289   2.177462   2.901931   3.462549   3.455100
    29  H    2.560326   2.161697   3.229092   3.039125   2.580215
                    6          7          8          9         10
     6  Fe   0.000000
     7  Cl   2.181944   0.000000
     8  C    3.689961   3.986554   0.000000
     9  Cl   2.190279   3.706591   5.745506   0.000000
    10  Cl   2.203440   3.662646   3.739668   3.644698   0.000000
    11  H    5.191551   6.451213   3.474364   6.375084   5.349315
    12  H    4.671068   4.611144   1.097845   6.777035   4.605826
    13  H    3.481754   4.079449   1.089006   5.540364   2.929923
    14  H    3.096245   2.992561   1.098207   5.178800   3.668137
    15  H    5.762607   5.797452   2.758382   7.502682   6.349125
    16  H    4.597138   4.642012   2.784616   6.107194   5.721242
    17  H    5.641358   6.174506   3.476253   6.986359   6.415331
    18  C    4.614487   6.069937   3.062408   6.008682   3.876294
    19  H    5.517569   6.778545   3.352648   7.041569   4.579909
    20  H    5.053465   6.757288   4.090836   6.094877   4.295584
    21  H    3.920319   5.394860   2.842821   5.418443   2.852828
    22  C    3.354028   5.338538   4.318475   3.716196   3.683695
    23  H    4.430458   6.371224   4.859964   4.727545   4.559025
    24  H    3.384064   5.424160   5.159130   3.068838   4.031207
    25  H    3.072061   5.133435   4.097577   3.685092   2.795521
    26  C    4.211781   5.449496   4.303013   4.735465   5.397053
    27  H    4.354234   5.640936   5.195961   4.361997   5.767573
    28  H    5.103469   6.444983   4.769287   5.601716   5.995635
    29  H    4.448833   5.253441   4.103482   5.208774   5.808246
                   11         12         13         14         15
    11  H    0.000000
    12  H    4.090280   0.000000
    13  H    3.766309   1.775950   0.000000
    14  H    4.117760   1.756309   1.772812   0.000000
    15  H    3.421120   2.552314   3.770111   3.086845   0.000000
    16  H    3.448282   3.125412   3.789538   2.571649   1.756477
    17  H    2.344552   3.766615   4.331180   3.775530   1.772184
    18  C    2.207218   3.742357   2.664617   3.897260   4.471464
    19  H    2.702745   3.733912   2.950934   4.352681   4.553411
    20  H    2.446150   4.821292   3.677849   4.838751   5.325203
    21  H    3.094339   3.612982   2.120074   3.551774   4.876750
    22  C    3.109924   5.370797   4.135885   4.459085   5.603583
    23  H    2.798926   5.833537   4.705335   5.175342   5.810898
    24  H    4.094424   6.240977   4.989361   5.116035   6.431279
    25  H    3.521022   5.140485   3.651196   4.307076   5.858545
    26  C    2.718486   5.179838   4.748603   4.249689   4.295974
    27  H    3.745923   6.119375   5.581821   4.994768   5.290610
    28  H    2.282474   5.571871   5.177382   4.934326   4.482537
    29  H    3.033644   4.843707   4.770931   3.935217   3.620690
                   16         17         18         19         20
    16  H    0.000000
    17  H    1.788204   0.000000
    18  C    4.605140   4.128733   0.000000
    19  H    5.076729   4.460331   1.097756   0.000000
    20  H    5.339641   4.684776   1.092599   1.759225   0.000000
    21  H    4.839649   4.749729   1.092142   1.766187   1.768238
    22  C    4.736018   4.639435   2.982732   4.072318   2.728765
    23  H    5.144073   4.654682   2.927293   3.920732   2.355000
    24  H    5.345096   5.401834   4.065785   5.156376   3.752780
    25  H    5.145919   5.175104   2.634972   3.694012   2.450374
    26  C    3.105662   2.917451   4.111762   5.008893   4.204880
    27  H    3.928994   3.923064   4.984873   5.950120   4.952189
    28  H    3.648004   2.876600   4.001258   4.803459   3.919891
    29  H    2.261793   2.326519   4.587026   5.369358   4.886225
                   21         22         23         24         25
    21  H    0.000000
    22  C    2.979205   0.000000
    23  H    3.250884   1.090704   0.000000
    24  H    3.957167   1.099880   1.777384   0.000000
    25  H    2.295125   1.089394   1.794108   1.762563   0.000000
    26  C    4.471747   2.561016   2.749972   2.879679   3.494767
    27  H    5.241306   2.821342   3.074580   2.703883   3.833163
    28  H    4.593709   2.802511   2.547886   3.253170   3.767222
    29  H    4.940318   3.494952   3.761917   3.843242   4.308302
                   26         27         28         29
    26  C    0.000000
    27  H    1.099135   0.000000
    28  H    1.090947   1.771290   0.000000
    29  H    1.088240   1.764099   1.795261   0.000000
 Framework group  C1[X(C8H16Cl3FeO)]
 Deg. of freedom    81
                         Standard orientation:                         
 ---------------------------------------------------------------------
 Center     Atomic      Atomic             Coordinates (Angstroms)
 Number     Number       Type             X           Y           Z
 ---------------------------------------------------------------------
      1          8           0       -0.253218   -0.273864   -0.817895
      2          6           0       -1.107162   -1.198188   -0.643576
      3          6           0       -2.893156   -0.228246    0.536230
      4          6           0       -2.615947    0.938252   -0.103244
      5          6           0       -3.188510    1.258180   -1.452362
      6         26           0        1.458822    0.144911   -0.007192
      7         17           0        2.036089    2.039210   -0.923311
      8          6           0       -1.705675    1.986575    0.451113
      9         17           0        2.674729   -1.593137   -0.553160
     10         17           0        1.149308    0.289249    2.169621
     11          1           0       -3.629707   -0.881260    0.070551
     12          1           0       -2.244736    2.939264    0.535143
     13          1           0       -1.286181    1.737716    1.424780
     14          1           0       -0.876249    2.164051   -0.246464
     15          1           0       -3.739369    2.205989   -1.399459
     16          1           0       -2.386097    1.409731   -2.186758
     17          1           0       -3.873488    0.488774   -1.816378
     18          6           0       -2.646601   -0.478686    2.005298
     19          1           0       -3.404322    0.050655    2.597519
     20          1           0       -2.736681   -1.539566    2.250640
     21          1           0       -1.666469   -0.135005    2.342936
     22          6           0       -0.855856   -2.247202    0.404588
     23          1           0       -1.731102   -2.871367    0.588971
     24          1           0       -0.057432   -2.880458   -0.009225
     25          1           0       -0.481377   -1.822553    1.335296
     26          6           0       -1.875495   -1.636615   -1.863963
     27          1           0       -1.210317   -2.333526   -2.393067
     28          1           0       -2.794521   -2.170398   -1.617725
     29          1           0       -2.077308   -0.803713   -2.534644
 ---------------------------------------------------------------------
 Rotational constants (GHZ):           0.5754276           0.3304734           0.3108768
   427 basis functions,  1056 primitive gaussians,   461 cartesian basis functions
    77 alpha electrons       72 beta electrons
       nuclear repulsion energy      1635.4479493464 Hartrees.
 NAtoms=   29 NActive=   29 NUniq=   29 SFac= 1.00D+00 NAtFMM=   60 NAOKFM=F Big=F
 ExpMin= 1.40D-02 ExpMax= 4.32D+06 ExpMxC= 4.91D+03 IAcc=3 IRadAn=         5 AccDes= 0.00D+00
 Harris functional with IExCor= 1009 and IRadAn=       5 diagonalized for initial guess.
 HarFok:  IExCor= 1009 AccDes= 0.00D+00 IRadAn=         5 IDoV= 1 UseB2=F ITyADJ=14
 ICtDFT=  3500011 ScaDFX=  1.000000  1.000000  1.000000  1.000000
 FoFCou: FMM=F IPFlag=           0 FMFlag=      100000 FMFlg1=           0
         NFxFlg=           0 DoJE=T BraDBF=F KetDBF=T FulRan=T
         wScrn=  0.000000 ICntrl=       500 IOpCl=  0 I1Cent=   200000004 NGrid=           0
         NMat0=    1 NMatS0=      1 NMatT0=    0 NMatD0=    1 NMtDS0=    0 NMtDT0=    0
 Petite list used in FoFCou.
 Initial guess <Sx>= 0.0000 <Sy>= 0.0000 <Sz>= 2.5000 <S**2>= 8.7500 S= 2.5000
 EnCoef did   100 forward-backward iterations
 Restarting incremental Fock formation.
 SCF Done:  E(UPBE1PBE) =  -3033.12518757     A.U. after   21 cycles
            NFock= 21  Conv=0.42D-08     -V/T= 2.0021
 <Sx>= 0.0000 <Sy>= 0.0000 <Sz>= 2.5000 <S**2>= 8.7626 S= 2.5021
 <L.S>= 0.000000000000E+00
 Annihilation of the first spin contaminant:
 S**2 before annihilation     8.7626,   after     8.7500
 1\1\GINC-HOLY7C04207\SP\UPBE1PBE\Jul-CC-pVDZ\C8H16Cl3Fe1O1(6)\EKWAN\11
 -Feb-2020\0\\#t pop=none jul-cc-pvdz upbe1pbe\\theory_abbreviation pbe
 0\\0,6\O,0,-0.253218,-0.273864,-0.817895\C,0,-1.107162,-1.198188,-0.64
 3576\C,0,-2.893156,-0.228246,0.53623\C,0,-2.615947,0.938252,-0.103244\
 C,0,-3.18851,1.25818,-1.452362\Fe,0,1.458822,0.144911,-0.007192\Cl,0,2
 .036089,2.03921,-0.923311\C,0,-1.705675,1.986575,0.451113\Cl,0,2.67472
 9,-1.593137,-0.55316\Cl,0,1.149308,0.289249,2.169621\H,0,-3.629707,-0.
 88126,0.070551\H,0,-2.244736,2.939264,0.535143\H,0,-1.286181,1.737716,
 1.42478\H,0,-0.876249,2.164051,-0.246464\H,0,-3.739369,2.205989,-1.399
 459\H,0,-2.386097,1.409731,-2.186758\H,0,-3.873488,0.488774,-1.816378\
 C,0,-2.646601,-0.478686,2.005298\H,0,-3.404322,0.050655,2.597519\H,0,-
 2.736681,-1.539566,2.25064\H,0,-1.666469,-0.135005,2.342936\C,0,-0.855
 856,-2.247202,0.404588\H,0,-1.731102,-2.871367,0.588971\H,0,-0.057432,
 -2.880458,-0.009225\H,0,-0.481377,-1.822553,1.335296\C,0,-1.875495,-1.
 636615,-1.863963\H,0,-1.210317,-2.333526,-2.393067\H,0,-2.794521,-2.17
 0398,-1.617725\H,0,-2.077308,-0.803713,-2.534644\\Version=ES64L-G16Rev
 A.03\HF=-3033.1251876\S2=8.762622\S2-1=0.\S2A=8.750049\RMSD=4.235e-09\
 PG=C01 [X(C8H16Cl3Fe1O1)]\\@


 YOU CANNOT THROW TO THE GROUND THE LETTERS OF
 THE GREEK ALPHABET AND PICK UP THE ILIAD.
        - RUFUS CHOATE, 1799-1859
 Job cpu time:       0 days  1 hours 30 minutes 30.4 seconds.
 Elapsed time:       0 days  0 hours 22 minutes 43.3 seconds.
 File lengths (MBytes):  RWF=    173 Int=      0 D2E=      0 Chk=     13 Scr=      1
 Normal termination of Gaussian 16 at Tue Feb 11 13:59:50 2020.
 Initial command:
 /n/sw/g16_nehalem/g16/l1.exe "/scratch/Gau-411192.inp" -scrdir="/scratch/"
 Entering Link 1 = /n/sw/g16_nehalem/g16/l1.exe PID=    413015.
  
 Copyright (c) 1988,1990,1992,1993,1995,1998,2003,2009,2016,
            Gaussian, Inc.  All Rights Reserved.
  
 This is part of the Gaussian(R) 16 program.  It is based on
 the Gaussian(R) 09 system (copyright 2009, Gaussian, Inc.),
 the Gaussian(R) 03 system (copyright 2003, Gaussian, Inc.),
 the Gaussian(R) 98 system (copyright 1998, Gaussian, Inc.),
 the Gaussian(R) 94 system (copyright 1995, Gaussian, Inc.),
 the Gaussian 92(TM) system (copyright 1992, Gaussian, Inc.),
 the Gaussian 90(TM) system (copyright 1990, Gaussian, Inc.),
 the Gaussian 88(TM) system (copyright 1988, Gaussian, Inc.),
 the Gaussian 86(TM) system (copyright 1986, Carnegie Mellon
 University), and the Gaussian 82(TM) system (copyright 1983,
 Carnegie Mellon University). Gaussian is a federally registered
 trademark of Gaussian, Inc.
  
 This software contains proprietary and confidential information,
 including trade secrets, belonging to Gaussian, Inc.
  
 This software is provided under written license and may be
 used, copied, transmitted, or stored only in accord with that
 written license.
  
 The following legend is applicable only to US Government
 contracts under FAR:
  
                    RESTRICTED RIGHTS LEGEND
  
 Use, reproduction and disclosure by the US Government is
 subject to restrictions as set forth in subparagraphs (a)
 and (c) of the Commercial Computer Software - Restricted
 Rights clause in FAR 52.227-19.
  
 Gaussian, Inc.
 340 Quinnipiac St., Bldg. 40, Wallingford CT 06492
  
  
 ---------------------------------------------------------------
 Warning -- This program may not be used in any manner that
 competes with the business of Gaussian, Inc. or will provide
 assistance to any competitor of Gaussian, Inc.  The licensee
 of this program is prohibited from giving any competitor of
 Gaussian, Inc. access to this program.  By using this program,
 the user acknowledges that Gaussian, Inc. is engaged in the
 business of creating and licensing software in the field of
 computational chemistry and represents and warrants to the
 licensee that it is not a competitor of Gaussian, Inc. and that
 it will not use this program in any manner prohibited above.
 ---------------------------------------------------------------
  

 Cite this work as:
 Gaussian 16, Revision A.03,
 M. J. Frisch, G. W. Trucks, H. B. Schlegel, G. E. Scuseria, 
 M. A. Robb, J. R. Cheeseman, G. Scalmani, V. Barone, 
 G. A. Petersson, H. Nakatsuji, X. Li, M. Caricato, A. V. Marenich, 
 J. Bloino, B. G. Janesko, R. Gomperts, B. Mennucci, H. P. Hratchian, 
 J. V. Ortiz, A. F. Izmaylov, J. L. Sonnenberg, D. Williams-Young, 
 F. Ding, F. Lipparini, F. Egidi, J. Goings, B. Peng, A. Petrone, 
 T. Henderson, D. Ranasinghe, V. G. Zakrzewski, J. Gao, N. Rega, 
 G. Zheng, W. Liang, M. Hada, M. Ehara, K. Toyota, R. Fukuda, 
 J. Hasegawa, M. Ishida, T. Nakajima, Y. Honda, O. Kitao, H. Nakai, 
 T. Vreven, K. Throssell, J. A. Montgomery, Jr., J. E. Peralta, 
 F. Ogliaro, M. J. Bearpark, J. J. Heyd, E. N. Brothers, K. N. Kudin, 
 V. N. Staroverov, T. A. Keith, R. Kobayashi, J. Normand, 
 K. Raghavachari, A. P. Rendell, J. C. Burant, S. S. Iyengar, 
 J. Tomasi, M. Cossi, J. M. Millam, M. Klene, C. Adamo, R. Cammi, 
 J. W. Ochterski, R. L. Martin, K. Morokuma, O. Farkas, 
 J. B. Foresman, and D. J. Fox, Gaussian, Inc., Wallingford CT, 2016.
 
 ******************************************
 Gaussian 16:  ES64L-G16RevA.03 25-Dec-2016
                11-Feb-2020 
 ******************************************
 %chk=checkpoint.chk
 %mem=3GB
 %nprocshared=4
 Will use up to    4 processors via shared memory.
 ---------------------------------------------------------------------
 #t pop=none jul-cc-pvdz guess=read upbe1pbe empiricaldispersion=gd3bj
 ---------------------------------------------------------------------
 -----------------------------
 theory_abbreviation pbe0_d3bj
 -----------------------------
 Symbolic Z-matrix:
 Charge =  0 Multiplicity = 6
 O                    -0.25322  -0.27386  -0.8179 
 C                    -1.10716  -1.19819  -0.64358 
 C                    -2.89316  -0.22825   0.53623 
 C                    -2.61595   0.93825  -0.10324 
 C                    -3.18851   1.25818  -1.45236 
 Fe                    1.45882   0.14491  -0.00719 
 Cl                    2.03609   2.03921  -0.92331 
 C                    -1.70568   1.98658   0.45111 
 Cl                    2.67473  -1.59314  -0.55316 
 Cl                    1.14931   0.28925   2.16962 
 H                    -3.62971  -0.88126   0.07055 
 H                    -2.24474   2.93926   0.53514 
 H                    -1.28618   1.73772   1.42478 
 H                    -0.87625   2.16405  -0.24646 
 H                    -3.73937   2.20599  -1.39946 
 H                    -2.3861    1.40973  -2.18676 
 H                    -3.87349   0.48877  -1.81638 
 C                    -2.6466   -0.47869   2.0053 
 H                    -3.40432   0.05066   2.59752 
 H                    -2.73668  -1.53957   2.25064 
 H                    -1.66647  -0.13501   2.34294 
 C                    -0.85586  -2.2472    0.40459 
 H                    -1.7311   -2.87137   0.58897 
 H                    -0.05743  -2.88046  -0.00923 
 H                    -0.48138  -1.82255   1.3353 
 C                    -1.8755   -1.63662  -1.86396 
 H                    -1.21032  -2.33353  -2.39307 
 H                    -2.79452  -2.1704   -1.61773 
 H                    -2.07731  -0.80371  -2.53464 
 
                    Distance matrix (angstroms):
                    1          2          3          4          5
     1  O    0.000000
     2  C    1.270426   0.000000
     3  C    2.967323   2.350001   0.000000
     4  C    2.749989   2.670724   1.358856   0.000000
     5  C    3.371297   3.319622   2.500239   1.500101   0.000000
     6  Fe   1.940024   2.965329   4.401621   4.152392   4.992552
     7  Cl   3.256125   4.520954   5.618636   4.850367   5.309081
     8  C    2.971464   3.420421   2.514515   1.494954   2.520432
     9  Cl   3.222334   3.803532   5.835327   5.882313   6.581500
    10  Cl   3.348048   3.901052   4.390590   4.445702   5.733607
    11  H    3.543860   2.640768   1.088941   2.090105   2.662916
    12  H    4.015102   4.449940   3.233198   2.132929   2.768922
    13  H    3.184817   3.595786   2.690148   2.177677   3.482349
    14  H    2.580335   3.393475   3.225463   2.132990   2.760678
    15  H    4.317538   4.369015   3.223115   2.132934   1.097536
    16  H    3.042606   3.289123   3.217878   2.148524   1.098259
    17  H    3.832093   3.445847   2.647628   2.172157   1.092560
    18  C    3.706839   3.147076   1.510520   2.540591   3.907145
    19  H    4.658307   4.164283   2.141959   2.950167   4.231575
    20  H    4.145539   3.338916   2.164081   3.419785   4.663020
    21  H    3.465171   3.219074   2.185782   2.834993   4.319938
    22  C    2.398270   1.504072   2.871255   3.674633   4.601874
    23  H    3.303095   2.169793   2.887774   3.971814   4.831587
    24  H    2.736167   2.081914   3.920852   4.597541   5.386522
    25  H    2.662090   2.167342   2.999500   3.774630   4.958883
    26  C    2.362865   1.507282   2.963117   3.205985   3.205193
    27  H    2.763949   2.088146   3.980569   4.233629   4.206962
    28  H    3.270289   2.177462   2.901931   3.462549   3.455100
    29  H    2.560326   2.161697   3.229092   3.039125   2.580215
                    6          7          8          9         10
     6  Fe   0.000000
     7  Cl   2.181944   0.000000
     8  C    3.689961   3.986554   0.000000
     9  Cl   2.190279   3.706591   5.745506   0.000000
    10  Cl   2.203440   3.662646   3.739668   3.644698   0.000000
    11  H    5.191551   6.451213   3.474364   6.375084   5.349315
    12  H    4.671068   4.611144   1.097845   6.777035   4.605826
    13  H    3.481754   4.079449   1.089006   5.540364   2.929923
    14  H    3.096245   2.992561   1.098207   5.178800   3.668137
    15  H    5.762607   5.797452   2.758382   7.502682   6.349125
    16  H    4.597138   4.642012   2.784616   6.107194   5.721242
    17  H    5.641358   6.174506   3.476253   6.986359   6.415331
    18  C    4.614487   6.069937   3.062408   6.008682   3.876294
    19  H    5.517569   6.778545   3.352648   7.041569   4.579909
    20  H    5.053465   6.757288   4.090836   6.094877   4.295584
    21  H    3.920319   5.394860   2.842821   5.418443   2.852828
    22  C    3.354028   5.338538   4.318475   3.716196   3.683695
    23  H    4.430458   6.371224   4.859964   4.727545   4.559025
    24  H    3.384064   5.424160   5.159130   3.068838   4.031207
    25  H    3.072061   5.133435   4.097577   3.685092   2.795521
    26  C    4.211781   5.449496   4.303013   4.735465   5.397053
    27  H    4.354234   5.640936   5.195961   4.361997   5.767573
    28  H    5.103469   6.444983   4.769287   5.601716   5.995635
    29  H    4.448833   5.253441   4.103482   5.208774   5.808246
                   11         12         13         14         15
    11  H    0.000000
    12  H    4.090280   0.000000
    13  H    3.766309   1.775950   0.000000
    14  H    4.117760   1.756309   1.772812   0.000000
    15  H    3.421120   2.552314   3.770111   3.086845   0.000000
    16  H    3.448282   3.125412   3.789538   2.571649   1.756477
    17  H    2.344552   3.766615   4.331180   3.775530   1.772184
    18  C    2.207218   3.742357   2.664617   3.897260   4.471464
    19  H    2.702745   3.733912   2.950934   4.352681   4.553411
    20  H    2.446150   4.821292   3.677849   4.838751   5.325203
    21  H    3.094339   3.612982   2.120074   3.551774   4.876750
    22  C    3.109924   5.370797   4.135885   4.459085   5.603583
    23  H    2.798926   5.833537   4.705335   5.175342   5.810898
    24  H    4.094424   6.240977   4.989361   5.116035   6.431279
    25  H    3.521022   5.140485   3.651196   4.307076   5.858545
    26  C    2.718486   5.179838   4.748603   4.249689   4.295974
    27  H    3.745923   6.119375   5.581821   4.994768   5.290610
    28  H    2.282474   5.571871   5.177382   4.934326   4.482537
    29  H    3.033644   4.843707   4.770931   3.935217   3.620690
                   16         17         18         19         20
    16  H    0.000000
    17  H    1.788204   0.000000
    18  C    4.605140   4.128733   0.000000
    19  H    5.076729   4.460331   1.097756   0.000000
    20  H    5.339641   4.684776   1.092599   1.759225   0.000000
    21  H    4.839649   4.749729   1.092142   1.766187   1.768238
    22  C    4.736018   4.639435   2.982732   4.072318   2.728765
    23  H    5.144073   4.654682   2.927293   3.920732   2.355000
    24  H    5.345096   5.401834   4.065785   5.156376   3.752780
    25  H    5.145919   5.175104   2.634972   3.694012   2.450374
    26  C    3.105662   2.917451   4.111762   5.008893   4.204880
    27  H    3.928994   3.923064   4.984873   5.950120   4.952189
    28  H    3.648004   2.876600   4.001258   4.803459   3.919891
    29  H    2.261793   2.326519   4.587026   5.369358   4.886225
                   21         22         23         24         25
    21  H    0.000000
    22  C    2.979205   0.000000
    23  H    3.250884   1.090704   0.000000
    24  H    3.957167   1.099880   1.777384   0.000000
    25  H    2.295125   1.089394   1.794108   1.762563   0.000000
    26  C    4.471747   2.561016   2.749972   2.879679   3.494767
    27  H    5.241306   2.821342   3.074580   2.703883   3.833163
    28  H    4.593709   2.802511   2.547886   3.253170   3.767222
    29  H    4.940318   3.494952   3.761917   3.843242   4.308302
                   26         27         28         29
    26  C    0.000000
    27  H    1.099135   0.000000
    28  H    1.090947   1.771290   0.000000
    29  H    1.088240   1.764099   1.795261   0.000000
 Framework group  C1[X(C8H16Cl3FeO)]
 Deg. of freedom    81
                         Standard orientation:                         
 ---------------------------------------------------------------------
 Center     Atomic      Atomic             Coordinates (Angstroms)
 Number     Number       Type             X           Y           Z
 ---------------------------------------------------------------------
      1          8           0       -0.253218   -0.273864   -0.817895
      2          6           0       -1.107162   -1.198188   -0.643576
      3          6           0       -2.893156   -0.228246    0.536230
      4          6           0       -2.615947    0.938252   -0.103244
      5          6           0       -3.188510    1.258180   -1.452362
      6         26           0        1.458822    0.144911   -0.007192
      7         17           0        2.036089    2.039210   -0.923311
      8          6           0       -1.705675    1.986575    0.451113
      9         17           0        2.674729   -1.593137   -0.553160
     10         17           0        1.149308    0.289249    2.169621
     11          1           0       -3.629707   -0.881260    0.070551
     12          1           0       -2.244736    2.939264    0.535143
     13          1           0       -1.286181    1.737716    1.424780
     14          1           0       -0.876249    2.164051   -0.246464
     15          1           0       -3.739369    2.205989   -1.399459
     16          1           0       -2.386097    1.409731   -2.186758
     17          1           0       -3.873488    0.488774   -1.816378
     18          6           0       -2.646601   -0.478686    2.005298
     19          1           0       -3.404322    0.050655    2.597519
     20          1           0       -2.736681   -1.539566    2.250640
     21          1           0       -1.666469   -0.135005    2.342936
     22          6           0       -0.855856   -2.247202    0.404588
     23          1           0       -1.731102   -2.871367    0.588971
     24          1           0       -0.057432   -2.880458   -0.009225
     25          1           0       -0.481377   -1.822553    1.335296
     26          6           0       -1.875495   -1.636615   -1.863963
     27          1           0       -1.210317   -2.333526   -2.393067
     28          1           0       -2.794521   -2.170398   -1.617725
     29          1           0       -2.077308   -0.803713   -2.534644
 ---------------------------------------------------------------------
 Rotational constants (GHZ):           0.5754276           0.3304734           0.3108768
   427 basis functions,  1056 primitive gaussians,   461 cartesian basis functions
    77 alpha electrons       72 beta electrons
       nuclear repulsion energy      1635.4479493464 Hartrees.
 NAtoms=   29 NActive=   29 NUniq=   29 SFac= 1.00D+00 NAtFMM=   60 NAOKFM=F Big=F
 Nuclear repulsion after empirical dispersion term =     1635.4106234089 Hartrees.
 Initial guess from the checkpoint file:  "checkpoint.chk"
 B after Tr=     0.000000    0.000000    0.000000
         Rot=    1.000000    0.000000    0.000000    0.000000 Ang=   0.00 deg.
 Initial guess <Sx>= 0.0000 <Sy>= 0.0000 <Sz>= 2.5000 <S**2>= 8.7626 S= 2.5021
 SCF Done:  E(UPBE1PBE) =  -3033.16251351     A.U. after    1 cycles
            NFock=  1  Conv=0.27D-08     -V/T= 2.0021
 <Sx>= 0.0000 <Sy>= 0.0000 <Sz>= 2.5000 <S**2>= 8.7626 S= 2.5021
 <L.S>= 0.000000000000E+00
 Annihilation of the first spin contaminant:
 S**2 before annihilation     8.7626,   after     8.7500
 1\1\GINC-HOLY7C04207\SP\UPBE1PBE\Jul-CC-pVDZ\C8H16Cl3Fe1O1(6)\EKWAN\11
 -Feb-2020\0\\#t pop=none jul-cc-pvdz guess=read upbe1pbe empiricaldisp
 ersion=gd3bj\\theory_abbreviation pbe0_d3bj\\0,6\O,0,-0.253218,-0.2738
 64,-0.817895\C,0,-1.107162,-1.198188,-0.643576\C,0,-2.893156,-0.228246
 ,0.53623\C,0,-2.615947,0.938252,-0.103244\C,0,-3.18851,1.25818,-1.4523
 62\Fe,0,1.458822,0.144911,-0.007192\Cl,0,2.036089,2.03921,-0.923311\C,
 0,-1.705675,1.986575,0.451113\Cl,0,2.674729,-1.593137,-0.55316\Cl,0,1.
 149308,0.289249,2.169621\H,0,-3.629707,-0.88126,0.070551\H,0,-2.244736
 ,2.939264,0.535143\H,0,-1.286181,1.737716,1.42478\H,0,-0.876249,2.1640
 51,-0.246464\H,0,-3.739369,2.205989,-1.399459\H,0,-2.386097,1.409731,-
 2.186758\H,0,-3.873488,0.488774,-1.816378\C,0,-2.646601,-0.478686,2.00
 5298\H,0,-3.404322,0.050655,2.597519\H,0,-2.736681,-1.539566,2.25064\H
 ,0,-1.666469,-0.135005,2.342936\C,0,-0.855856,-2.247202,0.404588\H,0,-
 1.731102,-2.871367,0.588971\H,0,-0.057432,-2.880458,-0.009225\H,0,-0.4
 81377,-1.822553,1.335296\C,0,-1.875495,-1.636615,-1.863963\H,0,-1.2103
 17,-2.333526,-2.393067\H,0,-2.794521,-2.170398,-1.617725\H,0,-2.077308
 ,-0.803713,-2.534644\\Version=ES64L-G16RevA.03\HF=-3033.1625135\S2=8.7
 62622\S2-1=0.\S2A=8.750049\RMSD=2.724e-09\PG=C01 [X(C8H16Cl3Fe1O1)]\\@


 HEAVEN'S NET CASTS WIDE.
 THOUGH ITS MESHES ARE COARSE, NOTHING SLIPS THROUGH.

                                          -- LAO-TSU
 Job cpu time:       0 days  0 hours  4 minutes 38.4 seconds.
 Elapsed time:       0 days  0 hours  1 minutes 10.2 seconds.
 File lengths (MBytes):  RWF=    170 Int=      0 D2E=      0 Chk=     13 Scr=      1
 Normal termination of Gaussian 16 at Tue Feb 11 14:01:01 2020.
 Initial command:
 /n/sw/g16_nehalem/g16/l1.exe "/scratch/Gau-411192.inp" -scrdir="/scratch/"
 Entering Link 1 = /n/sw/g16_nehalem/g16/l1.exe PID=    413432.
  
 Copyright (c) 1988,1990,1992,1993,1995,1998,2003,2009,2016,
            Gaussian, Inc.  All Rights Reserved.
  
 This is part of the Gaussian(R) 16 program.  It is based on
 the Gaussian(R) 09 system (copyright 2009, Gaussian, Inc.),
 the Gaussian(R) 03 system (copyright 2003, Gaussian, Inc.),
 the Gaussian(R) 98 system (copyright 1998, Gaussian, Inc.),
 the Gaussian(R) 94 system (copyright 1995, Gaussian, Inc.),
 the Gaussian 92(TM) system (copyright 1992, Gaussian, Inc.),
 the Gaussian 90(TM) system (copyright 1990, Gaussian, Inc.),
 the Gaussian 88(TM) system (copyright 1988, Gaussian, Inc.),
 the Gaussian 86(TM) system (copyright 1986, Carnegie Mellon
 University), and the Gaussian 82(TM) system (copyright 1983,
 Carnegie Mellon University). Gaussian is a federally registered
 trademark of Gaussian, Inc.
  
 This software contains proprietary and confidential information,
 including trade secrets, belonging to Gaussian, Inc.
  
 This software is provided under written license and may be
 used, copied, transmitted, or stored only in accord with that
 written license.
  
 The following legend is applicable only to US Government
 contracts under FAR:
  
                    RESTRICTED RIGHTS LEGEND
  
 Use, reproduction and disclosure by the US Government is
 subject to restrictions as set forth in subparagraphs (a)
 and (c) of the Commercial Computer Software - Restricted
 Rights clause in FAR 52.227-19.
  
 Gaussian, Inc.
 340 Quinnipiac St., Bldg. 40, Wallingford CT 06492
  
  
 ---------------------------------------------------------------
 Warning -- This program may not be used in any manner that
 competes with the business of Gaussian, Inc. or will provide
 assistance to any competitor of Gaussian, Inc.  The licensee
 of this program is prohibited from giving any competitor of
 Gaussian, Inc. access to this program.  By using this program,
 the user acknowledges that Gaussian, Inc. is engaged in the
 business of creating and licensing software in the field of
 computational chemistry and represents and warrants to the
 licensee that it is not a competitor of Gaussian, Inc. and that
 it will not use this program in any manner prohibited above.
 ---------------------------------------------------------------
  

 Cite this work as:
 Gaussian 16, Revision A.03,
 M. J. Frisch, G. W. Trucks, H. B. Schlegel, G. E. Scuseria, 
 M. A. Robb, J. R. Cheeseman, G. Scalmani, V. Barone, 
 G. A. Petersson, H. Nakatsuji, X. Li, M. Caricato, A. V. Marenich, 
 J. Bloino, B. G. Janesko, R. Gomperts, B. Mennucci, H. P. Hratchian, 
 J. V. Ortiz, A. F. Izmaylov, J. L. Sonnenberg, D. Williams-Young, 
 F. Ding, F. Lipparini, F. Egidi, J. Goings, B. Peng, A. Petrone, 
 T. Henderson, D. Ranasinghe, V. G. Zakrzewski, J. Gao, N. Rega, 
 G. Zheng, W. Liang, M. Hada, M. Ehara, K. Toyota, R. Fukuda, 
 J. Hasegawa, M. Ishida, T. Nakajima, Y. Honda, O. Kitao, H. Nakai, 
 T. Vreven, K. Throssell, J. A. Montgomery, Jr., J. E. Peralta, 
 F. Ogliaro, M. J. Bearpark, J. J. Heyd, E. N. Brothers, K. N. Kudin, 
 V. N. Staroverov, T. A. Keith, R. Kobayashi, J. Normand, 
 K. Raghavachari, A. P. Rendell, J. C. Burant, S. S. Iyengar, 
 J. Tomasi, M. Cossi, J. M. Millam, M. Klene, C. Adamo, R. Cammi, 
 J. W. Ochterski, R. L. Martin, K. Morokuma, O. Farkas, 
 J. B. Foresman, and D. J. Fox, Gaussian, Inc., Wallingford CT, 2016.
 
 ******************************************
 Gaussian 16:  ES64L-G16RevA.03 25-Dec-2016
                11-Feb-2020 
 ******************************************
 %chk=checkpoint.chk
 %mem=3GB
 %nprocshared=4
 Will use up to    4 processors via shared memory.
 -----------------------------------------
 #t pop=none jul-cc-pvdz guess=read ub3lyp
 -----------------------------------------
 -------------------------
 theory_abbreviation b3lyp
 -------------------------
 Symbolic Z-matrix:
 Charge =  0 Multiplicity = 6
 O                    -0.25322  -0.27386  -0.8179 
 C                    -1.10716  -1.19819  -0.64358 
 C                    -2.89316  -0.22825   0.53623 
 C                    -2.61595   0.93825  -0.10324 
 C                    -3.18851   1.25818  -1.45236 
 Fe                    1.45882   0.14491  -0.00719 
 Cl                    2.03609   2.03921  -0.92331 
 C                    -1.70568   1.98658   0.45111 
 Cl                    2.67473  -1.59314  -0.55316 
 Cl                    1.14931   0.28925   2.16962 
 H                    -3.62971  -0.88126   0.07055 
 H                    -2.24474   2.93926   0.53514 
 H                    -1.28618   1.73772   1.42478 
 H                    -0.87625   2.16405  -0.24646 
 H                    -3.73937   2.20599  -1.39946 
 H                    -2.3861    1.40973  -2.18676 
 H                    -3.87349   0.48877  -1.81638 
 C                    -2.6466   -0.47869   2.0053 
 H                    -3.40432   0.05066   2.59752 
 H                    -2.73668  -1.53957   2.25064 
 H                    -1.66647  -0.13501   2.34294 
 C                    -0.85586  -2.2472    0.40459 
 H                    -1.7311   -2.87137   0.58897 
 H                    -0.05743  -2.88046  -0.00923 
 H                    -0.48138  -1.82255   1.3353 
 C                    -1.8755   -1.63662  -1.86396 
 H                    -1.21032  -2.33353  -2.39307 
 H                    -2.79452  -2.1704   -1.61773 
 H                    -2.07731  -0.80371  -2.53464 
 
                    Distance matrix (angstroms):
                    1          2          3          4          5
     1  O    0.000000
     2  C    1.270426   0.000000
     3  C    2.967323   2.350001   0.000000
     4  C    2.749989   2.670724   1.358856   0.000000
     5  C    3.371297   3.319622   2.500239   1.500101   0.000000
     6  Fe   1.940024   2.965329   4.401621   4.152392   4.992552
     7  Cl   3.256125   4.520954   5.618636   4.850367   5.309081
     8  C    2.971464   3.420421   2.514515   1.494954   2.520432
     9  Cl   3.222334   3.803532   5.835327   5.882313   6.581500
    10  Cl   3.348048   3.901052   4.390590   4.445702   5.733607
    11  H    3.543860   2.640768   1.088941   2.090105   2.662916
    12  H    4.015102   4.449940   3.233198   2.132929   2.768922
    13  H    3.184817   3.595786   2.690148   2.177677   3.482349
    14  H    2.580335   3.393475   3.225463   2.132990   2.760678
    15  H    4.317538   4.369015   3.223115   2.132934   1.097536
    16  H    3.042606   3.289123   3.217878   2.148524   1.098259
    17  H    3.832093   3.445847   2.647628   2.172157   1.092560
    18  C    3.706839   3.147076   1.510520   2.540591   3.907145
    19  H    4.658307   4.164283   2.141959   2.950167   4.231575
    20  H    4.145539   3.338916   2.164081   3.419785   4.663020
    21  H    3.465171   3.219074   2.185782   2.834993   4.319938
    22  C    2.398270   1.504072   2.871255   3.674633   4.601874
    23  H    3.303095   2.169793   2.887774   3.971814   4.831587
    24  H    2.736167   2.081914   3.920852   4.597541   5.386522
    25  H    2.662090   2.167342   2.999500   3.774630   4.958883
    26  C    2.362865   1.507282   2.963117   3.205985   3.205193
    27  H    2.763949   2.088146   3.980569   4.233629   4.206962
    28  H    3.270289   2.177462   2.901931   3.462549   3.455100
    29  H    2.560326   2.161697   3.229092   3.039125   2.580215
                    6          7          8          9         10
     6  Fe   0.000000
     7  Cl   2.181944   0.000000
     8  C    3.689961   3.986554   0.000000
     9  Cl   2.190279   3.706591   5.745506   0.000000
    10  Cl   2.203440   3.662646   3.739668   3.644698   0.000000
    11  H    5.191551   6.451213   3.474364   6.375084   5.349315
    12  H    4.671068   4.611144   1.097845   6.777035   4.605826
    13  H    3.481754   4.079449   1.089006   5.540364   2.929923
    14  H    3.096245   2.992561   1.098207   5.178800   3.668137
    15  H    5.762607   5.797452   2.758382   7.502682   6.349125
    16  H    4.597138   4.642012   2.784616   6.107194   5.721242
    17  H    5.641358   6.174506   3.476253   6.986359   6.415331
    18  C    4.614487   6.069937   3.062408   6.008682   3.876294
    19  H    5.517569   6.778545   3.352648   7.041569   4.579909
    20  H    5.053465   6.757288   4.090836   6.094877   4.295584
    21  H    3.920319   5.394860   2.842821   5.418443   2.852828
    22  C    3.354028   5.338538   4.318475   3.716196   3.683695
    23  H    4.430458   6.371224   4.859964   4.727545   4.559025
    24  H    3.384064   5.424160   5.159130   3.068838   4.031207
    25  H    3.072061   5.133435   4.097577   3.685092   2.795521
    26  C    4.211781   5.449496   4.303013   4.735465   5.397053
    27  H    4.354234   5.640936   5.195961   4.361997   5.767573
    28  H    5.103469   6.444983   4.769287   5.601716   5.995635
    29  H    4.448833   5.253441   4.103482   5.208774   5.808246
                   11         12         13         14         15
    11  H    0.000000
    12  H    4.090280   0.000000
    13  H    3.766309   1.775950   0.000000
    14  H    4.117760   1.756309   1.772812   0.000000
    15  H    3.421120   2.552314   3.770111   3.086845   0.000000
    16  H    3.448282   3.125412   3.789538   2.571649   1.756477
    17  H    2.344552   3.766615   4.331180   3.775530   1.772184
    18  C    2.207218   3.742357   2.664617   3.897260   4.471464
    19  H    2.702745   3.733912   2.950934   4.352681   4.553411
    20  H    2.446150   4.821292   3.677849   4.838751   5.325203
    21  H    3.094339   3.612982   2.120074   3.551774   4.876750
    22  C    3.109924   5.370797   4.135885   4.459085   5.603583
    23  H    2.798926   5.833537   4.705335   5.175342   5.810898
    24  H    4.094424   6.240977   4.989361   5.116035   6.431279
    25  H    3.521022   5.140485   3.651196   4.307076   5.858545
    26  C    2.718486   5.179838   4.748603   4.249689   4.295974
    27  H    3.745923   6.119375   5.581821   4.994768   5.290610
    28  H    2.282474   5.571871   5.177382   4.934326   4.482537
    29  H    3.033644   4.843707   4.770931   3.935217   3.620690
                   16         17         18         19         20
    16  H    0.000000
    17  H    1.788204   0.000000
    18  C    4.605140   4.128733   0.000000
    19  H    5.076729   4.460331   1.097756   0.000000
    20  H    5.339641   4.684776   1.092599   1.759225   0.000000
    21  H    4.839649   4.749729   1.092142   1.766187   1.768238
    22  C    4.736018   4.639435   2.982732   4.072318   2.728765
    23  H    5.144073   4.654682   2.927293   3.920732   2.355000
    24  H    5.345096   5.401834   4.065785   5.156376   3.752780
    25  H    5.145919   5.175104   2.634972   3.694012   2.450374
    26  C    3.105662   2.917451   4.111762   5.008893   4.204880
    27  H    3.928994   3.923064   4.984873   5.950120   4.952189
    28  H    3.648004   2.876600   4.001258   4.803459   3.919891
    29  H    2.261793   2.326519   4.587026   5.369358   4.886225
                   21         22         23         24         25
    21  H    0.000000
    22  C    2.979205   0.000000
    23  H    3.250884   1.090704   0.000000
    24  H    3.957167   1.099880   1.777384   0.000000
    25  H    2.295125   1.089394   1.794108   1.762563   0.000000
    26  C    4.471747   2.561016   2.749972   2.879679   3.494767
    27  H    5.241306   2.821342   3.074580   2.703883   3.833163
    28  H    4.593709   2.802511   2.547886   3.253170   3.767222
    29  H    4.940318   3.494952   3.761917   3.843242   4.308302
                   26         27         28         29
    26  C    0.000000
    27  H    1.099135   0.000000
    28  H    1.090947   1.771290   0.000000
    29  H    1.088240   1.764099   1.795261   0.000000
 Framework group  C1[X(C8H16Cl3FeO)]
 Deg. of freedom    81
                         Standard orientation:                         
 ---------------------------------------------------------------------
 Center     Atomic      Atomic             Coordinates (Angstroms)
 Number     Number       Type             X           Y           Z
 ---------------------------------------------------------------------
      1          8           0       -0.253218   -0.273864   -0.817895
      2          6           0       -1.107162   -1.198188   -0.643576
      3          6           0       -2.893156   -0.228246    0.536230
      4          6           0       -2.615947    0.938252   -0.103244
      5          6           0       -3.188510    1.258180   -1.452362
      6         26           0        1.458822    0.144911   -0.007192
      7         17           0        2.036089    2.039210   -0.923311
      8          6           0       -1.705675    1.986575    0.451113
      9         17           0        2.674729   -1.593137   -0.553160
     10         17           0        1.149308    0.289249    2.169621
     11          1           0       -3.629707   -0.881260    0.070551
     12          1           0       -2.244736    2.939264    0.535143
     13          1           0       -1.286181    1.737716    1.424780
     14          1           0       -0.876249    2.164051   -0.246464
     15          1           0       -3.739369    2.205989   -1.399459
     16          1           0       -2.386097    1.409731   -2.186758
     17          1           0       -3.873488    0.488774   -1.816378
     18          6           0       -2.646601   -0.478686    2.005298
     19          1           0       -3.404322    0.050655    2.597519
     20          1           0       -2.736681   -1.539566    2.250640
     21          1           0       -1.666469   -0.135005    2.342936
     22          6           0       -0.855856   -2.247202    0.404588
     23          1           0       -1.731102   -2.871367    0.588971
     24          1           0       -0.057432   -2.880458   -0.009225
     25          1           0       -0.481377   -1.822553    1.335296
     26          6           0       -1.875495   -1.636615   -1.863963
     27          1           0       -1.210317   -2.333526   -2.393067
     28          1           0       -2.794521   -2.170398   -1.617725
     29          1           0       -2.077308   -0.803713   -2.534644
 ---------------------------------------------------------------------
 Rotational constants (GHZ):           0.5754276           0.3304734           0.3108768
   427 basis functions,  1056 primitive gaussians,   461 cartesian basis functions
    77 alpha electrons       72 beta electrons
       nuclear repulsion energy      1635.4479493464 Hartrees.
 NAtoms=   29 NActive=   29 NUniq=   29 SFac= 1.00D+00 NAtFMM=   60 NAOKFM=F Big=F
 Initial guess from the checkpoint file:  "checkpoint.chk"
 B after Tr=     0.000000    0.000000    0.000000
         Rot=    1.000000    0.000000    0.000000    0.000000 Ang=   0.00 deg.
 Initial guess <Sx>= 0.0000 <Sy>= 0.0000 <Sz>= 2.5000 <S**2>= 8.7626 S= 2.5021
 SCF Done:  E(UB3LYP) =  -3034.34160349     A.U. after   13 cycles
            NFock= 13  Conv=0.73D-08     -V/T= 2.0024
 <Sx>= 0.0000 <Sy>= 0.0000 <Sz>= 2.5000 <S**2>= 8.7619 S= 2.5020
 <L.S>= 0.000000000000E+00
 Annihilation of the first spin contaminant:
 S**2 before annihilation     8.7619,   after     8.7500
 1\1\GINC-HOLY7C04207\SP\UB3LYP\Jul-CC-pVDZ\C8H16Cl3Fe1O1(6)\EKWAN\11-F
 eb-2020\0\\#t pop=none jul-cc-pvdz guess=read ub3lyp\\theory_abbreviat
 ion b3lyp\\0,6\O,0,-0.253218,-0.273864,-0.817895\C,0,-1.107162,-1.1981
 88,-0.643576\C,0,-2.893156,-0.228246,0.53623\C,0,-2.615947,0.938252,-0
 .103244\C,0,-3.18851,1.25818,-1.452362\Fe,0,1.458822,0.144911,-0.00719
 2\Cl,0,2.036089,2.03921,-0.923311\C,0,-1.705675,1.986575,0.451113\Cl,0
 ,2.674729,-1.593137,-0.55316\Cl,0,1.149308,0.289249,2.169621\H,0,-3.62
 9707,-0.88126,0.070551\H,0,-2.244736,2.939264,0.535143\H,0,-1.286181,1
 .737716,1.42478\H,0,-0.876249,2.164051,-0.246464\H,0,-3.739369,2.20598
 9,-1.399459\H,0,-2.386097,1.409731,-2.186758\H,0,-3.873488,0.488774,-1
 .816378\C,0,-2.646601,-0.478686,2.005298\H,0,-3.404322,0.050655,2.5975
 19\H,0,-2.736681,-1.539566,2.25064\H,0,-1.666469,-0.135005,2.342936\C,
 0,-0.855856,-2.247202,0.404588\H,0,-1.731102,-2.871367,0.588971\H,0,-0
 .057432,-2.880458,-0.009225\H,0,-0.481377,-1.822553,1.335296\C,0,-1.87
 5495,-1.636615,-1.863963\H,0,-1.210317,-2.333526,-2.393067\H,0,-2.7945
 21,-2.170398,-1.617725\H,0,-2.077308,-0.803713,-2.534644\\Version=ES64
 L-G16RevA.03\HF=-3034.3416035\S2=8.761905\S2-1=0.\S2A=8.750044\RMSD=7.
 264e-09\PG=C01 [X(C8H16Cl3Fe1O1)]\\@


 I DO NOT DEFINE TIME, SPACE, PLACE, AND MOTION, AS BEING WELL KNOWN TO ALL.
                                            -- NEWTON (1642-1726), PRINCIPIA
 Job cpu time:       0 days  0 hours 54 minutes 59.6 seconds.
 Elapsed time:       0 days  0 hours 13 minutes 47.3 seconds.
 File lengths (MBytes):  RWF=    174 Int=      0 D2E=      0 Chk=     13 Scr=      1
 Normal termination of Gaussian 16 at Tue Feb 11 14:14:49 2020.
 Initial command:
 /n/sw/g16_nehalem/g16/l1.exe "/scratch/Gau-411192.inp" -scrdir="/scratch/"
 Entering Link 1 = /n/sw/g16_nehalem/g16/l1.exe PID=    414525.
  
 Copyright (c) 1988,1990,1992,1993,1995,1998,2003,2009,2016,
            Gaussian, Inc.  All Rights Reserved.
  
 This is part of the Gaussian(R) 16 program.  It is based on
 the Gaussian(R) 09 system (copyright 2009, Gaussian, Inc.),
 the Gaussian(R) 03 system (copyright 2003, Gaussian, Inc.),
 the Gaussian(R) 98 system (copyright 1998, Gaussian, Inc.),
 the Gaussian(R) 94 system (copyright 1995, Gaussian, Inc.),
 the Gaussian 92(TM) system (copyright 1992, Gaussian, Inc.),
 the Gaussian 90(TM) system (copyright 1990, Gaussian, Inc.),
 the Gaussian 88(TM) system (copyright 1988, Gaussian, Inc.),
 the Gaussian 86(TM) system (copyright 1986, Carnegie Mellon
 University), and the Gaussian 82(TM) system (copyright 1983,
 Carnegie Mellon University). Gaussian is a federally registered
 trademark of Gaussian, Inc.
  
 This software contains proprietary and confidential information,
 including trade secrets, belonging to Gaussian, Inc.
  
 This software is provided under written license and may be
 used, copied, transmitted, or stored only in accord with that
 written license.
  
 The following legend is applicable only to US Government
 contracts under FAR:
  
                    RESTRICTED RIGHTS LEGEND
  
 Use, reproduction and disclosure by the US Government is
 subject to restrictions as set forth in subparagraphs (a)
 and (c) of the Commercial Computer Software - Restricted
 Rights clause in FAR 52.227-19.
  
 Gaussian, Inc.
 340 Quinnipiac St., Bldg. 40, Wallingford CT 06492
  
  
 ---------------------------------------------------------------
 Warning -- This program may not be used in any manner that
 competes with the business of Gaussian, Inc. or will provide
 assistance to any competitor of Gaussian, Inc.  The licensee
 of this program is prohibited from giving any competitor of
 Gaussian, Inc. access to this program.  By using this program,
 the user acknowledges that Gaussian, Inc. is engaged in the
 business of creating and licensing software in the field of
 computational chemistry and represents and warrants to the
 licensee that it is not a competitor of Gaussian, Inc. and that
 it will not use this program in any manner prohibited above.
 ---------------------------------------------------------------
  

 Cite this work as:
 Gaussian 16, Revision A.03,
 M. J. Frisch, G. W. Trucks, H. B. Schlegel, G. E. Scuseria, 
 M. A. Robb, J. R. Cheeseman, G. Scalmani, V. Barone, 
 G. A. Petersson, H. Nakatsuji, X. Li, M. Caricato, A. V. Marenich, 
 J. Bloino, B. G. Janesko, R. Gomperts, B. Mennucci, H. P. Hratchian, 
 J. V. Ortiz, A. F. Izmaylov, J. L. Sonnenberg, D. Williams-Young, 
 F. Ding, F. Lipparini, F. Egidi, J. Goings, B. Peng, A. Petrone, 
 T. Henderson, D. Ranasinghe, V. G. Zakrzewski, J. Gao, N. Rega, 
 G. Zheng, W. Liang, M. Hada, M. Ehara, K. Toyota, R. Fukuda, 
 J. Hasegawa, M. Ishida, T. Nakajima, Y. Honda, O. Kitao, H. Nakai, 
 T. Vreven, K. Throssell, J. A. Montgomery, Jr., J. E. Peralta, 
 F. Ogliaro, M. J. Bearpark, J. J. Heyd, E. N. Brothers, K. N. Kudin, 
 V. N. Staroverov, T. A. Keith, R. Kobayashi, J. Normand, 
 K. Raghavachari, A. P. Rendell, J. C. Burant, S. S. Iyengar, 
 J. Tomasi, M. Cossi, J. M. Millam, M. Klene, C. Adamo, R. Cammi, 
 J. W. Ochterski, R. L. Martin, K. Morokuma, O. Farkas, 
 J. B. Foresman, and D. J. Fox, Gaussian, Inc., Wallingford CT, 2016.
 
 ******************************************
 Gaussian 16:  ES64L-G16RevA.03 25-Dec-2016
                11-Feb-2020 
 ******************************************
 %chk=checkpoint.chk
 %mem=3GB
 %nprocshared=4
 Will use up to    4 processors via shared memory.
 -------------------------------------------------------------------
 #t pop=none jul-cc-pvdz guess=read ub3lyp empiricaldispersion=gd3bj
 -------------------------------------------------------------------
 ------------------------------
 theory_abbreviation b3lyp_d3bj
 ------------------------------
 Symbolic Z-matrix:
 Charge =  0 Multiplicity = 6
 O                    -0.25322  -0.27386  -0.8179 
 C                    -1.10716  -1.19819  -0.64358 
 C                    -2.89316  -0.22825   0.53623 
 C                    -2.61595   0.93825  -0.10324 
 C                    -3.18851   1.25818  -1.45236 
 Fe                    1.45882   0.14491  -0.00719 
 Cl                    2.03609   2.03921  -0.92331 
 C                    -1.70568   1.98658   0.45111 
 Cl                    2.67473  -1.59314  -0.55316 
 Cl                    1.14931   0.28925   2.16962 
 H                    -3.62971  -0.88126   0.07055 
 H                    -2.24474   2.93926   0.53514 
 H                    -1.28618   1.73772   1.42478 
 H                    -0.87625   2.16405  -0.24646 
 H                    -3.73937   2.20599  -1.39946 
 H                    -2.3861    1.40973  -2.18676 
 H                    -3.87349   0.48877  -1.81638 
 C                    -2.6466   -0.47869   2.0053 
 H                    -3.40432   0.05066   2.59752 
 H                    -2.73668  -1.53957   2.25064 
 H                    -1.66647  -0.13501   2.34294 
 C                    -0.85586  -2.2472    0.40459 
 H                    -1.7311   -2.87137   0.58897 
 H                    -0.05743  -2.88046  -0.00923 
 H                    -0.48138  -1.82255   1.3353 
 C                    -1.8755   -1.63662  -1.86396 
 H                    -1.21032  -2.33353  -2.39307 
 H                    -2.79452  -2.1704   -1.61773 
 H                    -2.07731  -0.80371  -2.53464 
 
                    Distance matrix (angstroms):
                    1          2          3          4          5
     1  O    0.000000
     2  C    1.270426   0.000000
     3  C    2.967323   2.350001   0.000000
     4  C    2.749989   2.670724   1.358856   0.000000
     5  C    3.371297   3.319622   2.500239   1.500101   0.000000
     6  Fe   1.940024   2.965329   4.401621   4.152392   4.992552
     7  Cl   3.256125   4.520954   5.618636   4.850367   5.309081
     8  C    2.971464   3.420421   2.514515   1.494954   2.520432
     9  Cl   3.222334   3.803532   5.835327   5.882313   6.581500
    10  Cl   3.348048   3.901052   4.390590   4.445702   5.733607
    11  H    3.543860   2.640768   1.088941   2.090105   2.662916
    12  H    4.015102   4.449940   3.233198   2.132929   2.768922
    13  H    3.184817   3.595786   2.690148   2.177677   3.482349
    14  H    2.580335   3.393475   3.225463   2.132990   2.760678
    15  H    4.317538   4.369015   3.223115   2.132934   1.097536
    16  H    3.042606   3.289123   3.217878   2.148524   1.098259
    17  H    3.832093   3.445847   2.647628   2.172157   1.092560
    18  C    3.706839   3.147076   1.510520   2.540591   3.907145
    19  H    4.658307   4.164283   2.141959   2.950167   4.231575
    20  H    4.145539   3.338916   2.164081   3.419785   4.663020
    21  H    3.465171   3.219074   2.185782   2.834993   4.319938
    22  C    2.398270   1.504072   2.871255   3.674633   4.601874
    23  H    3.303095   2.169793   2.887774   3.971814   4.831587
    24  H    2.736167   2.081914   3.920852   4.597541   5.386522
    25  H    2.662090   2.167342   2.999500   3.774630   4.958883
    26  C    2.362865   1.507282   2.963117   3.205985   3.205193
    27  H    2.763949   2.088146   3.980569   4.233629   4.206962
    28  H    3.270289   2.177462   2.901931   3.462549   3.455100
    29  H    2.560326   2.161697   3.229092   3.039125   2.580215
                    6          7          8          9         10
     6  Fe   0.000000
     7  Cl   2.181944   0.000000
     8  C    3.689961   3.986554   0.000000
     9  Cl   2.190279   3.706591   5.745506   0.000000
    10  Cl   2.203440   3.662646   3.739668   3.644698   0.000000
    11  H    5.191551   6.451213   3.474364   6.375084   5.349315
    12  H    4.671068   4.611144   1.097845   6.777035   4.605826
    13  H    3.481754   4.079449   1.089006   5.540364   2.929923
    14  H    3.096245   2.992561   1.098207   5.178800   3.668137
    15  H    5.762607   5.797452   2.758382   7.502682   6.349125
    16  H    4.597138   4.642012   2.784616   6.107194   5.721242
    17  H    5.641358   6.174506   3.476253   6.986359   6.415331
    18  C    4.614487   6.069937   3.062408   6.008682   3.876294
    19  H    5.517569   6.778545   3.352648   7.041569   4.579909
    20  H    5.053465   6.757288   4.090836   6.094877   4.295584
    21  H    3.920319   5.394860   2.842821   5.418443   2.852828
    22  C    3.354028   5.338538   4.318475   3.716196   3.683695
    23  H    4.430458   6.371224   4.859964   4.727545   4.559025
    24  H    3.384064   5.424160   5.159130   3.068838   4.031207
    25  H    3.072061   5.133435   4.097577   3.685092   2.795521
    26  C    4.211781   5.449496   4.303013   4.735465   5.397053
    27  H    4.354234   5.640936   5.195961   4.361997   5.767573
    28  H    5.103469   6.444983   4.769287   5.601716   5.995635
    29  H    4.448833   5.253441   4.103482   5.208774   5.808246
                   11         12         13         14         15
    11  H    0.000000
    12  H    4.090280   0.000000
    13  H    3.766309   1.775950   0.000000
    14  H    4.117760   1.756309   1.772812   0.000000
    15  H    3.421120   2.552314   3.770111   3.086845   0.000000
    16  H    3.448282   3.125412   3.789538   2.571649   1.756477
    17  H    2.344552   3.766615   4.331180   3.775530   1.772184
    18  C    2.207218   3.742357   2.664617   3.897260   4.471464
    19  H    2.702745   3.733912   2.950934   4.352681   4.553411
    20  H    2.446150   4.821292   3.677849   4.838751   5.325203
    21  H    3.094339   3.612982   2.120074   3.551774   4.876750
    22  C    3.109924   5.370797   4.135885   4.459085   5.603583
    23  H    2.798926   5.833537   4.705335   5.175342   5.810898
    24  H    4.094424   6.240977   4.989361   5.116035   6.431279
    25  H    3.521022   5.140485   3.651196   4.307076   5.858545
    26  C    2.718486   5.179838   4.748603   4.249689   4.295974
    27  H    3.745923   6.119375   5.581821   4.994768   5.290610
    28  H    2.282474   5.571871   5.177382   4.934326   4.482537
    29  H    3.033644   4.843707   4.770931   3.935217   3.620690
                   16         17         18         19         20
    16  H    0.000000
    17  H    1.788204   0.000000
    18  C    4.605140   4.128733   0.000000
    19  H    5.076729   4.460331   1.097756   0.000000
    20  H    5.339641   4.684776   1.092599   1.759225   0.000000
    21  H    4.839649   4.749729   1.092142   1.766187   1.768238
    22  C    4.736018   4.639435   2.982732   4.072318   2.728765
    23  H    5.144073   4.654682   2.927293   3.920732   2.355000
    24  H    5.345096   5.401834   4.065785   5.156376   3.752780
    25  H    5.145919   5.175104   2.634972   3.694012   2.450374
    26  C    3.105662   2.917451   4.111762   5.008893   4.204880
    27  H    3.928994   3.923064   4.984873   5.950120   4.952189
    28  H    3.648004   2.876600   4.001258   4.803459   3.919891
    29  H    2.261793   2.326519   4.587026   5.369358   4.886225
                   21         22         23         24         25
    21  H    0.000000
    22  C    2.979205   0.000000
    23  H    3.250884   1.090704   0.000000
    24  H    3.957167   1.099880   1.777384   0.000000
    25  H    2.295125   1.089394   1.794108   1.762563   0.000000
    26  C    4.471747   2.561016   2.749972   2.879679   3.494767
    27  H    5.241306   2.821342   3.074580   2.703883   3.833163
    28  H    4.593709   2.802511   2.547886   3.253170   3.767222
    29  H    4.940318   3.494952   3.761917   3.843242   4.308302
                   26         27         28         29
    26  C    0.000000
    27  H    1.099135   0.000000
    28  H    1.090947   1.771290   0.000000
    29  H    1.088240   1.764099   1.795261   0.000000
 Framework group  C1[X(C8H16Cl3FeO)]
 Deg. of freedom    81
                         Standard orientation:                         
 ---------------------------------------------------------------------
 Center     Atomic      Atomic             Coordinates (Angstroms)
 Number     Number       Type             X           Y           Z
 ---------------------------------------------------------------------
      1          8           0       -0.253218   -0.273864   -0.817895
      2          6           0       -1.107162   -1.198188   -0.643576
      3          6           0       -2.893156   -0.228246    0.536230
      4          6           0       -2.615947    0.938252   -0.103244
      5          6           0       -3.188510    1.258180   -1.452362
      6         26           0        1.458822    0.144911   -0.007192
      7         17           0        2.036089    2.039210   -0.923311
      8          6           0       -1.705675    1.986575    0.451113
      9         17           0        2.674729   -1.593137   -0.553160
     10         17           0        1.149308    0.289249    2.169621
     11          1           0       -3.629707   -0.881260    0.070551
     12          1           0       -2.244736    2.939264    0.535143
     13          1           0       -1.286181    1.737716    1.424780
     14          1           0       -0.876249    2.164051   -0.246464
     15          1           0       -3.739369    2.205989   -1.399459
     16          1           0       -2.386097    1.409731   -2.186758
     17          1           0       -3.873488    0.488774   -1.816378
     18          6           0       -2.646601   -0.478686    2.005298
     19          1           0       -3.404322    0.050655    2.597519
     20          1           0       -2.736681   -1.539566    2.250640
     21          1           0       -1.666469   -0.135005    2.342936
     22          6           0       -0.855856   -2.247202    0.404588
     23          1           0       -1.731102   -2.871367    0.588971
     24          1           0       -0.057432   -2.880458   -0.009225
     25          1           0       -0.481377   -1.822553    1.335296
     26          6           0       -1.875495   -1.636615   -1.863963
     27          1           0       -1.210317   -2.333526   -2.393067
     28          1           0       -2.794521   -2.170398   -1.617725
     29          1           0       -2.077308   -0.803713   -2.534644
 ---------------------------------------------------------------------
 Rotational constants (GHZ):           0.5754276           0.3304734           0.3108768
   427 basis functions,  1056 primitive gaussians,   461 cartesian basis functions
    77 alpha electrons       72 beta electrons
       nuclear repulsion energy      1635.4479493464 Hartrees.
 NAtoms=   29 NActive=   29 NUniq=   29 SFac= 1.00D+00 NAtFMM=   60 NAOKFM=F Big=F
 Nuclear repulsion after empirical dispersion term =     1635.3785169097 Hartrees.
 Initial guess from the checkpoint file:  "checkpoint.chk"
 B after Tr=     0.000000    0.000000    0.000000
         Rot=    1.000000    0.000000    0.000000    0.000000 Ang=   0.00 deg.
 Initial guess <Sx>= 0.0000 <Sy>= 0.0000 <Sz>= 2.5000 <S**2>= 8.7619 S= 2.5020
 SCF Done:  E(UB3LYP) =  -3034.41103592     A.U. after    1 cycles
            NFock=  1  Conv=0.45D-08     -V/T= 2.0024
 <Sx>= 0.0000 <Sy>= 0.0000 <Sz>= 2.5000 <S**2>= 8.7619 S= 2.5020
 <L.S>= 0.000000000000E+00
 Annihilation of the first spin contaminant:
 S**2 before annihilation     8.7619,   after     8.7500
 1\1\GINC-HOLY7C04207\SP\UB3LYP\Jul-CC-pVDZ\C8H16Cl3Fe1O1(6)\EKWAN\11-F
 eb-2020\0\\#t pop=none jul-cc-pvdz guess=read ub3lyp empiricaldispersi
 on=gd3bj\\theory_abbreviation b3lyp_d3bj\\0,6\O,0,-0.253218,-0.273864,
 -0.817895\C,0,-1.107162,-1.198188,-0.643576\C,0,-2.893156,-0.228246,0.
 53623\C,0,-2.615947,0.938252,-0.103244\C,0,-3.18851,1.25818,-1.452362\
 Fe,0,1.458822,0.144911,-0.007192\Cl,0,2.036089,2.03921,-0.923311\C,0,-
 1.705675,1.986575,0.451113\Cl,0,2.674729,-1.593137,-0.55316\Cl,0,1.149
 308,0.289249,2.169621\H,0,-3.629707,-0.88126,0.070551\H,0,-2.244736,2.
 939264,0.535143\H,0,-1.286181,1.737716,1.42478\H,0,-0.876249,2.164051,
 -0.246464\H,0,-3.739369,2.205989,-1.399459\H,0,-2.386097,1.409731,-2.1
 86758\H,0,-3.873488,0.488774,-1.816378\C,0,-2.646601,-0.478686,2.00529
 8\H,0,-3.404322,0.050655,2.597519\H,0,-2.736681,-1.539566,2.25064\H,0,
 -1.666469,-0.135005,2.342936\C,0,-0.855856,-2.247202,0.404588\H,0,-1.7
 31102,-2.871367,0.588971\H,0,-0.057432,-2.880458,-0.009225\H,0,-0.4813
 77,-1.822553,1.335296\C,0,-1.875495,-1.636615,-1.863963\H,0,-1.210317,
 -2.333526,-2.393067\H,0,-2.794521,-2.170398,-1.617725\H,0,-2.077308,-0
 .803713,-2.534644\\Version=ES64L-G16RevA.03\HF=-3034.4110359\S2=8.7619
 05\S2-1=0.\S2A=8.750044\RMSD=4.499e-09\PG=C01 [X(C8H16Cl3Fe1O1)]\\@


 IF I AM NOT FOR MYSELF, WHO WILL BE?
 BUT IF I AM ONLY FOR MYSELF, WHAT AM I?
 THOUGH A SEEKER SINCE MY BIRTH,
 HERE IS ALL I'VE LEARNED ON EARTH,
 THIS IS THE GIST OF WHAT I KNOW:
 GIVE ADVICE AND BUY A FOE.

 PRESSED FOR RULES AND VERITIES,
 ALL I RECOLLECT ARE THESE:
 FEED A COLD TO STARVE A FEVER,
 ARGUE WITH NO TRUE-BELIEVER.
 THINK-TOO-LONG IS NEVER-ACT,
 SCRATCH A MYTH AND FIND A FACT.

 STITCH IN TIME SAVES TWENTY STITCHES,
 GIVE THE RICH TO PLEASE THEM, RICHES.
 GIVE TO LOVE YOU HEARTH AND HALL,
 BUT DO NOT GIVE ADVICE AT ALL.

                                  -- HILLEL
 Job cpu time:       0 days  0 hours  4 minutes 37.8 seconds.
 Elapsed time:       0 days  0 hours  1 minutes 10.0 seconds.
 File lengths (MBytes):  RWF=    170 Int=      0 D2E=      0 Chk=     13 Scr=      1
 Normal termination of Gaussian 16 at Tue Feb 11 14:16:00 2020.
 Initial command:
 /n/sw/g16_nehalem/g16/l1.exe "/scratch/Gau-411192.inp" -scrdir="/scratch/"
 Entering Link 1 = /n/sw/g16_nehalem/g16/l1.exe PID=    414884.
  
 Copyright (c) 1988,1990,1992,1993,1995,1998,2003,2009,2016,
            Gaussian, Inc.  All Rights Reserved.
  
 This is part of the Gaussian(R) 16 program.  It is based on
 the Gaussian(R) 09 system (copyright 2009, Gaussian, Inc.),
 the Gaussian(R) 03 system (copyright 2003, Gaussian, Inc.),
 the Gaussian(R) 98 system (copyright 1998, Gaussian, Inc.),
 the Gaussian(R) 94 system (copyright 1995, Gaussian, Inc.),
 the Gaussian 92(TM) system (copyright 1992, Gaussian, Inc.),
 the Gaussian 90(TM) system (copyright 1990, Gaussian, Inc.),
 the Gaussian 88(TM) system (copyright 1988, Gaussian, Inc.),
 the Gaussian 86(TM) system (copyright 1986, Carnegie Mellon
 University), and the Gaussian 82(TM) system (copyright 1983,
 Carnegie Mellon University). Gaussian is a federally registered
 trademark of Gaussian, Inc.
  
 This software contains proprietary and confidential information,
 including trade secrets, belonging to Gaussian, Inc.
  
 This software is provided under written license and may be
 used, copied, transmitted, or stored only in accord with that
 written license.
  
 The following legend is applicable only to US Government
 contracts under FAR:
  
                    RESTRICTED RIGHTS LEGEND
  
 Use, reproduction and disclosure by the US Government is
 subject to restrictions as set forth in subparagraphs (a)
 and (c) of the Commercial Computer Software - Restricted
 Rights clause in FAR 52.227-19.
  
 Gaussian, Inc.
 340 Quinnipiac St., Bldg. 40, Wallingford CT 06492
  
  
 ---------------------------------------------------------------
 Warning -- This program may not be used in any manner that
 competes with the business of Gaussian, Inc. or will provide
 assistance to any competitor of Gaussian, Inc.  The licensee
 of this program is prohibited from giving any competitor of
 Gaussian, Inc. access to this program.  By using this program,
 the user acknowledges that Gaussian, Inc. is engaged in the
 business of creating and licensing software in the field of
 computational chemistry and represents and warrants to the
 licensee that it is not a competitor of Gaussian, Inc. and that
 it will not use this program in any manner prohibited above.
 ---------------------------------------------------------------
  

 Cite this work as:
 Gaussian 16, Revision A.03,
 M. J. Frisch, G. W. Trucks, H. B. Schlegel, G. E. Scuseria, 
 M. A. Robb, J. R. Cheeseman, G. Scalmani, V. Barone, 
 G. A. Petersson, H. Nakatsuji, X. Li, M. Caricato, A. V. Marenich, 
 J. Bloino, B. G. Janesko, R. Gomperts, B. Mennucci, H. P. Hratchian, 
 J. V. Ortiz, A. F. Izmaylov, J. L. Sonnenberg, D. Williams-Young, 
 F. Ding, F. Lipparini, F. Egidi, J. Goings, B. Peng, A. Petrone, 
 T. Henderson, D. Ranasinghe, V. G. Zakrzewski, J. Gao, N. Rega, 
 G. Zheng, W. Liang, M. Hada, M. Ehara, K. Toyota, R. Fukuda, 
 J. Hasegawa, M. Ishida, T. Nakajima, Y. Honda, O. Kitao, H. Nakai, 
 T. Vreven, K. Throssell, J. A. Montgomery, Jr., J. E. Peralta, 
 F. Ogliaro, M. J. Bearpark, J. J. Heyd, E. N. Brothers, K. N. Kudin, 
 V. N. Staroverov, T. A. Keith, R. Kobayashi, J. Normand, 
 K. Raghavachari, A. P. Rendell, J. C. Burant, S. S. Iyengar, 
 J. Tomasi, M. Cossi, J. M. Millam, M. Klene, C. Adamo, R. Cammi, 
 J. W. Ochterski, R. L. Martin, K. Morokuma, O. Farkas, 
 J. B. Foresman, and D. J. Fox, Gaussian, Inc., Wallingford CT, 2016.
 
 ******************************************
 Gaussian 16:  ES64L-G16RevA.03 25-Dec-2016
                11-Feb-2020 
 ******************************************
 %chk=checkpoint.chk
 %mem=3GB
 %nprocshared=4
 Will use up to    4 processors via shared memory.
 ----------------------------------------
 #t pop=none jul-cc-pvdz guess=read ub97d
 ----------------------------------------
 ------------------------
 theory_abbreviation b97d
 ------------------------
 Symbolic Z-matrix:
 Charge =  0 Multiplicity = 6
 O                    -0.25322  -0.27386  -0.8179 
 C                    -1.10716  -1.19819  -0.64358 
 C                    -2.89316  -0.22825   0.53623 
 C                    -2.61595   0.93825  -0.10324 
 C                    -3.18851   1.25818  -1.45236 
 Fe                    1.45882   0.14491  -0.00719 
 Cl                    2.03609   2.03921  -0.92331 
 C                    -1.70568   1.98658   0.45111 
 Cl                    2.67473  -1.59314  -0.55316 
 Cl                    1.14931   0.28925   2.16962 
 H                    -3.62971  -0.88126   0.07055 
 H                    -2.24474   2.93926   0.53514 
 H                    -1.28618   1.73772   1.42478 
 H                    -0.87625   2.16405  -0.24646 
 H                    -3.73937   2.20599  -1.39946 
 H                    -2.3861    1.40973  -2.18676 
 H                    -3.87349   0.48877  -1.81638 
 C                    -2.6466   -0.47869   2.0053 
 H                    -3.40432   0.05066   2.59752 
 H                    -2.73668  -1.53957   2.25064 
 H                    -1.66647  -0.13501   2.34294 
 C                    -0.85586  -2.2472    0.40459 
 H                    -1.7311   -2.87137   0.58897 
 H                    -0.05743  -2.88046  -0.00923 
 H                    -0.48138  -1.82255   1.3353 
 C                    -1.8755   -1.63662  -1.86396 
 H                    -1.21032  -2.33353  -2.39307 
 H                    -2.79452  -2.1704   -1.61773 
 H                    -2.07731  -0.80371  -2.53464 
 
                    Distance matrix (angstroms):
                    1          2          3          4          5
     1  O    0.000000
     2  C    1.270426   0.000000
     3  C    2.967323   2.350001   0.000000
     4  C    2.749989   2.670724   1.358856   0.000000
     5  C    3.371297   3.319622   2.500239   1.500101   0.000000
     6  Fe   1.940024   2.965329   4.401621   4.152392   4.992552
     7  Cl   3.256125   4.520954   5.618636   4.850367   5.309081
     8  C    2.971464   3.420421   2.514515   1.494954   2.520432
     9  Cl   3.222334   3.803532   5.835327   5.882313   6.581500
    10  Cl   3.348048   3.901052   4.390590   4.445702   5.733607
    11  H    3.543860   2.640768   1.088941   2.090105   2.662916
    12  H    4.015102   4.449940   3.233198   2.132929   2.768922
    13  H    3.184817   3.595786   2.690148   2.177677   3.482349
    14  H    2.580335   3.393475   3.225463   2.132990   2.760678
    15  H    4.317538   4.369015   3.223115   2.132934   1.097536
    16  H    3.042606   3.289123   3.217878   2.148524   1.098259
    17  H    3.832093   3.445847   2.647628   2.172157   1.092560
    18  C    3.706839   3.147076   1.510520   2.540591   3.907145
    19  H    4.658307   4.164283   2.141959   2.950167   4.231575
    20  H    4.145539   3.338916   2.164081   3.419785   4.663020
    21  H    3.465171   3.219074   2.185782   2.834993   4.319938
    22  C    2.398270   1.504072   2.871255   3.674633   4.601874
    23  H    3.303095   2.169793   2.887774   3.971814   4.831587
    24  H    2.736167   2.081914   3.920852   4.597541   5.386522
    25  H    2.662090   2.167342   2.999500   3.774630   4.958883
    26  C    2.362865   1.507282   2.963117   3.205985   3.205193
    27  H    2.763949   2.088146   3.980569   4.233629   4.206962
    28  H    3.270289   2.177462   2.901931   3.462549   3.455100
    29  H    2.560326   2.161697   3.229092   3.039125   2.580215
                    6          7          8          9         10
     6  Fe   0.000000
     7  Cl   2.181944   0.000000
     8  C    3.689961   3.986554   0.000000
     9  Cl   2.190279   3.706591   5.745506   0.000000
    10  Cl   2.203440   3.662646   3.739668   3.644698   0.000000
    11  H    5.191551   6.451213   3.474364   6.375084   5.349315
    12  H    4.671068   4.611144   1.097845   6.777035   4.605826
    13  H    3.481754   4.079449   1.089006   5.540364   2.929923
    14  H    3.096245   2.992561   1.098207   5.178800   3.668137
    15  H    5.762607   5.797452   2.758382   7.502682   6.349125
    16  H    4.597138   4.642012   2.784616   6.107194   5.721242
    17  H    5.641358   6.174506   3.476253   6.986359   6.415331
    18  C    4.614487   6.069937   3.062408   6.008682   3.876294
    19  H    5.517569   6.778545   3.352648   7.041569   4.579909
    20  H    5.053465   6.757288   4.090836   6.094877   4.295584
    21  H    3.920319   5.394860   2.842821   5.418443   2.852828
    22  C    3.354028   5.338538   4.318475   3.716196   3.683695
    23  H    4.430458   6.371224   4.859964   4.727545   4.559025
    24  H    3.384064   5.424160   5.159130   3.068838   4.031207
    25  H    3.072061   5.133435   4.097577   3.685092   2.795521
    26  C    4.211781   5.449496   4.303013   4.735465   5.397053
    27  H    4.354234   5.640936   5.195961   4.361997   5.767573
    28  H    5.103469   6.444983   4.769287   5.601716   5.995635
    29  H    4.448833   5.253441   4.103482   5.208774   5.808246
                   11         12         13         14         15
    11  H    0.000000
    12  H    4.090280   0.000000
    13  H    3.766309   1.775950   0.000000
    14  H    4.117760   1.756309   1.772812   0.000000
    15  H    3.421120   2.552314   3.770111   3.086845   0.000000
    16  H    3.448282   3.125412   3.789538   2.571649   1.756477
    17  H    2.344552   3.766615   4.331180   3.775530   1.772184
    18  C    2.207218   3.742357   2.664617   3.897260   4.471464
    19  H    2.702745   3.733912   2.950934   4.352681   4.553411
    20  H    2.446150   4.821292   3.677849   4.838751   5.325203
    21  H    3.094339   3.612982   2.120074   3.551774   4.876750
    22  C    3.109924   5.370797   4.135885   4.459085   5.603583
    23  H    2.798926   5.833537   4.705335   5.175342   5.810898
    24  H    4.094424   6.240977   4.989361   5.116035   6.431279
    25  H    3.521022   5.140485   3.651196   4.307076   5.858545
    26  C    2.718486   5.179838   4.748603   4.249689   4.295974
    27  H    3.745923   6.119375   5.581821   4.994768   5.290610
    28  H    2.282474   5.571871   5.177382   4.934326   4.482537
    29  H    3.033644   4.843707   4.770931   3.935217   3.620690
                   16         17         18         19         20
    16  H    0.000000
    17  H    1.788204   0.000000
[...]
 ---------------------------------------------------------------------
 Rotational constants (GHZ):           0.5754276           0.3304734           0.3108768
   427 basis functions,  1056 primitive gaussians,   461 cartesian basis functions
    77 alpha electrons       72 beta electrons
       nuclear repulsion energy      1635.4479493464 Hartrees.
 NAtoms=   29 NActive=   29 NUniq=   29 SFac= 1.00D+00 NAtFMM=   60 NAOKFM=F Big=F
 Nuclear repulsion after empirical dispersion term =     1635.4454886247 Hartrees.
 Initial guess from the checkpoint file:  "checkpoint.chk"
 B after Tr=     0.000000    0.000000    0.000000
         Rot=    1.000000    0.000000    0.000000    0.000000 Ang=   0.00 deg.
 Initial guess <Sx>= 0.0000 <Sy>= 0.0000 <Sz>= 2.5000 <S**2>= 8.7616 S= 2.5019
 SCF Done:  E(UM06L) =  -3034.20986172     A.U. after   17 cycles
            NFock= 17  Conv=0.73D-08     -V/T= 2.0020
 <Sx>= 0.0000 <Sy>= 0.0000 <Sz>= 2.5000 <S**2>= 8.7616 S= 2.5019
 <L.S>= 0.000000000000E+00
 Annihilation of the first spin contaminant:
 S**2 before annihilation     8.7616,   after     8.7500
 1\1\GINC-HOLY7C04207\SP\UM06L\Jul-CC-pVDZ\C8H16Cl3Fe1O1(6)\EKWAN\11-Fe
 b-2020\0\\#t pop=none jul-cc-pvdz guess=read um06l empiricaldispersion
 =gd3\\theory_abbreviation m06l_d3\\0,6\O,0,-0.253218,-0.273864,-0.8178
 95\C,0,-1.107162,-1.198188,-0.643576\C,0,-2.893156,-0.228246,0.53623\C
 ,0,-2.615947,0.938252,-0.103244\C,0,-3.18851,1.25818,-1.452362\Fe,0,1.
 458822,0.144911,-0.007192\Cl,0,2.036089,2.03921,-0.923311\C,0,-1.70567
 5,1.986575,0.451113\Cl,0,2.674729,-1.593137,-0.55316\Cl,0,1.149308,0.2
 89249,2.169621\H,0,-3.629707,-0.88126,0.070551\H,0,-2.244736,2.939264,
 0.535143\H,0,-1.286181,1.737716,1.42478\H,0,-0.876249,2.164051,-0.2464
 64\H,0,-3.739369,2.205989,-1.399459\H,0,-2.386097,1.409731,-2.186758\H
 ,0,-3.873488,0.488774,-1.816378\C,0,-2.646601,-0.478686,2.005298\H,0,-
 3.404322,0.050655,2.597519\H,0,-2.736681,-1.539566,2.25064\H,0,-1.6664
 69,-0.135005,2.342936\C,0,-0.855856,-2.247202,0.404588\H,0,-1.731102,-
 2.871367,0.588971\H,0,-0.057432,-2.880458,-0.009225\H,0,-0.481377,-1.8
 22553,1.335296\C,0,-1.875495,-1.636615,-1.863963\H,0,-1.210317,-2.3335
 26,-2.393067\H,0,-2.794521,-2.170398,-1.617725\H,0,-2.077308,-0.803713
 ,-2.534644\\Version=ES64L-G16RevA.03\HF=-3034.2098617\S2=8.7616\S2-1=0
 .\S2A=8.750043\RMSD=7.322e-09\PG=C01 [X(C8H16Cl3Fe1O1)]\\@


 IF YOU GET CONFUSED, LOGIC OUT YOUR DILEMMA

           --  PICKER X-RAY CORP.    DIGITAL PRINTER MANUAL CA. 1964
 Job cpu time:       0 days  1 hours 15 minutes 35.4 seconds.
 Elapsed time:       0 days  0 hours 18 minutes 57.1 seconds.
 File lengths (MBytes):  RWF=    174 Int=      0 D2E=      0 Chk=     13 Scr=      1
 Normal termination of Gaussian 16 at Tue Feb 11 23:29:19 2020.
 Initial command:
 /n/sw/g16_nehalem/g16/l1.exe "/scratch/Gau-411192.inp" -scrdir="/scratch/"
 Entering Link 1 = /n/sw/g16_nehalem/g16/l1.exe PID=      8160.
  
 Copyright (c) 1988,1990,1992,1993,1995,1998,2003,2009,2016,
            Gaussian, Inc.  All Rights Reserved.
  
 This is part of the Gaussian(R) 16 program.  It is based on
 the Gaussian(R) 09 system (copyright 2009, Gaussian, Inc.),
 the Gaussian(R) 03 system (copyright 2003, Gaussian, Inc.),
 the Gaussian(R) 98 system (copyright 1998, Gaussian, Inc.),
 the Gaussian(R) 94 system (copyright 1995, Gaussian, Inc.),
 the Gaussian 92(TM) system (copyright 1992, Gaussian, Inc.),
 the Gaussian 90(TM) system (copyright 1990, Gaussian, Inc.),
 the Gaussian 88(TM) system (copyright 1988, Gaussian, Inc.),
 the Gaussian 86(TM) system (copyright 1986, Carnegie Mellon
 University), and the Gaussian 82(TM) system (copyright 1983,
 Carnegie Mellon University). Gaussian is a federally registered
 trademark of Gaussian, Inc.
  
 This software contains proprietary and confidential information,
 including trade secrets, belonging to Gaussian, Inc.
  
 This software is provided under written license and may be
 used, copied, transmitted, or stored only in accord with that
 written license.
  
 The following legend is applicable only to US Government
 contracts under FAR:
  
                    RESTRICTED RIGHTS LEGEND
  
 Use, reproduction and disclosure by the US Government is
 subject to restrictions as set forth in subparagraphs (a)
 and (c) of the Commercial Computer Software - Restricted
 Rights clause in FAR 52.227-19.
  
 Gaussian, Inc.
 340 Quinnipiac St., Bldg. 40, Wallingford CT 06492
  
  
 ---------------------------------------------------------------
 Warning -- This program may not be used in any manner that
 competes with the business of Gaussian, Inc. or will provide
 assistance to any competitor of Gaussian, Inc.  The licensee
 of this program is prohibited from giving any competitor of
 Gaussian, Inc. access to this program.  By using this program,
 the user acknowledges that Gaussian, Inc. is engaged in the
 business of creating and licensing software in the field of
 computational chemistry and represents and warrants to the
 licensee that it is not a competitor of Gaussian, Inc. and that
 it will not use this program in any manner prohibited above.
 ---------------------------------------------------------------
  

 Cite this work as:
 Gaussian 16, Revision A.03,
 M. J. Frisch, G. W. Trucks, H. B. Schlegel, G. E. Scuseria, 
 M. A. Robb, J. R. Cheeseman, G. Scalmani, V. Barone, 
 G. A. Petersson, H. Nakatsuji, X. Li, M. Caricato, A. V. Marenich, 
 J. Bloino, B. G. Janesko, R. Gomperts, B. Mennucci, H. P. Hratchian, 
 J. V. Ortiz, A. F. Izmaylov, J. L. Sonnenberg, D. Williams-Young, 
 F. Ding, F. Lipparini, F. Egidi, J. Goings, B. Peng, A. Petrone, 
 T. Henderson, D. Ranasinghe, V. G. Zakrzewski, J. Gao, N. Rega, 
 G. Zheng, W. Liang, M. Hada, M. Ehara, K. Toyota, R. Fukuda, 
 J. Hasegawa, M. Ishida, T. Nakajima, Y. Honda, O. Kitao, H. Nakai, 
 T. Vreven, K. Throssell, J. A. Montgomery, Jr., J. E. Peralta, 
 F. Ogliaro, M. J. Bearpark, J. J. Heyd, E. N. Brothers, K. N. Kudin, 
 V. N. Staroverov, T. A. Keith, R. Kobayashi, J. Normand, 
 K. Raghavachari, A. P. Rendell, J. C. Burant, S. S. Iyengar, 
 J. Tomasi, M. Cossi, J. M. Millam, M. Klene, C. Adamo, R. Cammi, 
 J. W. Ochterski, R. L. Martin, K. Morokuma, O. Farkas, 
 J. B. Foresman, and D. J. Fox, Gaussian, Inc., Wallingford CT, 2016.
 
 ******************************************
 Gaussian 16:  ES64L-G16RevA.03 25-Dec-2016
                11-Feb-2020 
 ******************************************
 %chk=checkpoint.chk
 %mem=3GB
 %nprocshared=4
 Will use up to    4 processors via shared memory.
 -------------------------------------------------------------------
 #t pop=none jul-cc-pvdz guess=read ub97d3 empiricaldispersion=gd3bj
 -------------------------------------------------------------------
 ------------------------------
 theory_abbreviation b97d3_d3bj
 ------------------------------
 Symbolic Z-matrix:
 Charge =  0 Multiplicity = 6
 O                    -0.25322  -0.27386  -0.8179 
 C                    -1.10716  -1.19819  -0.64358 
 C                    -2.89316  -0.22825   0.53623 
 C                    -2.61595   0.93825  -0.10324 
 C                    -3.18851   1.25818  -1.45236 
 Fe                    1.45882   0.14491  -0.00719 
 Cl                    2.03609   2.03921  -0.92331 
 C                    -1.70568   1.98658   0.45111 
 Cl                    2.67473  -1.59314  -0.55316 
 Cl                    1.14931   0.28925   2.16962 
 H                    -3.62971  -0.88126   0.07055 
 H                    -2.24474   2.93926   0.53514 
 H                    -1.28618   1.73772   1.42478 
 H                    -0.87625   2.16405  -0.24646 
 H                    -3.73937   2.20599  -1.39946 
 H                    -2.3861    1.40973  -2.18676 
 H                    -3.87349   0.48877  -1.81638 
 C                    -2.6466   -0.47869   2.0053 
 H                    -3.40432   0.05066   2.59752 
 H                    -2.73668  -1.53957   2.25064 
 H                    -1.66647  -0.13501   2.34294 
 C                    -0.85586  -2.2472    0.40459 
 H                    -1.7311   -2.87137   0.58897 
 H                    -0.05743  -2.88046  -0.00923 
 H                    -0.48138  -1.82255   1.3353 
 C                    -1.8755   -1.63662  -1.86396 
 H                    -1.21032  -2.33353  -2.39307 
 H                    -2.79452  -2.1704   -1.61773 
 H                    -2.07731  -0.80371  -2.53464 
 
                    Distance matrix (angstroms):
                    1          2          3          4          5
     1  O    0.000000
     2  C    1.270426   0.000000
     3  C    2.967323   2.350001   0.000000
     4  C    2.749989   2.670724   1.358856   0.000000
     5  C    3.371297   3.319622   2.500239   1.500101   0.000000
     6  Fe   1.940024   2.965329   4.401621   4.152392   4.992552
     7  Cl   3.256125   4.520954   5.618636   4.850367   5.309081
     8  C    2.971464   3.420421   2.514515   1.494954   2.520432
     9  Cl   3.222334   3.803532   5.835327   5.882313   6.581500
    10  Cl   3.348048   3.901052   4.390590   4.445702   5.733607
    11  H    3.543860   2.640768   1.088941   2.090105   2.662916
    12  H    4.015102   4.449940   3.233198   2.132929   2.768922
    13  H    3.184817   3.595786   2.690148   2.177677   3.482349
    14  H    2.580335   3.393475   3.225463   2.132990   2.760678
    15  H    4.317538   4.369015   3.223115   2.132934   1.097536
    16  H    3.042606   3.289123   3.217878   2.148524   1.098259
    17  H    3.832093   3.445847   2.647628   2.172157   1.092560
    18  C    3.706839   3.147076   1.510520   2.540591   3.907145
    19  H    4.658307   4.164283   2.141959   2.950167   4.231575
    20  H    4.145539   3.338916   2.164081   3.419785   4.663020
    21  H    3.465171   3.219074   2.185782   2.834993   4.319938
    22  C    2.398270   1.504072   2.871255   3.674633   4.601874
    23  H    3.303095   2.169793   2.887774   3.971814   4.831587
    24  H    2.736167   2.081914   3.920852   4.597541   5.386522
    25  H    2.662090   2.167342   2.999500   3.774630   4.958883
    26  C    2.362865   1.507282   2.963117   3.205985   3.205193
    27  H    2.763949   2.088146   3.980569   4.233629   4.206962
    28  H    3.270289   2.177462   2.901931   3.462549   3.455100
    29  H    2.560326   2.161697   3.229092   3.039125   2.580215
                    6          7          8          9         10
     6  Fe   0.000000
     7  Cl   2.181944   0.000000
     8  C    3.689961   3.986554   0.000000
     9  Cl   2.190279   3.706591   5.745506   0.000000
    10  Cl   2.203440   3.662646   3.739668   3.644698   0.000000
    11  H    5.191551   6.451213   3.474364   6.375084   5.349315
    12  H    4.671068   4.611144   1.097845   6.777035   4.605826
    13  H    3.481754   4.079449   1.089006   5.540364   2.929923
    14  H    3.096245   2.992561   1.098207   5.178800   3.668137
    15  H    5.762607   5.797452   2.758382   7.502682   6.349125
    16  H    4.597138   4.642012   2.784616   6.107194   5.721242
    17  H    5.641358   6.174506   3.476253   6.986359   6.415331
    18  C    4.614487   6.069937   3.062408   6.008682   3.876294
    19  H    5.517569   6.778545   3.352648   7.041569   4.579909
    20  H    5.053465   6.757288   4.090836   6.094877   4.295584
    21  H    3.920319   5.394860   2.842821   5.418443   2.852828
    22  C    3.354028   5.338538   4.318475   3.716196   3.683695
    23  H    4.430458   6.371224   4.859964   4.727545   4.559025
    24  H    3.384064   5.424160   5.159130   3.068838   4.031207
    25  H    3.072061   5.133435   4.097577   3.685092   2.795521
    26  C    4.211781   5.449496   4.303013   4.735465   5.397053
    27  H    4.354234   5.640936   5.195961   4.361997   5.767573
    28  H    5.103469   6.444983   4.769287   5.601716   5.995635
    29  H    4.448833   5.253441   4.103482   5.208774   5.808246
                   11         12         13         14         15
    11  H    0.000000
    12  H    4.090280   0.000000
    13  H    3.766309   1.775950   0.000000
    14  H    4.117760   1.756309   1.772812   0.000000
    15  H    3.421120   2.552314   3.770111   3.086845   0.000000
    16  H    3.448282   3.125412   3.789538   2.571649   1.756477
    17  H    2.344552   3.766615   4.331180   3.775530   1.772184
    18  C    2.207218   3.742357   2.664617   3.897260   4.471464
    19  H    2.702745   3.733912   2.950934   4.352681   4.553411
    20  H    2.446150   4.821292   3.677849   4.838751   5.325203
    21  H    3.094339   3.612982   2.120074   3.551774   4.876750
    22  C    3.109924   5.370797   4.135885   4.459085   5.603583
    23  H    2.798926   5.833537   4.705335   5.175342   5.810898
    24  H    4.094424   6.240977   4.989361   5.116035   6.431279
    25  H    3.521022   5.140485   3.651196   4.307076   5.858545
    26  C    2.718486   5.179838   4.748603   4.249689   4.295974
    27  H    3.745923   6.119375   5.581821   4.994768   5.290610
    28  H    2.282474   5.571871   5.177382   4.934326   4.482537
    29  H    3.033644   4.843707   4.770931   3.935217   3.620690
                   16         17         18         19         20
    16  H    0.000000
    17  H    1.788204   0.000000
    18  C    4.605140   4.128733   0.000000
    19  H    5.076729   4.460331   1.097756   0.000000
    20  H    5.339641   4.684776   1.092599   1.759225   0.000000
    21  H    4.839649   4.749729   1.092142   1.766187   1.768238
    22  C    4.736018   4.639435   2.982732   4.072318   2.728765
    23  H    5.144073   4.654682   2.927293   3.920732   2.355000
    24  H    5.345096   5.401834   4.065785   5.156376   3.752780
    25  H    5.145919   5.175104   2.634972   3.694012   2.450374
    26  C    3.105662   2.917451   4.111762   5.008893   4.204880
    27  H    3.928994   3.923064   4.984873   5.950120   4.952189
    28  H    3.648004   2.876600   4.001258   4.803459   3.919891
    29  H    2.261793   2.326519   4.587026   5.369358   4.886225
                   21         22         23         24         25
    21  H    0.000000
    22  C    2.979205   0.000000
    23  H    3.250884   1.090704   0.000000
    24  H    3.957167   1.099880   1.777384   0.000000
    25  H    2.295125   1.089394   1.794108   1.762563   0.000000
    26  C    4.471747   2.561016   2.749972   2.879679   3.494767
    27  H    5.241306   2.821342   3.074580   2.703883   3.833163
    28  H    4.593709   2.802511   2.547886   3.253170   3.767222
    29  H    4.940318   3.494952   3.761917   3.843242   4.308302
                   26         27         28         29
    26  C    0.000000
    27  H    1.099135   0.000000
    28  H    1.090947   1.771290   0.000000
    29  H    1.088240   1.764099   1.795261   0.000000
 Framework group  C1[X(C8H16Cl3FeO)]
 Deg. of freedom    81
                         Standard orientation:                         
 ---------------------------------------------------------------------
 Center     Atomic      Atomic             Coordinates (Angstroms)
 Number     Number       Type             X           Y           Z
 ---------------------------------------------------------------------
      1          8           0       -0.253218   -0.273864   -0.817895
      2          6           0       -1.107162   -1.198188   -0.643576
      3          6           0       -2.893156   -0.228246    0.536230
      4          6           0       -2.615947    0.938252   -0.103244
      5          6           0       -3.188510    1.258180   -1.452362
      6         26           0        1.458822    0.144911   -0.007192
      7         17           0        2.036089    2.039210   -0.923311
      8          6           0       -1.705675    1.986575    0.451113
      9         17           0        2.674729   -1.593137   -0.553160
     10         17           0        1.149308    0.289249    2.169621
     11          1           0       -3.629707   -0.881260    0.070551
     12          1           0       -2.244736    2.939264    0.535143
     13          1           0       -1.286181    1.737716    1.424780
     14          1           0       -0.876249    2.164051   -0.246464
     15          1           0       -3.739369    2.205989   -1.399459
     16          1           0       -2.386097    1.409731   -2.186758
     17          1           0       -3.873488    0.488774   -1.816378
     18          6           0       -2.646601   -0.478686    2.005298
     19          1           0       -3.404322    0.050655    2.597519
     20          1           0       -2.736681   -1.539566    2.250640
     21          1           0       -1.666469   -0.135005    2.342936
     22          6           0       -0.855856   -2.247202    0.404588
     23          1           0       -1.731102   -2.871367    0.588971
     24          1           0       -0.057432   -2.880458   -0.009225
     25          1           0       -0.481377   -1.822553    1.335296
     26          6           0       -1.875495   -1.636615   -1.863963
     27          1           0       -1.210317   -2.333526   -2.393067
     28          1           0       -2.794521   -2.170398   -1.617725
     29          1           0       -2.077308   -0.803713   -2.534644
 ---------------------------------------------------------------------
 Rotational constants (GHZ):           0.5754276           0.3304734           0.3108768
   427 basis functions,  1056 primitive gaussians,   461 cartesian basis functions
    77 alpha electrons       72 beta electrons
       nuclear repulsion energy      1635.4479493464 Hartrees.
 NAtoms=   29 NActive=   29 NUniq=   29 SFac= 1.00D+00 NAtFMM=   60 NAOKFM=F Big=F
 Nuclear repulsion after empirical dispersion term =     1635.3459447474 Hartrees.
 Initial guess from the checkpoint file:  "checkpoint.chk"
 B after Tr=     0.000000    0.000000    0.000000
         Rot=    1.000000    0.000000    0.000000    0.000000 Ang=   0.00 deg.
 Initial guess <Sx>= 0.0000 <Sy>= 0.0000 <Sz>= 2.5000 <S**2>= 8.7616 S= 2.5019
 SCF Done:  E(UB97D3) =  -3034.63135265     A.U. after   16 cycles
            NFock= 16  Conv=0.85D-08     -V/T= 2.0019
 <Sx>= 0.0000 <Sy>= 0.0000 <Sz>= 2.5000 <S**2>= 8.7597 S= 2.5016
 <L.S>= 0.000000000000E+00
 Annihilation of the first spin contaminant:
 S**2 before annihilation     8.7597,   after     8.7500
 1\1\GINC-HOLY7C04207\SP\UB97D3\Jul-CC-pVDZ\C8H16Cl3Fe1O1(6)\EKWAN\11-F
 eb-2020\0\\#t pop=none jul-cc-pvdz guess=read ub97d3 empiricaldispersi
 on=gd3bj\\theory_abbreviation b97d3_d3bj\\0,6\O,0,-0.253218,-0.273864,
 -0.817895\C,0,-1.107162,-1.198188,-0.643576\C,0,-2.893156,-0.228246,0.
 53623\C,0,-2.615947,0.938252,-0.103244\C,0,-3.18851,1.25818,-1.452362\
 Fe,0,1.458822,0.144911,-0.007192\Cl,0,2.036089,2.03921,-0.923311\C,0,-
 1.705675,1.986575,0.451113\Cl,0,2.674729,-1.593137,-0.55316\Cl,0,1.149
 308,0.289249,2.169621\H,0,-3.629707,-0.88126,0.070551\H,0,-2.244736,2.
 939264,0.535143\H,0,-1.286181,1.737716,1.42478\H,0,-0.876249,2.164051,
 -0.246464\H,0,-3.739369,2.205989,-1.399459\H,0,-2.386097,1.409731,-2.1
 86758\H,0,-3.873488,0.488774,-1.816378\C,0,-2.646601,-0.478686,2.00529
 8\H,0,-3.404322,0.050655,2.597519\H,0,-2.736681,-1.539566,2.25064\H,0,
 -1.666469,-0.135005,2.342936\C,0,-0.855856,-2.247202,0.404588\H,0,-1.7
 31102,-2.871367,0.588971\H,0,-0.057432,-2.880458,-0.009225\H,0,-0.4813
 77,-1.822553,1.335296\C,0,-1.875495,-1.636615,-1.863963\H,0,-1.210317,
 -2.333526,-2.393067\H,0,-2.794521,-2.170398,-1.617725\H,0,-2.077308,-0
 .803713,-2.534644\\Version=ES64L-G16RevA.03\HF=-3034.6313527\S2=8.7596
 71\S2-1=0.\S2A=8.75003\RMSD=8.525e-09\PG=C01 [X(C8H16Cl3Fe1O1)]\\@


 I HAVE NOT FAILED, I HAVE ONLY DISCOVERED 10,000
 WAYS THAT DIDN'T WORK.  -- THOMAS A. EDISON
 Job cpu time:       0 days  0 hours 49 minutes 26.0 seconds.
 Elapsed time:       0 days  0 hours 12 minutes 23.9 seconds.
 File lengths (MBytes):  RWF=    174 Int=      0 D2E=      0 Chk=     13 Scr=      1
 Normal termination of Gaussian 16 at Tue Feb 11 23:41:44 2020.
