 Entering Gaussian System, Link 0=g16
 Input=simple-grid-195-235-b3lyp_d3bj-631gd-gas-singlepoint-DFT-juldz2-gas.gjf
 Output=simple-grid-195-235-b3lyp_d3bj-631gd-gas-singlepoint-DFT-juldz2-gas.out
 Initial command:
 /n/sw/g16_nehalem/g16/l1.exe "/scratch/Gau-382057.inp" -scrdir="/scratch/"
 Entering Link 1 = /n/sw/g16_nehalem/g16/l1.exe PID=    382073.
  
 Copyright (c) 1988,1990,1992,1993,1995,1998,2003,2009,2016,
            Gaussian, Inc.  All Rights Reserved.
  
 This is part of the Gaussian(R) 16 program.  It is based on
 the Gaussian(R) 09 system (copyright 2009, Gaussian, Inc.),
 the Gaussian(R) 03 system (copyright 2003, Gaussian, Inc.),
 the Gaussian(R) 98 system (copyright 1998, Gaussian, Inc.),
 the Gaussian(R) 94 system (copyright 1995, Gaussian, Inc.),
 the Gaussian 92(TM) system (copyright 1992, Gaussian, Inc.),
 the Gaussian 90(TM) system (copyright 1990, Gaussian, Inc.),
 the Gaussian 88(TM) system (copyright 1988, Gaussian, Inc.),
 the Gaussian 86(TM) system (copyright 1986, Carnegie Mellon
 University), and the Gaussian 82(TM) system (copyright 1983,
 Carnegie Mellon University). Gaussian is a federally registered
 trademark of Gaussian, Inc.
  
 This software contains proprietary and confidential information,
 including trade secrets, belonging to Gaussian, Inc.
  
 This software is provided under written license and may be
 used, copied, transmitted, or stored only in accord with that
 written license.
  
 The following legend is applicable only to US Government
 contracts under FAR:
  
                    RESTRICTED RIGHTS LEGEND
  
 Use, reproduction and disclosure by the US Government is
 subject to restrictions as set forth in subparagraphs (a)
 and (c) of the Commercial Computer Software - Restricted
 Rights clause in FAR 52.227-19.
  
 Gaussian, Inc.
 340 Quinnipiac St., Bldg. 40, Wallingford CT 06492
  
  
 ---------------------------------------------------------------
 Warning -- This program may not be used in any manner that
 competes with the business of Gaussian, Inc. or will provide
 assistance to any competitor of Gaussian, Inc.  The licensee
 of this program is prohibited from giving any competitor of
 Gaussian, Inc. access to this program.  By using this program,
 the user acknowledges that Gaussian, Inc. is engaged in the
 business of creating and licensing software in the field of
 computational chemistry and represents and warrants to the
 licensee that it is not a competitor of Gaussian, Inc. and that
 it will not use this program in any manner prohibited above.
 ---------------------------------------------------------------
  

 Cite this work as:
 Gaussian 16, Revision A.03,
 M. J. Frisch, G. W. Trucks, H. B. Schlegel, G. E. Scuseria, 
 M. A. Robb, J. R. Cheeseman, G. Scalmani, V. Barone, 
 G. A. Petersson, H. Nakatsuji, X. Li, M. Caricato, A. V. Marenich, 
 J. Bloino, B. G. Janesko, R. Gomperts, B. Mennucci, H. P. Hratchian, 
 J. V. Ortiz, A. F. Izmaylov, J. L. Sonnenberg, D. Williams-Young, 
 F. Ding, F. Lipparini, F. Egidi, J. Goings, B. Peng, A. Petrone, 
 T. Henderson, D. Ranasinghe, V. G. Zakrzewski, J. Gao, N. Rega, 
 G. Zheng, W. Liang, M. Hada, M. Ehara, K. Toyota, R. Fukuda, 
 J. Hasegawa, M. Ishida, T. Nakajima, Y. Honda, O. Kitao, H. Nakai, 
 T. Vreven, K. Throssell, J. A. Montgomery, Jr., J. E. Peralta, 
 F. Ogliaro, M. J. Bearpark, J. J. Heyd, E. N. Brothers, K. N. Kudin, 
 V. N. Staroverov, T. A. Keith, R. Kobayashi, J. Normand, 
 K. Raghavachari, A. P. Rendell, J. C. Burant, S. S. Iyengar, 
 J. Tomasi, M. Cossi, J. M. Millam, M. Klene, C. Adamo, R. Cammi, 
 J. W. Ochterski, R. L. Martin, K. Morokuma, O. Farkas, 
 J. B. Foresman, and D. J. Fox, Gaussian, Inc., Wallingford CT, 2016.
 
 ******************************************
 Gaussian 16:  ES64L-G16RevA.03 25-Dec-2016
                11-Feb-2020 
 ******************************************
 %chk=checkpoint.chk
 %mem=3GB
 %nprocshared=4
 Will use up to    4 processors via shared memory.
 --------------------------------
 #t pop=none jul-cc-pvdz upbe1pbe
 --------------------------------
 ------------------------
 theory_abbreviation pbe0
 ------------------------
 Symbolic Z-matrix:
 Charge =  0 Multiplicity = 6
 O                    -0.33681  -0.12773  -0.64012 
 C                    -1.28412  -1.0572   -0.55073 
 C                    -2.87753  -0.19409   0.16939 
 C                    -2.31964   1.0407   -0.16505 
 C                    -2.47506   1.63798  -1.51777 
 Fe                    1.40374   0.07965   0.02156 
 Cl                    1.9504    2.08463  -0.71448 
 C                    -1.55903   1.85764   0.81291 
 Cl                    2.56991  -1.61037  -0.76742 
 Cl                    1.24244   0.01561   2.2408 
 H                    -3.62187  -0.5664   -0.53186 
 H                    -2.28968   2.52698   1.29629 
 H                    -1.08472   1.26816   1.59727 
 H                    -0.80687   2.47908   0.32065 
 H                    -2.82702   2.67162  -1.40478 
 H                    -1.48557   1.69685  -1.98835 
 H                    -3.16941   1.09383  -2.15916 
 C                    -3.14363  -0.57184   1.61379 
 H                    -3.99423   0.00669   1.9944 
 H                    -3.40455  -1.62902   1.69776 
 H                    -2.29103  -0.38113   2.26858 
 C                    -1.01629  -2.17376   0.43781 
 H                    -1.85032  -2.87438   0.51516 
 H                    -0.14578  -2.71308   0.04005 
 H                    -0.7406   -1.79651   1.42243 
 C                    -1.75198  -1.5545   -1.90866 
 H                    -0.90238  -2.0978   -2.34035 
 H                    -2.6025   -2.23679  -1.83179 
 H                    -1.98925  -0.73448  -2.5871 
 
                    Distance matrix (angstroms):
                    1          2          3          4          5
     1  O    0.000000
     2  C    1.330150   0.000000
     3  C    2.667391   1.950000   0.000000
     4  C    2.350005   2.371126   1.395638   0.000000
     5  C    2.908619   3.101208   2.522893   1.486853   0.000000
     6  Fe   1.873596   2.973977   4.292566   3.849943   4.454549
     7  Cl   3.182982   4.512205   5.411351   4.430002   4.519890
     8  C    2.747138   3.229762   2.522334   1.484026   2.513839
     9  Cl   3.265498   3.899549   5.705970   5.594528   6.047023
    10  Cl   3.288504   3.914975   4.616149   4.418973   5.529793
    11  H    3.315989   2.388795   1.088302   2.100741   2.673297
    12  H    3.822417   4.155602   3.003288   2.084580   2.956959
    13  H    2.741128   3.171905   2.718677   2.163921   3.431214
    14  H    2.817708   3.673194   3.384728   2.143207   2.621080
    15  H    3.823899   4.124811   3.269998   2.110512   1.097753
    16  H    2.542921   3.113218   3.188898   2.109648   1.097266
    17  H    3.438500   3.281510   2.676958   2.168269   1.090693
    18  C    3.627064   2.894570   1.516509   2.538411   3.890626
    19  H    4.509483   3.867070   2.148944   2.921752   4.159842
    20  H    4.138910   3.143075   2.161633   3.431395   4.677268
    21  H    3.513360   3.069111   2.187591   2.818685   4.295007
    22  C    2.410371   1.515144   2.730452   3.520644   4.525668
    23  H    3.342078   2.181479   2.891130   4.001346   4.988434
    24  H    2.680145   2.094463   3.718131   4.342650   5.175331
    25  H    2.683659   2.176092   2.950310   3.614311   4.842401
    26  C    2.376463   1.519926   2.726881   3.177652   3.296602
    27  H    2.663047   2.105063   3.718081   4.073171   4.135945
    28  H    3.316863   2.184189   2.872800   3.687811   3.889565
    29  H    2.624775   2.179029   2.946069   3.021050   2.647275
                    6          7          8          9         10
     6  Fe   0.000000
     7  Cl   2.204660   0.000000
     8  C    3.544785   3.834124   0.000000
     9  Cl   2.199680   3.746947   5.618953   0.000000
    10  Cl   2.226016   3.676370   3.644190   3.668158   0.000000
    11  H    5.097105   6.173453   3.455384   6.283594   5.629195
    12  H    4.610400   4.713507   1.102515   6.707625   4.435642
    13  H    3.176144   3.901632   1.089802   5.218624   2.720049
    14  H    3.276210   2.971468   1.092817   5.413886   3.735679
    15  H    5.162573   4.862595   2.681138   6.918712   6.074956
    16  H    3.873398   3.684969   2.806826   5.373576   5.306058
    17  H    5.166993   5.411210   3.465531   6.495339   6.323492
    18  C    4.861920   6.198935   3.009109   6.276406   4.469429
    19  H    5.747654   6.855249   3.279046   7.302768   5.242465
    20  H    5.371118   6.948781   4.042980   6.463099   4.959254
    21  H    4.348881   5.741803   2.768916   5.861487   3.555776
    22  C    3.332818   5.316285   4.085027   3.825024   3.625734
    23  H    4.422540   6.367828   4.750312   4.772965   4.571105
    24  H    3.193852   5.289733   4.846240   3.040221   3.770437
    25  H    3.175005   5.183737   3.793962   3.973614   2.808194
    26  C    4.044104   5.327000   4.368850   4.470378   5.352549
    27  H    3.954498   5.317375   5.100949   3.842974   5.482115
    28  H    4.985058   6.375888   4.984737   5.317814   6.036790
    29  H    4.356642   5.193740   4.297003   4.986420   5.857906
                   11         12         13         14         15
    11  H    0.000000
    12  H    3.832217   0.000000
    13  H    3.786283   1.768374   0.000000
    14  H    4.233907   1.775639   1.781368   0.000000
    15  H    3.446531   2.757793   3.744006   2.663679   0.000000
    16  H    3.436201   3.482034   3.633331   2.530610   1.757904
    17  H    2.368381   3.842915   4.299660   3.694585   1.782062
    18  C    2.198308   3.229975   2.761339   4.054723   4.442077
    19  H    2.617062   3.121656   3.195979   4.367312   4.474217
    20  H    2.479425   4.321629   3.712868   5.051817   5.334300
    21  H    3.106106   3.066348   2.150818   3.765365   4.806260
    22  C    3.211376   4.945254   3.632613   4.659027   5.491051
    23  H    3.092150   5.475208   4.349453   5.457668   5.949641
    24  H    4.125353   5.799374   4.376854   5.241595   6.186406
    25  H    3.692443   4.594363   3.088887   4.415769   5.684232
    26  C    2.523577   5.217218   4.550188   4.704556   4.389732
    27  H    3.607145   6.044699   5.183412   5.295080   5.227521
    28  H    2.349288   5.707565   5.132915   5.486050   4.932066
    29  H    2.630162   5.080173   4.726280   4.492219   3.701527
                   16         17         18         19         20
    16  H    0.000000
    17  H    1.796695   0.000000
    18  C    4.568539   4.124357   0.000000
    19  H    5.001226   4.371985   1.096844   0.000000
    20  H    5.322712   4.727052   1.092135   1.763872   0.000000
    21  H    4.805018   4.748890   1.091806   1.768184   1.767199
    22  C    4.592181   4.696527   2.911130   4.005676   2.754635
    23  H    5.224629   4.963737   2.860300   3.883940   2.316263
    24  H    5.035568   5.335863   4.006083   5.101683   3.813501
    25  H    4.938826   5.203942   2.703883   3.763608   2.683372
    26  C    3.263223   3.014221   3.912801   4.764330   3.967719
    27  H    3.855311   3.919030   4.794476   5.725242   4.773562
    28  H    4.092138   3.394349   3.864834   4.648633   3.670201
    29  H    2.554130   2.217799   4.359654   5.055630   4.600358
                   21         22         23         24         25
    21  H    0.000000
    22  C    2.861850   0.000000
    23  H    3.079764   1.091998   0.000000
    24  H    3.873811   1.098574   1.776857   0.000000
    25  H    2.263420   1.089863   1.793436   1.762074   0.000000
    26  C    4.372264   2.535874   2.761642   2.778426   3.489649
    27  H    5.110525   2.781527   3.107345   2.572406   3.778286
    28  H    4.511486   2.769683   2.545680   3.125080   3.774983
    29  H    4.877864   3.488309   3.771275   3.770301   4.331677
                   26         27         28         29
    26  C    0.000000
    27  H    1.096975   0.000000
    28  H    1.093077   1.779993   0.000000
    29  H    1.090420   1.760919   1.789835   0.000000
 Framework group  C1[X(C8H16Cl3FeO)]
 Deg. of freedom    81
                         Standard orientation:                         
 ---------------------------------------------------------------------
 Center     Atomic      Atomic             Coordinates (Angstroms)
 Number     Number       Type             X           Y           Z
 ---------------------------------------------------------------------
      1          8           0       -0.336813   -0.127726   -0.640122
      2          6           0       -1.284118   -1.057200   -0.550733
      3          6           0       -2.877533   -0.194094    0.169391
      4          6           0       -2.319644    1.040698   -0.165054
      5          6           0       -2.475056    1.637982   -1.517766
      6         26           0        1.403744    0.079648    0.021556
      7         17           0        1.950398    2.084628   -0.714480
      8          6           0       -1.559028    1.857637    0.812906
      9         17           0        2.569910   -1.610370   -0.767422
     10         17           0        1.242435    0.015612    2.240796
     11          1           0       -3.621874   -0.566401   -0.531855
     12          1           0       -2.289681    2.526984    1.296291
     13          1           0       -1.084720    1.268164    1.597267
     14          1           0       -0.806871    2.479081    0.320650
     15          1           0       -2.827024    2.671623   -1.404776
     16          1           0       -1.485572    1.696853   -1.988348
     17          1           0       -3.169408    1.093833   -2.159162
     18          6           0       -3.143630   -0.571839    1.613794
     19          1           0       -3.994229    0.006686    1.994395
     20          1           0       -3.404553   -1.629019    1.697755
     21          1           0       -2.291028   -0.381134    2.268577
     22          6           0       -1.016288   -2.173762    0.437810
     23          1           0       -1.850323   -2.874377    0.515162
     24          1           0       -0.145779   -2.713080    0.040047
     25          1           0       -0.740603   -1.796512    1.422433
     26          6           0       -1.751980   -1.554501   -1.908662
     27          1           0       -0.902376   -2.097802   -2.340345
     28          1           0       -2.602503   -2.236790   -1.831792
     29          1           0       -1.989252   -0.734480   -2.587104
 ---------------------------------------------------------------------
 Rotational constants (GHZ):           0.5781555           0.3485204           0.3243822
   427 basis functions,  1056 primitive gaussians,   461 cartesian basis functions
    77 alpha electrons       72 beta electrons
       nuclear repulsion energy      1656.3577947813 Hartrees.
 NAtoms=   29 NActive=   29 NUniq=   29 SFac= 1.00D+00 NAtFMM=   60 NAOKFM=F Big=F
 ExpMin= 1.40D-02 ExpMax= 4.32D+06 ExpMxC= 4.91D+03 IAcc=3 IRadAn=         5 AccDes= 0.00D+00
 Harris functional with IExCor= 1009 and IRadAn=       5 diagonalized for initial guess.
 HarFok:  IExCor= 1009 AccDes= 0.00D+00 IRadAn=         5 IDoV= 1 UseB2=F ITyADJ=14
 ICtDFT=  3500011 ScaDFX=  1.000000  1.000000  1.000000  1.000000
 FoFCou: FMM=F IPFlag=           0 FMFlag=      100000 FMFlg1=           0
         NFxFlg=           0 DoJE=T BraDBF=F KetDBF=T FulRan=T
         wScrn=  0.000000 ICntrl=       500 IOpCl=  0 I1Cent=   200000004 NGrid=           0
         NMat0=    1 NMatS0=      1 NMatT0=    0 NMatD0=    1 NMtDS0=    0 NMtDT0=    0
 Petite list used in FoFCou.
 Initial guess <Sx>= 0.0000 <Sy>= 0.0000 <Sz>= 2.5000 <S**2>= 8.7500 S= 2.5000
 EnCoef did   100 forward-backward iterations
 Restarting incremental Fock formation.
 SCF Done:  E(UPBE1PBE) =  -3033.10394265     A.U. after   21 cycles
            NFock= 21  Conv=0.75D-08     -V/T= 2.0021
 <Sx>= 0.0000 <Sy>= 0.0000 <Sz>= 2.5000 <S**2>= 8.7621 S= 2.5020
 <L.S>= 0.000000000000E+00
 Annihilation of the first spin contaminant:
 S**2 before annihilation     8.7621,   after     8.7500
 1\1\GINC-HOLY7C06108\SP\UPBE1PBE\Jul-CC-pVDZ\C8H16Cl3Fe1O1(6)\EKWAN\11
 -Feb-2020\0\\#t pop=none jul-cc-pvdz upbe1pbe\\theory_abbreviation pbe
 0\\0,6\O,0,-0.336813,-0.127726,-0.640122\C,0,-1.284118,-1.0572,-0.5507
 33\C,0,-2.877533,-0.194094,0.169391\C,0,-2.319644,1.040698,-0.165054\C
 ,0,-2.475056,1.637982,-1.517766\Fe,0,1.403744,0.079648,0.021556\Cl,0,1
 .950398,2.084628,-0.71448\C,0,-1.559028,1.857637,0.812906\Cl,0,2.56991
 ,-1.61037,-0.767422\Cl,0,1.242435,0.015612,2.240796\H,0,-3.621874,-0.5
 66401,-0.531855\H,0,-2.289681,2.526984,1.296291\H,0,-1.08472,1.268164,
 1.597267\H,0,-0.806871,2.479081,0.32065\H,0,-2.827024,2.671623,-1.4047
 76\H,0,-1.485572,1.696853,-1.988348\H,0,-3.169408,1.093833,-2.159162\C
 ,0,-3.14363,-0.571839,1.613794\H,0,-3.994229,0.006686,1.994395\H,0,-3.
 404553,-1.629019,1.697755\H,0,-2.291028,-0.381134,2.268577\C,0,-1.0162
 88,-2.173762,0.43781\H,0,-1.850323,-2.874377,0.515162\H,0,-0.145779,-2
 .71308,0.040047\H,0,-0.740603,-1.796512,1.422433\C,0,-1.75198,-1.55450
 1,-1.908662\H,0,-0.902376,-2.097802,-2.340345\H,0,-2.602503,-2.23679,-
 1.831792\H,0,-1.989252,-0.73448,-2.587104\\Version=ES64L-G16RevA.03\HF
 =-3033.1039427\S2=8.762114\S2-1=0.\S2A=8.750046\RMSD=7.506e-09\PG=C01 
 [X(C8H16Cl3Fe1O1)]\\@


 THOSE WHO ASPIRE NOT TO GUESS AND DIVINE,
 BUT TO DISCOVER AND KNOW, WHO PROPOSE NOT TO DEVISE 
 MIMIC AND FABULOUS WORLDS OF THEIR OWN, BUT TO 
 EXAMINE AND DISSECT THE NATURE OF THIS VERY WORLD 
 ITSELF, MUST GO TO THE FACTS THEMSELVES FOR EVERYTHING.

                               -- FRANCIS BACON, 1620
 Job cpu time:       0 days  1 hours 32 minutes 42.1 seconds.
 Elapsed time:       0 days  0 hours 23 minutes 15.9 seconds.
 File lengths (MBytes):  RWF=    173 Int=      0 D2E=      0 Chk=     13 Scr=      1
 Normal termination of Gaussian 16 at Tue Feb 11 13:59:31 2020.
 Initial command:
 /n/sw/g16_nehalem/g16/l1.exe "/scratch/Gau-382057.inp" -scrdir="/scratch/"
 Entering Link 1 = /n/sw/g16_nehalem/g16/l1.exe PID=    384911.
  
 Copyright (c) 1988,1990,1992,1993,1995,1998,2003,2009,2016,
            Gaussian, Inc.  All Rights Reserved.
  
 This is part of the Gaussian(R) 16 program.  It is based on
 the Gaussian(R) 09 system (copyright 2009, Gaussian, Inc.),
 the Gaussian(R) 03 system (copyright 2003, Gaussian, Inc.),
 the Gaussian(R) 98 system (copyright 1998, Gaussian, Inc.),
 the Gaussian(R) 94 system (copyright 1995, Gaussian, Inc.),
 the Gaussian 92(TM) system (copyright 1992, Gaussian, Inc.),
 the Gaussian 90(TM) system (copyright 1990, Gaussian, Inc.),
 the Gaussian 88(TM) system (copyright 1988, Gaussian, Inc.),
 the Gaussian 86(TM) system (copyright 1986, Carnegie Mellon
 University), and the Gaussian 82(TM) system (copyright 1983,
 Carnegie Mellon University). Gaussian is a federally registered
 trademark of Gaussian, Inc.
  
 This software contains proprietary and confidential information,
 including trade secrets, belonging to Gaussian, Inc.
  
 This software is provided under written license and may be
 used, copied, transmitted, or stored only in accord with that
 written license.
  
 The following legend is applicable only to US Government
 contracts under FAR:
  
                    RESTRICTED RIGHTS LEGEND
  
 Use, reproduction and disclosure by the US Government is
 subject to restrictions as set forth in subparagraphs (a)
 and (c) of the Commercial Computer Software - Restricted
 Rights clause in FAR 52.227-19.
  
 Gaussian, Inc.
 340 Quinnipiac St., Bldg. 40, Wallingford CT 06492
  
  
 ---------------------------------------------------------------
 Warning -- This program may not be used in any manner that
 competes with the business of Gaussian, Inc. or will provide
 assistance to any competitor of Gaussian, Inc.  The licensee
 of this program is prohibited from giving any competitor of
 Gaussian, Inc. access to this program.  By using this program,
 the user acknowledges that Gaussian, Inc. is engaged in the
 business of creating and licensing software in the field of
 computational chemistry and represents and warrants to the
 licensee that it is not a competitor of Gaussian, Inc. and that
 it will not use this program in any manner prohibited above.
 ---------------------------------------------------------------
  

 Cite this work as:
 Gaussian 16, Revision A.03,
 M. J. Frisch, G. W. Trucks, H. B. Schlegel, G. E. Scuseria, 
 M. A. Robb, J. R. Cheeseman, G. Scalmani, V. Barone, 
 G. A. Petersson, H. Nakatsuji, X. Li, M. Caricato, A. V. Marenich, 
 J. Bloino, B. G. Janesko, R. Gomperts, B. Mennucci, H. P. Hratchian, 
 J. V. Ortiz, A. F. Izmaylov, J. L. Sonnenberg, D. Williams-Young, 
 F. Ding, F. Lipparini, F. Egidi, J. Goings, B. Peng, A. Petrone, 
 T. Henderson, D. Ranasinghe, V. G. Zakrzewski, J. Gao, N. Rega, 
 G. Zheng, W. Liang, M. Hada, M. Ehara, K. Toyota, R. Fukuda, 
 J. Hasegawa, M. Ishida, T. Nakajima, Y. Honda, O. Kitao, H. Nakai, 
 T. Vreven, K. Throssell, J. A. Montgomery, Jr., J. E. Peralta, 
 F. Ogliaro, M. J. Bearpark, J. J. Heyd, E. N. Brothers, K. N. Kudin, 
 V. N. Staroverov, T. A. Keith, R. Kobayashi, J. Normand, 
 K. Raghavachari, A. P. Rendell, J. C. Burant, S. S. Iyengar, 
 J. Tomasi, M. Cossi, J. M. Millam, M. Klene, C. Adamo, R. Cammi, 
 J. W. Ochterski, R. L. Martin, K. Morokuma, O. Farkas, 
 J. B. Foresman, and D. J. Fox, Gaussian, Inc., Wallingford CT, 2016.
 
 ******************************************
 Gaussian 16:  ES64L-G16RevA.03 25-Dec-2016
                11-Feb-2020 
 ******************************************
 %chk=checkpoint.chk
 %mem=3GB
 %nprocshared=4
 Will use up to    4 processors via shared memory.
 ---------------------------------------------------------------------
 #t pop=none jul-cc-pvdz guess=read upbe1pbe empiricaldispersion=gd3bj
 ---------------------------------------------------------------------
 -----------------------------
 theory_abbreviation pbe0_d3bj
 -----------------------------
 Symbolic Z-matrix:
 Charge =  0 Multiplicity = 6
 O                    -0.33681  -0.12773  -0.64012 
 C                    -1.28412  -1.0572   -0.55073 
 C                    -2.87753  -0.19409   0.16939 
 C                    -2.31964   1.0407   -0.16505 
 C                    -2.47506   1.63798  -1.51777 
 Fe                    1.40374   0.07965   0.02156 
 Cl                    1.9504    2.08463  -0.71448 
 C                    -1.55903   1.85764   0.81291 
 Cl                    2.56991  -1.61037  -0.76742 
 Cl                    1.24244   0.01561   2.2408 
 H                    -3.62187  -0.5664   -0.53186 
 H                    -2.28968   2.52698   1.29629 
 H                    -1.08472   1.26816   1.59727 
 H                    -0.80687   2.47908   0.32065 
 H                    -2.82702   2.67162  -1.40478 
 H                    -1.48557   1.69685  -1.98835 
 H                    -3.16941   1.09383  -2.15916 
 C                    -3.14363  -0.57184   1.61379 
 H                    -3.99423   0.00669   1.9944 
 H                    -3.40455  -1.62902   1.69776 
 H                    -2.29103  -0.38113   2.26858 
 C                    -1.01629  -2.17376   0.43781 
 H                    -1.85032  -2.87438   0.51516 
 H                    -0.14578  -2.71308   0.04005 
 H                    -0.7406   -1.79651   1.42243 
 C                    -1.75198  -1.5545   -1.90866 
 H                    -0.90238  -2.0978   -2.34035 
 H                    -2.6025   -2.23679  -1.83179 
 H                    -1.98925  -0.73448  -2.5871 
 
                    Distance matrix (angstroms):
                    1          2          3          4          5
     1  O    0.000000
     2  C    1.330150   0.000000
     3  C    2.667391   1.950000   0.000000
     4  C    2.350005   2.371126   1.395638   0.000000
     5  C    2.908619   3.101208   2.522893   1.486853   0.000000
     6  Fe   1.873596   2.973977   4.292566   3.849943   4.454549
     7  Cl   3.182982   4.512205   5.411351   4.430002   4.519890
     8  C    2.747138   3.229762   2.522334   1.484026   2.513839
     9  Cl   3.265498   3.899549   5.705970   5.594528   6.047023
    10  Cl   3.288504   3.914975   4.616149   4.418973   5.529793
    11  H    3.315989   2.388795   1.088302   2.100741   2.673297
    12  H    3.822417   4.155602   3.003288   2.084580   2.956959
    13  H    2.741128   3.171905   2.718677   2.163921   3.431214
    14  H    2.817708   3.673194   3.384728   2.143207   2.621080
    15  H    3.823899   4.124811   3.269998   2.110512   1.097753
    16  H    2.542921   3.113218   3.188898   2.109648   1.097266
    17  H    3.438500   3.281510   2.676958   2.168269   1.090693
    18  C    3.627064   2.894570   1.516509   2.538411   3.890626
    19  H    4.509483   3.867070   2.148944   2.921752   4.159842
    20  H    4.138910   3.143075   2.161633   3.431395   4.677268
    21  H    3.513360   3.069111   2.187591   2.818685   4.295007
    22  C    2.410371   1.515144   2.730452   3.520644   4.525668
    23  H    3.342078   2.181479   2.891130   4.001346   4.988434
    24  H    2.680145   2.094463   3.718131   4.342650   5.175331
    25  H    2.683659   2.176092   2.950310   3.614311   4.842401
    26  C    2.376463   1.519926   2.726881   3.177652   3.296602
    27  H    2.663047   2.105063   3.718081   4.073171   4.135945
    28  H    3.316863   2.184189   2.872800   3.687811   3.889565
    29  H    2.624775   2.179029   2.946069   3.021050   2.647275
                    6          7          8          9         10
     6  Fe   0.000000
     7  Cl   2.204660   0.000000
     8  C    3.544785   3.834124   0.000000
     9  Cl   2.199680   3.746947   5.618953   0.000000
    10  Cl   2.226016   3.676370   3.644190   3.668158   0.000000
    11  H    5.097105   6.173453   3.455384   6.283594   5.629195
    12  H    4.610400   4.713507   1.102515   6.707625   4.435642
    13  H    3.176144   3.901632   1.089802   5.218624   2.720049
    14  H    3.276210   2.971468   1.092817   5.413886   3.735679
    15  H    5.162573   4.862595   2.681138   6.918712   6.074956
    16  H    3.873398   3.684969   2.806826   5.373576   5.306058
    17  H    5.166993   5.411210   3.465531   6.495339   6.323492
    18  C    4.861920   6.198935   3.009109   6.276406   4.469429
    19  H    5.747654   6.855249   3.279046   7.302768   5.242465
    20  H    5.371118   6.948781   4.042980   6.463099   4.959254
    21  H    4.348881   5.741803   2.768916   5.861487   3.555776
    22  C    3.332818   5.316285   4.085027   3.825024   3.625734
    23  H    4.422540   6.367828   4.750312   4.772965   4.571105
    24  H    3.193852   5.289733   4.846240   3.040221   3.770437
    25  H    3.175005   5.183737   3.793962   3.973614   2.808194
    26  C    4.044104   5.327000   4.368850   4.470378   5.352549
    27  H    3.954498   5.317375   5.100949   3.842974   5.482115
    28  H    4.985058   6.375888   4.984737   5.317814   6.036790
    29  H    4.356642   5.193740   4.297003   4.986420   5.857906
                   11         12         13         14         15
    11  H    0.000000
    12  H    3.832217   0.000000
    13  H    3.786283   1.768374   0.000000
    14  H    4.233907   1.775639   1.781368   0.000000
    15  H    3.446531   2.757793   3.744006   2.663679   0.000000
    16  H    3.436201   3.482034   3.633331   2.530610   1.757904
    17  H    2.368381   3.842915   4.299660   3.694585   1.782062
    18  C    2.198308   3.229975   2.761339   4.054723   4.442077
    19  H    2.617062   3.121656   3.195979   4.367312   4.474217
    20  H    2.479425   4.321629   3.712868   5.051817   5.334300
    21  H    3.106106   3.066348   2.150818   3.765365   4.806260
    22  C    3.211376   4.945254   3.632613   4.659027   5.491051
    23  H    3.092150   5.475208   4.349453   5.457668   5.949641
    24  H    4.125353   5.799374   4.376854   5.241595   6.186406
    25  H    3.692443   4.594363   3.088887   4.415769   5.684232
    26  C    2.523577   5.217218   4.550188   4.704556   4.389732
    27  H    3.607145   6.044699   5.183412   5.295080   5.227521
    28  H    2.349288   5.707565   5.132915   5.486050   4.932066
    29  H    2.630162   5.080173   4.726280   4.492219   3.701527
                   16         17         18         19         20
    16  H    0.000000
    17  H    1.796695   0.000000
    18  C    4.568539   4.124357   0.000000
    19  H    5.001226   4.371985   1.096844   0.000000
    20  H    5.322712   4.727052   1.092135   1.763872   0.000000
    21  H    4.805018   4.748890   1.091806   1.768184   1.767199
    22  C    4.592181   4.696527   2.911130   4.005676   2.754635
    23  H    5.224629   4.963737   2.860300   3.883940   2.316263
    24  H    5.035568   5.335863   4.006083   5.101683   3.813501
    25  H    4.938826   5.203942   2.703883   3.763608   2.683372
    26  C    3.263223   3.014221   3.912801   4.764330   3.967719
    27  H    3.855311   3.919030   4.794476   5.725242   4.773562
    28  H    4.092138   3.394349   3.864834   4.648633   3.670201
    29  H    2.554130   2.217799   4.359654   5.055630   4.600358
                   21         22         23         24         25
    21  H    0.000000
    22  C    2.861850   0.000000
    23  H    3.079764   1.091998   0.000000
    24  H    3.873811   1.098574   1.776857   0.000000
    25  H    2.263420   1.089863   1.793436   1.762074   0.000000
    26  C    4.372264   2.535874   2.761642   2.778426   3.489649
    27  H    5.110525   2.781527   3.107345   2.572406   3.778286
    28  H    4.511486   2.769683   2.545680   3.125080   3.774983
    29  H    4.877864   3.488309   3.771275   3.770301   4.331677
                   26         27         28         29
    26  C    0.000000
    27  H    1.096975   0.000000
    28  H    1.093077   1.779993   0.000000
    29  H    1.090420   1.760919   1.789835   0.000000
 Framework group  C1[X(C8H16Cl3FeO)]
 Deg. of freedom    81
                         Standard orientation:                         
 ---------------------------------------------------------------------
 Center     Atomic      Atomic             Coordinates (Angstroms)
 Number     Number       Type             X           Y           Z
 ---------------------------------------------------------------------
      1          8           0       -0.336813   -0.127726   -0.640122
      2          6           0       -1.284118   -1.057200   -0.550733
      3          6           0       -2.877533   -0.194094    0.169391
      4          6           0       -2.319644    1.040698   -0.165054
      5          6           0       -2.475056    1.637982   -1.517766
      6         26           0        1.403744    0.079648    0.021556
      7         17           0        1.950398    2.084628   -0.714480
      8          6           0       -1.559028    1.857637    0.812906
      9         17           0        2.569910   -1.610370   -0.767422
     10         17           0        1.242435    0.015612    2.240796
     11          1           0       -3.621874   -0.566401   -0.531855
     12          1           0       -2.289681    2.526984    1.296291
     13          1           0       -1.084720    1.268164    1.597267
     14          1           0       -0.806871    2.479081    0.320650
     15          1           0       -2.827024    2.671623   -1.404776
     16          1           0       -1.485572    1.696853   -1.988348
     17          1           0       -3.169408    1.093833   -2.159162
     18          6           0       -3.143630   -0.571839    1.613794
     19          1           0       -3.994229    0.006686    1.994395
     20          1           0       -3.404553   -1.629019    1.697755
     21          1           0       -2.291028   -0.381134    2.268577
     22          6           0       -1.016288   -2.173762    0.437810
     23          1           0       -1.850323   -2.874377    0.515162
     24          1           0       -0.145779   -2.713080    0.040047
     25          1           0       -0.740603   -1.796512    1.422433
     26          6           0       -1.751980   -1.554501   -1.908662
     27          1           0       -0.902376   -2.097802   -2.340345
     28          1           0       -2.602503   -2.236790   -1.831792
     29          1           0       -1.989252   -0.734480   -2.587104
 ---------------------------------------------------------------------
 Rotational constants (GHZ):           0.5781555           0.3485204           0.3243822
   427 basis functions,  1056 primitive gaussians,   461 cartesian basis functions
    77 alpha electrons       72 beta electrons
       nuclear repulsion energy      1656.3577947813 Hartrees.
 NAtoms=   29 NActive=   29 NUniq=   29 SFac= 1.00D+00 NAtFMM=   60 NAOKFM=F Big=F
 Nuclear repulsion after empirical dispersion term =     1656.3205844525 Hartrees.
 Initial guess from the checkpoint file:  "checkpoint.chk"
 B after Tr=     0.000000    0.000000    0.000000
         Rot=    1.000000    0.000000    0.000000    0.000000 Ang=   0.00 deg.
 Initial guess <Sx>= 0.0000 <Sy>= 0.0000 <Sz>= 2.5000 <S**2>= 8.7621 S= 2.5020
 SCF Done:  E(UPBE1PBE) =  -3033.14115298     A.U. after    1 cycles
            NFock=  1  Conv=0.34D-08     -V/T= 2.0021
 <Sx>= 0.0000 <Sy>= 0.0000 <Sz>= 2.5000 <S**2>= 8.7621 S= 2.5020
 <L.S>= 0.000000000000E+00
 Annihilation of the first spin contaminant:
 S**2 before annihilation     8.7621,   after     8.7500
 1\1\GINC-HOLY7C06108\SP\UPBE1PBE\Jul-CC-pVDZ\C8H16Cl3Fe1O1(6)\EKWAN\11
 -Feb-2020\0\\#t pop=none jul-cc-pvdz guess=read upbe1pbe empiricaldisp
 ersion=gd3bj\\theory_abbreviation pbe0_d3bj\\0,6\O,0,-0.336813,-0.1277
 26,-0.640122\C,0,-1.284118,-1.0572,-0.550733\C,0,-2.877533,-0.194094,0
 .169391\C,0,-2.319644,1.040698,-0.165054\C,0,-2.475056,1.637982,-1.517
 766\Fe,0,1.403744,0.079648,0.021556\Cl,0,1.950398,2.084628,-0.71448\C,
 0,-1.559028,1.857637,0.812906\Cl,0,2.56991,-1.61037,-0.767422\Cl,0,1.2
 42435,0.015612,2.240796\H,0,-3.621874,-0.566401,-0.531855\H,0,-2.28968
 1,2.526984,1.296291\H,0,-1.08472,1.268164,1.597267\H,0,-0.806871,2.479
 081,0.32065\H,0,-2.827024,2.671623,-1.404776\H,0,-1.485572,1.696853,-1
 .988348\H,0,-3.169408,1.093833,-2.159162\C,0,-3.14363,-0.571839,1.6137
 94\H,0,-3.994229,0.006686,1.994395\H,0,-3.404553,-1.629019,1.697755\H,
 0,-2.291028,-0.381134,2.268577\C,0,-1.016288,-2.173762,0.43781\H,0,-1.
 850323,-2.874377,0.515162\H,0,-0.145779,-2.71308,0.040047\H,0,-0.74060
 3,-1.796512,1.422433\C,0,-1.75198,-1.554501,-1.908662\H,0,-0.902376,-2
 .097802,-2.340345\H,0,-2.602503,-2.23679,-1.831792\H,0,-1.989252,-0.73
 448,-2.587104\\Version=ES64L-G16RevA.03\HF=-3033.141153\S2=8.762114\S2
 -1=0.\S2A=8.750046\RMSD=3.367e-09\PG=C01 [X(C8H16Cl3Fe1O1)]\\@


 A SOLDIER'S LIFE IS A LIFE OF HONOR, BUT A DOG WOULD NOT LEAD IT.
 -- PRINCE RUPERT, FOUNDER OF THE HUDSON'S BAY COMPANY
 Job cpu time:       0 days  0 hours  4 minutes 39.9 seconds.
 Elapsed time:       0 days  0 hours  1 minutes 10.5 seconds.
 File lengths (MBytes):  RWF=    170 Int=      0 D2E=      0 Chk=     13 Scr=      1
 Normal termination of Gaussian 16 at Tue Feb 11 14:00:42 2020.
 Initial command:
 /n/sw/g16_nehalem/g16/l1.exe "/scratch/Gau-382057.inp" -scrdir="/scratch/"
 Entering Link 1 = /n/sw/g16_nehalem/g16/l1.exe PID=    385256.
  
 Copyright (c) 1988,1990,1992,1993,1995,1998,2003,2009,2016,
            Gaussian, Inc.  All Rights Reserved.
  
 This is part of the Gaussian(R) 16 program.  It is based on
 the Gaussian(R) 09 system (copyright 2009, Gaussian, Inc.),
 the Gaussian(R) 03 system (copyright 2003, Gaussian, Inc.),
 the Gaussian(R) 98 system (copyright 1998, Gaussian, Inc.),
 the Gaussian(R) 94 system (copyright 1995, Gaussian, Inc.),
 the Gaussian 92(TM) system (copyright 1992, Gaussian, Inc.),
 the Gaussian 90(TM) system (copyright 1990, Gaussian, Inc.),
 the Gaussian 88(TM) system (copyright 1988, Gaussian, Inc.),
 the Gaussian 86(TM) system (copyright 1986, Carnegie Mellon
 University), and the Gaussian 82(TM) system (copyright 1983,
 Carnegie Mellon University). Gaussian is a federally registered
 trademark of Gaussian, Inc.
  
 This software contains proprietary and confidential information,
 including trade secrets, belonging to Gaussian, Inc.
  
 This software is provided under written license and may be
 used, copied, transmitted, or stored only in accord with that
 written license.
  
 The following legend is applicable only to US Government
 contracts under FAR:
  
                    RESTRICTED RIGHTS LEGEND
  
 Use, reproduction and disclosure by the US Government is
 subject to restrictions as set forth in subparagraphs (a)
 and (c) of the Commercial Computer Software - Restricted
 Rights clause in FAR 52.227-19.
  
 Gaussian, Inc.
 340 Quinnipiac St., Bldg. 40, Wallingford CT 06492
  
  
 ---------------------------------------------------------------
 Warning -- This program may not be used in any manner that
 competes with the business of Gaussian, Inc. or will provide
 assistance to any competitor of Gaussian, Inc.  The licensee
 of this program is prohibited from giving any competitor of
 Gaussian, Inc. access to this program.  By using this program,
 the user acknowledges that Gaussian, Inc. is engaged in the
 business of creating and licensing software in the field of
 computational chemistry and represents and warrants to the
 licensee that it is not a competitor of Gaussian, Inc. and that
 it will not use this program in any manner prohibited above.
 ---------------------------------------------------------------
  

 Cite this work as:
 Gaussian 16, Revision A.03,
 M. J. Frisch, G. W. Trucks, H. B. Schlegel, G. E. Scuseria, 
 M. A. Robb, J. R. Cheeseman, G. Scalmani, V. Barone, 
 G. A. Petersson, H. Nakatsuji, X. Li, M. Caricato, A. V. Marenich, 
 J. Bloino, B. G. Janesko, R. Gomperts, B. Mennucci, H. P. Hratchian, 
 J. V. Ortiz, A. F. Izmaylov, J. L. Sonnenberg, D. Williams-Young, 
 F. Ding, F. Lipparini, F. Egidi, J. Goings, B. Peng, A. Petrone, 
 T. Henderson, D. Ranasinghe, V. G. Zakrzewski, J. Gao, N. Rega, 
 G. Zheng, W. Liang, M. Hada, M. Ehara, K. Toyota, R. Fukuda, 
 J. Hasegawa, M. Ishida, T. Nakajima, Y. Honda, O. Kitao, H. Nakai, 
 T. Vreven, K. Throssell, J. A. Montgomery, Jr., J. E. Peralta, 
 F. Ogliaro, M. J. Bearpark, J. J. Heyd, E. N. Brothers, K. N. Kudin, 
 V. N. Staroverov, T. A. Keith, R. Kobayashi, J. Normand, 
 K. Raghavachari, A. P. Rendell, J. C. Burant, S. S. Iyengar, 
 J. Tomasi, M. Cossi, J. M. Millam, M. Klene, C. Adamo, R. Cammi, 
 J. W. Ochterski, R. L. Martin, K. Morokuma, O. Farkas, 
 J. B. Foresman, and D. J. Fox, Gaussian, Inc., Wallingford CT, 2016.
 
 ******************************************
 Gaussian 16:  ES64L-G16RevA.03 25-Dec-2016
                11-Feb-2020 
 ******************************************
 %chk=checkpoint.chk
 %mem=3GB
 %nprocshared=4
 Will use up to    4 processors via shared memory.
 -----------------------------------------
 #t pop=none jul-cc-pvdz guess=read ub3lyp
 -----------------------------------------
 -------------------------
 theory_abbreviation b3lyp
 -------------------------
 Symbolic Z-matrix:
 Charge =  0 Multiplicity = 6
 O                    -0.33681  -0.12773  -0.64012 
 C                    -1.28412  -1.0572   -0.55073 
 C                    -2.87753  -0.19409   0.16939 
 C                    -2.31964   1.0407   -0.16505 
 C                    -2.47506   1.63798  -1.51777 
 Fe                    1.40374   0.07965   0.02156 
 Cl                    1.9504    2.08463  -0.71448 
 C                    -1.55903   1.85764   0.81291 
 Cl                    2.56991  -1.61037  -0.76742 
 Cl                    1.24244   0.01561   2.2408 
 H                    -3.62187  -0.5664   -0.53186 
 H                    -2.28968   2.52698   1.29629 
 H                    -1.08472   1.26816   1.59727 
 H                    -0.80687   2.47908   0.32065 
 H                    -2.82702   2.67162  -1.40478 
 H                    -1.48557   1.69685  -1.98835 
 H                    -3.16941   1.09383  -2.15916 
 C                    -3.14363  -0.57184   1.61379 
 H                    -3.99423   0.00669   1.9944 
 H                    -3.40455  -1.62902   1.69776 
 H                    -2.29103  -0.38113   2.26858 
 C                    -1.01629  -2.17376   0.43781 
 H                    -1.85032  -2.87438   0.51516 
 H                    -0.14578  -2.71308   0.04005 
 H                    -0.7406   -1.79651   1.42243 
 C                    -1.75198  -1.5545   -1.90866 
 H                    -0.90238  -2.0978   -2.34035 
 H                    -2.6025   -2.23679  -1.83179 
 H                    -1.98925  -0.73448  -2.5871 
 
                    Distance matrix (angstroms):
                    1          2          3          4          5
     1  O    0.000000
     2  C    1.330150   0.000000
     3  C    2.667391   1.950000   0.000000
     4  C    2.350005   2.371126   1.395638   0.000000
     5  C    2.908619   3.101208   2.522893   1.486853   0.000000
     6  Fe   1.873596   2.973977   4.292566   3.849943   4.454549
     7  Cl   3.182982   4.512205   5.411351   4.430002   4.519890
     8  C    2.747138   3.229762   2.522334   1.484026   2.513839
     9  Cl   3.265498   3.899549   5.705970   5.594528   6.047023
    10  Cl   3.288504   3.914975   4.616149   4.418973   5.529793
    11  H    3.315989   2.388795   1.088302   2.100741   2.673297
    12  H    3.822417   4.155602   3.003288   2.084580   2.956959
    13  H    2.741128   3.171905   2.718677   2.163921   3.431214
    14  H    2.817708   3.673194   3.384728   2.143207   2.621080
    15  H    3.823899   4.124811   3.269998   2.110512   1.097753
    16  H    2.542921   3.113218   3.188898   2.109648   1.097266
    17  H    3.438500   3.281510   2.676958   2.168269   1.090693
    18  C    3.627064   2.894570   1.516509   2.538411   3.890626
    19  H    4.509483   3.867070   2.148944   2.921752   4.159842
    20  H    4.138910   3.143075   2.161633   3.431395   4.677268
    21  H    3.513360   3.069111   2.187591   2.818685   4.295007
    22  C    2.410371   1.515144   2.730452   3.520644   4.525668
    23  H    3.342078   2.181479   2.891130   4.001346   4.988434
    24  H    2.680145   2.094463   3.718131   4.342650   5.175331
    25  H    2.683659   2.176092   2.950310   3.614311   4.842401
    26  C    2.376463   1.519926   2.726881   3.177652   3.296602
    27  H    2.663047   2.105063   3.718081   4.073171   4.135945
    28  H    3.316863   2.184189   2.872800   3.687811   3.889565
    29  H    2.624775   2.179029   2.946069   3.021050   2.647275
                    6          7          8          9         10
     6  Fe   0.000000
     7  Cl   2.204660   0.000000
     8  C    3.544785   3.834124   0.000000
     9  Cl   2.199680   3.746947   5.618953   0.000000
    10  Cl   2.226016   3.676370   3.644190   3.668158   0.000000
    11  H    5.097105   6.173453   3.455384   6.283594   5.629195
    12  H    4.610400   4.713507   1.102515   6.707625   4.435642
    13  H    3.176144   3.901632   1.089802   5.218624   2.720049
    14  H    3.276210   2.971468   1.092817   5.413886   3.735679
    15  H    5.162573   4.862595   2.681138   6.918712   6.074956
    16  H    3.873398   3.684969   2.806826   5.373576   5.306058
    17  H    5.166993   5.411210   3.465531   6.495339   6.323492
    18  C    4.861920   6.198935   3.009109   6.276406   4.469429
    19  H    5.747654   6.855249   3.279046   7.302768   5.242465
    20  H    5.371118   6.948781   4.042980   6.463099   4.959254
    21  H    4.348881   5.741803   2.768916   5.861487   3.555776
    22  C    3.332818   5.316285   4.085027   3.825024   3.625734
    23  H    4.422540   6.367828   4.750312   4.772965   4.571105
    24  H    3.193852   5.289733   4.846240   3.040221   3.770437
    25  H    3.175005   5.183737   3.793962   3.973614   2.808194
    26  C    4.044104   5.327000   4.368850   4.470378   5.352549
    27  H    3.954498   5.317375   5.100949   3.842974   5.482115
    28  H    4.985058   6.375888   4.984737   5.317814   6.036790
    29  H    4.356642   5.193740   4.297003   4.986420   5.857906
                   11         12         13         14         15
    11  H    0.000000
    12  H    3.832217   0.000000
    13  H    3.786283   1.768374   0.000000
    14  H    4.233907   1.775639   1.781368   0.000000
    15  H    3.446531   2.757793   3.744006   2.663679   0.000000
    16  H    3.436201   3.482034   3.633331   2.530610   1.757904
    17  H    2.368381   3.842915   4.299660   3.694585   1.782062
    18  C    2.198308   3.229975   2.761339   4.054723   4.442077
    19  H    2.617062   3.121656   3.195979   4.367312   4.474217
    20  H    2.479425   4.321629   3.712868   5.051817   5.334300
    21  H    3.106106   3.066348   2.150818   3.765365   4.806260
    22  C    3.211376   4.945254   3.632613   4.659027   5.491051
    23  H    3.092150   5.475208   4.349453   5.457668   5.949641
    24  H    4.125353   5.799374   4.376854   5.241595   6.186406
    25  H    3.692443   4.594363   3.088887   4.415769   5.684232
    26  C    2.523577   5.217218   4.550188   4.704556   4.389732
    27  H    3.607145   6.044699   5.183412   5.295080   5.227521
    28  H    2.349288   5.707565   5.132915   5.486050   4.932066
    29  H    2.630162   5.080173   4.726280   4.492219   3.701527
                   16         17         18         19         20
    16  H    0.000000
    17  H    1.796695   0.000000
    18  C    4.568539   4.124357   0.000000
    19  H    5.001226   4.371985   1.096844   0.000000
    20  H    5.322712   4.727052   1.092135   1.763872   0.000000
    21  H    4.805018   4.748890   1.091806   1.768184   1.767199
    22  C    4.592181   4.696527   2.911130   4.005676   2.754635
    23  H    5.224629   4.963737   2.860300   3.883940   2.316263
    24  H    5.035568   5.335863   4.006083   5.101683   3.813501
    25  H    4.938826   5.203942   2.703883   3.763608   2.683372
    26  C    3.263223   3.014221   3.912801   4.764330   3.967719
    27  H    3.855311   3.919030   4.794476   5.725242   4.773562
    28  H    4.092138   3.394349   3.864834   4.648633   3.670201
    29  H    2.554130   2.217799   4.359654   5.055630   4.600358
                   21         22         23         24         25
    21  H    0.000000
    22  C    2.861850   0.000000
    23  H    3.079764   1.091998   0.000000
    24  H    3.873811   1.098574   1.776857   0.000000
    25  H    2.263420   1.089863   1.793436   1.762074   0.000000
    26  C    4.372264   2.535874   2.761642   2.778426   3.489649
    27  H    5.110525   2.781527   3.107345   2.572406   3.778286
    28  H    4.511486   2.769683   2.545680   3.125080   3.774983
    29  H    4.877864   3.488309   3.771275   3.770301   4.331677
                   26         27         28         29
    26  C    0.000000
    27  H    1.096975   0.000000
    28  H    1.093077   1.779993   0.000000
    29  H    1.090420   1.760919   1.789835   0.000000
 Framework group  C1[X(C8H16Cl3FeO)]
 Deg. of freedom    81
                         Standard orientation:                         
 ---------------------------------------------------------------------
 Center     Atomic      Atomic             Coordinates (Angstroms)
 Number     Number       Type             X           Y           Z
 ---------------------------------------------------------------------
      1          8           0       -0.336813   -0.127726   -0.640122
      2          6           0       -1.284118   -1.057200   -0.550733
      3          6           0       -2.877533   -0.194094    0.169391
      4          6           0       -2.319644    1.040698   -0.165054
      5          6           0       -2.475056    1.637982   -1.517766
      6         26           0        1.403744    0.079648    0.021556
      7         17           0        1.950398    2.084628   -0.714480
      8          6           0       -1.559028    1.857637    0.812906
      9         17           0        2.569910   -1.610370   -0.767422
     10         17           0        1.242435    0.015612    2.240796
     11          1           0       -3.621874   -0.566401   -0.531855
     12          1           0       -2.289681    2.526984    1.296291
     13          1           0       -1.084720    1.268164    1.597267
     14          1           0       -0.806871    2.479081    0.320650
     15          1           0       -2.827024    2.671623   -1.404776
     16          1           0       -1.485572    1.696853   -1.988348
     17          1           0       -3.169408    1.093833   -2.159162
     18          6           0       -3.143630   -0.571839    1.613794
     19          1           0       -3.994229    0.006686    1.994395
     20          1           0       -3.404553   -1.629019    1.697755
     21          1           0       -2.291028   -0.381134    2.268577
     22          6           0       -1.016288   -2.173762    0.437810
     23          1           0       -1.850323   -2.874377    0.515162
     24          1           0       -0.145779   -2.713080    0.040047
     25          1           0       -0.740603   -1.796512    1.422433
     26          6           0       -1.751980   -1.554501   -1.908662
     27          1           0       -0.902376   -2.097802   -2.340345
     28          1           0       -2.602503   -2.236790   -1.831792
     29          1           0       -1.989252   -0.734480   -2.587104
 ---------------------------------------------------------------------
 Rotational constants (GHZ):           0.5781555           0.3485204           0.3243822
   427 basis functions,  1056 primitive gaussians,   461 cartesian basis functions
    77 alpha electrons       72 beta electrons
       nuclear repulsion energy      1656.3577947813 Hartrees.
 NAtoms=   29 NActive=   29 NUniq=   29 SFac= 1.00D+00 NAtFMM=   60 NAOKFM=F Big=F
 Initial guess from the checkpoint file:  "checkpoint.chk"
 B after Tr=     0.000000    0.000000    0.000000
         Rot=    1.000000    0.000000    0.000000    0.000000 Ang=   0.00 deg.
 Initial guess <Sx>= 0.0000 <Sy>= 0.0000 <Sz>= 2.5000 <S**2>= 8.7621 S= 2.5020
 SCF Done:  E(UB3LYP) =  -3034.31665579     A.U. after   15 cycles
            NFock= 15  Conv=0.51D-08     -V/T= 2.0024
 <Sx>= 0.0000 <Sy>= 0.0000 <Sz>= 2.5000 <S**2>= 8.7614 S= 2.5019
 <L.S>= 0.000000000000E+00
 Annihilation of the first spin contaminant:
 S**2 before annihilation     8.7614,   after     8.7500
 1\1\GINC-HOLY7C06108\SP\UB3LYP\Jul-CC-pVDZ\C8H16Cl3Fe1O1(6)\EKWAN\11-F
 eb-2020\0\\#t pop=none jul-cc-pvdz guess=read ub3lyp\\theory_abbreviat
 ion b3lyp\\0,6\O,0,-0.336813,-0.127726,-0.640122\C,0,-1.284118,-1.0572
 ,-0.550733\C,0,-2.877533,-0.194094,0.169391\C,0,-2.319644,1.040698,-0.
 165054\C,0,-2.475056,1.637982,-1.517766\Fe,0,1.403744,0.079648,0.02155
 6\Cl,0,1.950398,2.084628,-0.71448\C,0,-1.559028,1.857637,0.812906\Cl,0
 ,2.56991,-1.61037,-0.767422\Cl,0,1.242435,0.015612,2.240796\H,0,-3.621
 874,-0.566401,-0.531855\H,0,-2.289681,2.526984,1.296291\H,0,-1.08472,1
 .268164,1.597267\H,0,-0.806871,2.479081,0.32065\H,0,-2.827024,2.671623
 ,-1.404776\H,0,-1.485572,1.696853,-1.988348\H,0,-3.169408,1.093833,-2.
 159162\C,0,-3.14363,-0.571839,1.613794\H,0,-3.994229,0.006686,1.994395
 \H,0,-3.404553,-1.629019,1.697755\H,0,-2.291028,-0.381134,2.268577\C,0
 ,-1.016288,-2.173762,0.43781\H,0,-1.850323,-2.874377,0.515162\H,0,-0.1
 45779,-2.71308,0.040047\H,0,-0.740603,-1.796512,1.422433\C,0,-1.75198,
 -1.554501,-1.908662\H,0,-0.902376,-2.097802,-2.340345\H,0,-2.602503,-2
 .23679,-1.831792\H,0,-1.989252,-0.73448,-2.587104\\Version=ES64L-G16Re
 vA.03\HF=-3034.3166558\S2=8.761353\S2-1=0.\S2A=8.75004\RMSD=5.091e-09\
 PG=C01 [X(C8H16Cl3Fe1O1)]\\@


 WE ARE REACHING THE STAGE WHERE THE PROBLEMS WE MUST SOLVE ARE 
 GOING TO BECOME INSOLUBLE WITHOUT COMPUTERS.
 I DO NOT FEAR COMPUTERS.  I FEAR THE LACK OF THEM.

                                   -- ISSAC ASIMOV
 Job cpu time:       0 days  1 hours  3 minutes 29.7 seconds.
 Elapsed time:       0 days  0 hours 15 minutes 55.4 seconds.
 File lengths (MBytes):  RWF=    174 Int=      0 D2E=      0 Chk=     13 Scr=      1
 Normal termination of Gaussian 16 at Tue Feb 11 14:16:38 2020.
 Initial command:
 /n/sw/g16_nehalem/g16/l1.exe "/scratch/Gau-382057.inp" -scrdir="/scratch/"
 Entering Link 1 = /n/sw/g16_nehalem/g16/l1.exe PID=    386650.
  
 Copyright (c) 1988,1990,1992,1993,1995,1998,2003,2009,2016,
            Gaussian, Inc.  All Rights Reserved.
  
 This is part of the Gaussian(R) 16 program.  It is based on
 the Gaussian(R) 09 system (copyright 2009, Gaussian, Inc.),
 the Gaussian(R) 03 system (copyright 2003, Gaussian, Inc.),
 the Gaussian(R) 98 system (copyright 1998, Gaussian, Inc.),
 the Gaussian(R) 94 system (copyright 1995, Gaussian, Inc.),
 the Gaussian 92(TM) system (copyright 1992, Gaussian, Inc.),
 the Gaussian 90(TM) system (copyright 1990, Gaussian, Inc.),
 the Gaussian 88(TM) system (copyright 1988, Gaussian, Inc.),
 the Gaussian 86(TM) system (copyright 1986, Carnegie Mellon
 University), and the Gaussian 82(TM) system (copyright 1983,
 Carnegie Mellon University). Gaussian is a federally registered
 trademark of Gaussian, Inc.
  
 This software contains proprietary and confidential information,
 including trade secrets, belonging to Gaussian, Inc.
  
 This software is provided under written license and may be
 used, copied, transmitted, or stored only in accord with that
 written license.
  
 The following legend is applicable only to US Government
 contracts under FAR:
  
                    RESTRICTED RIGHTS LEGEND
  
 Use, reproduction and disclosure by the US Government is
 subject to restrictions as set forth in subparagraphs (a)
 and (c) of the Commercial Computer Software - Restricted
 Rights clause in FAR 52.227-19.
  
 Gaussian, Inc.
 340 Quinnipiac St., Bldg. 40, Wallingford CT 06492
  
  
 ---------------------------------------------------------------
 Warning -- This program may not be used in any manner that
 competes with the business of Gaussian, Inc. or will provide
 assistance to any competitor of Gaussian, Inc.  The licensee
 of this program is prohibited from giving any competitor of
 Gaussian, Inc. access to this program.  By using this program,
 the user acknowledges that Gaussian, Inc. is engaged in the
 business of creating and licensing software in the field of
 computational chemistry and represents and warrants to the
 licensee that it is not a competitor of Gaussian, Inc. and that
 it will not use this program in any manner prohibited above.
 ---------------------------------------------------------------
  

 Cite this work as:
 Gaussian 16, Revision A.03,
 M. J. Frisch, G. W. Trucks, H. B. Schlegel, G. E. Scuseria, 
 M. A. Robb, J. R. Cheeseman, G. Scalmani, V. Barone, 
 G. A. Petersson, H. Nakatsuji, X. Li, M. Caricato, A. V. Marenich, 
 J. Bloino, B. G. Janesko, R. Gomperts, B. Mennucci, H. P. Hratchian, 
 J. V. Ortiz, A. F. Izmaylov, J. L. Sonnenberg, D. Williams-Young, 
 F. Ding, F. Lipparini, F. Egidi, J. Goings, B. Peng, A. Petrone, 
 T. Henderson, D. Ranasinghe, V. G. Zakrzewski, J. Gao, N. Rega, 
 G. Zheng, W. Liang, M. Hada, M. Ehara, K. Toyota, R. Fukuda, 
 J. Hasegawa, M. Ishida, T. Nakajima, Y. Honda, O. Kitao, H. Nakai, 
 T. Vreven, K. Throssell, J. A. Montgomery, Jr., J. E. Peralta, 
 F. Ogliaro, M. J. Bearpark, J. J. Heyd, E. N. Brothers, K. N. Kudin, 
 V. N. Staroverov, T. A. Keith, R. Kobayashi, J. Normand, 
 K. Raghavachari, A. P. Rendell, J. C. Burant, S. S. Iyengar, 
 J. Tomasi, M. Cossi, J. M. Millam, M. Klene, C. Adamo, R. Cammi, 
 J. W. Ochterski, R. L. Martin, K. Morokuma, O. Farkas, 
 J. B. Foresman, and D. J. Fox, Gaussian, Inc., Wallingford CT, 2016.
 
 ******************************************
 Gaussian 16:  ES64L-G16RevA.03 25-Dec-2016
                11-Feb-2020 
 ******************************************
 %chk=checkpoint.chk
 %mem=3GB
 %nprocshared=4
 Will use up to    4 processors via shared memory.
 -------------------------------------------------------------------
 #t pop=none jul-cc-pvdz guess=read ub3lyp empiricaldispersion=gd3bj
 -------------------------------------------------------------------
 ------------------------------
 theory_abbreviation b3lyp_d3bj
 ------------------------------
 Symbolic Z-matrix:
 Charge =  0 Multiplicity = 6
 O                    -0.33681  -0.12773  -0.64012 
 C                    -1.28412  -1.0572   -0.55073 
 C                    -2.87753  -0.19409   0.16939 
 C                    -2.31964   1.0407   -0.16505 
 C                    -2.47506   1.63798  -1.51777 
 Fe                    1.40374   0.07965   0.02156 
 Cl                    1.9504    2.08463  -0.71448 
 C                    -1.55903   1.85764   0.81291 
 Cl                    2.56991  -1.61037  -0.76742 
 Cl                    1.24244   0.01561   2.2408 
 H                    -3.62187  -0.5664   -0.53186 
 H                    -2.28968   2.52698   1.29629 
 H                    -1.08472   1.26816   1.59727 
 H                    -0.80687   2.47908   0.32065 
 H                    -2.82702   2.67162  -1.40478 
 H                    -1.48557   1.69685  -1.98835 
 H                    -3.16941   1.09383  -2.15916 
 C                    -3.14363  -0.57184   1.61379 
 H                    -3.99423   0.00669   1.9944 
 H                    -3.40455  -1.62902   1.69776 
 H                    -2.29103  -0.38113   2.26858 
 C                    -1.01629  -2.17376   0.43781 
 H                    -1.85032  -2.87438   0.51516 
 H                    -0.14578  -2.71308   0.04005 
 H                    -0.7406   -1.79651   1.42243 
 C                    -1.75198  -1.5545   -1.90866 
 H                    -0.90238  -2.0978   -2.34035 
 H                    -2.6025   -2.23679  -1.83179 
 H                    -1.98925  -0.73448  -2.5871 
 
                    Distance matrix (angstroms):
                    1          2          3          4          5
     1  O    0.000000
     2  C    1.330150   0.000000
     3  C    2.667391   1.950000   0.000000
     4  C    2.350005   2.371126   1.395638   0.000000
     5  C    2.908619   3.101208   2.522893   1.486853   0.000000
     6  Fe   1.873596   2.973977   4.292566   3.849943   4.454549
     7  Cl   3.182982   4.512205   5.411351   4.430002   4.519890
     8  C    2.747138   3.229762   2.522334   1.484026   2.513839
     9  Cl   3.265498   3.899549   5.705970   5.594528   6.047023
    10  Cl   3.288504   3.914975   4.616149   4.418973   5.529793
    11  H    3.315989   2.388795   1.088302   2.100741   2.673297
    12  H    3.822417   4.155602   3.003288   2.084580   2.956959
    13  H    2.741128   3.171905   2.718677   2.163921   3.431214
    14  H    2.817708   3.673194   3.384728   2.143207   2.621080
    15  H    3.823899   4.124811   3.269998   2.110512   1.097753
    16  H    2.542921   3.113218   3.188898   2.109648   1.097266
    17  H    3.438500   3.281510   2.676958   2.168269   1.090693
    18  C    3.627064   2.894570   1.516509   2.538411   3.890626
    19  H    4.509483   3.867070   2.148944   2.921752   4.159842
    20  H    4.138910   3.143075   2.161633   3.431395   4.677268
    21  H    3.513360   3.069111   2.187591   2.818685   4.295007
    22  C    2.410371   1.515144   2.730452   3.520644   4.525668
    23  H    3.342078   2.181479   2.891130   4.001346   4.988434
    24  H    2.680145   2.094463   3.718131   4.342650   5.175331
    25  H    2.683659   2.176092   2.950310   3.614311   4.842401
    26  C    2.376463   1.519926   2.726881   3.177652   3.296602
    27  H    2.663047   2.105063   3.718081   4.073171   4.135945
    28  H    3.316863   2.184189   2.872800   3.687811   3.889565
    29  H    2.624775   2.179029   2.946069   3.021050   2.647275
                    6          7          8          9         10
     6  Fe   0.000000
     7  Cl   2.204660   0.000000
     8  C    3.544785   3.834124   0.000000
     9  Cl   2.199680   3.746947   5.618953   0.000000
    10  Cl   2.226016   3.676370   3.644190   3.668158   0.000000
    11  H    5.097105   6.173453   3.455384   6.283594   5.629195
    12  H    4.610400   4.713507   1.102515   6.707625   4.435642
    13  H    3.176144   3.901632   1.089802   5.218624   2.720049
    14  H    3.276210   2.971468   1.092817   5.413886   3.735679
    15  H    5.162573   4.862595   2.681138   6.918712   6.074956
    16  H    3.873398   3.684969   2.806826   5.373576   5.306058
    17  H    5.166993   5.411210   3.465531   6.495339   6.323492
    18  C    4.861920   6.198935   3.009109   6.276406   4.469429
    19  H    5.747654   6.855249   3.279046   7.302768   5.242465
    20  H    5.371118   6.948781   4.042980   6.463099   4.959254
    21  H    4.348881   5.741803   2.768916   5.861487   3.555776
    22  C    3.332818   5.316285   4.085027   3.825024   3.625734
    23  H    4.422540   6.367828   4.750312   4.772965   4.571105
    24  H    3.193852   5.289733   4.846240   3.040221   3.770437
    25  H    3.175005   5.183737   3.793962   3.973614   2.808194
    26  C    4.044104   5.327000   4.368850   4.470378   5.352549
    27  H    3.954498   5.317375   5.100949   3.842974   5.482115
    28  H    4.985058   6.375888   4.984737   5.317814   6.036790
    29  H    4.356642   5.193740   4.297003   4.986420   5.857906
                   11         12         13         14         15
    11  H    0.000000
    12  H    3.832217   0.000000
    13  H    3.786283   1.768374   0.000000
    14  H    4.233907   1.775639   1.781368   0.000000
    15  H    3.446531   2.757793   3.744006   2.663679   0.000000
    16  H    3.436201   3.482034   3.633331   2.530610   1.757904
    17  H    2.368381   3.842915   4.299660   3.694585   1.782062
    18  C    2.198308   3.229975   2.761339   4.054723   4.442077
    19  H    2.617062   3.121656   3.195979   4.367312   4.474217
    20  H    2.479425   4.321629   3.712868   5.051817   5.334300
    21  H    3.106106   3.066348   2.150818   3.765365   4.806260
    22  C    3.211376   4.945254   3.632613   4.659027   5.491051
    23  H    3.092150   5.475208   4.349453   5.457668   5.949641
    24  H    4.125353   5.799374   4.376854   5.241595   6.186406
    25  H    3.692443   4.594363   3.088887   4.415769   5.684232
    26  C    2.523577   5.217218   4.550188   4.704556   4.389732
    27  H    3.607145   6.044699   5.183412   5.295080   5.227521
    28  H    2.349288   5.707565   5.132915   5.486050   4.932066
    29  H    2.630162   5.080173   4.726280   4.492219   3.701527
                   16         17         18         19         20
    16  H    0.000000
    17  H    1.796695   0.000000
    18  C    4.568539   4.124357   0.000000
    19  H    5.001226   4.371985   1.096844   0.000000
    20  H    5.322712   4.727052   1.092135   1.763872   0.000000
    21  H    4.805018   4.748890   1.091806   1.768184   1.767199
    22  C    4.592181   4.696527   2.911130   4.005676   2.754635
    23  H    5.224629   4.963737   2.860300   3.883940   2.316263
    24  H    5.035568   5.335863   4.006083   5.101683   3.813501
    25  H    4.938826   5.203942   2.703883   3.763608   2.683372
    26  C    3.263223   3.014221   3.912801   4.764330   3.967719
    27  H    3.855311   3.919030   4.794476   5.725242   4.773562
    28  H    4.092138   3.394349   3.864834   4.648633   3.670201
    29  H    2.554130   2.217799   4.359654   5.055630   4.600358
                   21         22         23         24         25
    21  H    0.000000
    22  C    2.861850   0.000000
    23  H    3.079764   1.091998   0.000000
    24  H    3.873811   1.098574   1.776857   0.000000
    25  H    2.263420   1.089863   1.793436   1.762074   0.000000
    26  C    4.372264   2.535874   2.761642   2.778426   3.489649
    27  H    5.110525   2.781527   3.107345   2.572406   3.778286
    28  H    4.511486   2.769683   2.545680   3.125080   3.774983
    29  H    4.877864   3.488309   3.771275   3.770301   4.331677
                   26         27         28         29
    26  C    0.000000
    27  H    1.096975   0.000000
    28  H    1.093077   1.779993   0.000000
    29  H    1.090420   1.760919   1.789835   0.000000
 Framework group  C1[X(C8H16Cl3FeO)]
 Deg. of freedom    81
                         Standard orientation:                         
 ---------------------------------------------------------------------
 Center     Atomic      Atomic             Coordinates (Angstroms)
 Number     Number       Type             X           Y           Z
 ---------------------------------------------------------------------
      1          8           0       -0.336813   -0.127726   -0.640122
      2          6           0       -1.284118   -1.057200   -0.550733
      3          6           0       -2.877533   -0.194094    0.169391
      4          6           0       -2.319644    1.040698   -0.165054
      5          6           0       -2.475056    1.637982   -1.517766
      6         26           0        1.403744    0.079648    0.021556
      7         17           0        1.950398    2.084628   -0.714480
      8          6           0       -1.559028    1.857637    0.812906
      9         17           0        2.569910   -1.610370   -0.767422
     10         17           0        1.242435    0.015612    2.240796
     11          1           0       -3.621874   -0.566401   -0.531855
     12          1           0       -2.289681    2.526984    1.296291
     13          1           0       -1.084720    1.268164    1.597267
     14          1           0       -0.806871    2.479081    0.320650
     15          1           0       -2.827024    2.671623   -1.404776
     16          1           0       -1.485572    1.696853   -1.988348
     17          1           0       -3.169408    1.093833   -2.159162
     18          6           0       -3.143630   -0.571839    1.613794
     19          1           0       -3.994229    0.006686    1.994395
     20          1           0       -3.404553   -1.629019    1.697755
     21          1           0       -2.291028   -0.381134    2.268577
     22          6           0       -1.016288   -2.173762    0.437810
     23          1           0       -1.850323   -2.874377    0.515162
     24          1           0       -0.145779   -2.713080    0.040047
     25          1           0       -0.740603   -1.796512    1.422433
     26          6           0       -1.751980   -1.554501   -1.908662
     27          1           0       -0.902376   -2.097802   -2.340345
     28          1           0       -2.602503   -2.236790   -1.831792
     29          1           0       -1.989252   -0.734480   -2.587104
 ---------------------------------------------------------------------
 Rotational constants (GHZ):           0.5781555           0.3485204           0.3243822
   427 basis functions,  1056 primitive gaussians,   461 cartesian basis functions
    77 alpha electrons       72 beta electrons
       nuclear repulsion energy      1656.3577947813 Hartrees.
 NAtoms=   29 NActive=   29 NUniq=   29 SFac= 1.00D+00 NAtFMM=   60 NAOKFM=F Big=F
 Nuclear repulsion after empirical dispersion term =     1656.2884665595 Hartrees.
 Initial guess from the checkpoint file:  "checkpoint.chk"
 B after Tr=     0.000000    0.000000    0.000000
         Rot=    1.000000    0.000000    0.000000    0.000000 Ang=   0.00 deg.
 Initial guess <Sx>= 0.0000 <Sy>= 0.0000 <Sz>= 2.5000 <S**2>= 8.7614 S= 2.5019
 SCF Done:  E(UB3LYP) =  -3034.38598401     A.U. after    1 cycles
            NFock=  1  Conv=0.19D-08     -V/T= 2.0024
 <Sx>= 0.0000 <Sy>= 0.0000 <Sz>= 2.5000 <S**2>= 8.7614 S= 2.5019
 <L.S>= 0.000000000000E+00
 Annihilation of the first spin contaminant:
 S**2 before annihilation     8.7614,   after     8.7500
 1\1\GINC-HOLY7C06108\SP\UB3LYP\Jul-CC-pVDZ\C8H16Cl3Fe1O1(6)\EKWAN\11-F
 eb-2020\0\\#t pop=none jul-cc-pvdz guess=read ub3lyp empiricaldispersi
 on=gd3bj\\theory_abbreviation b3lyp_d3bj\\0,6\O,0,-0.336813,-0.127726,
 -0.640122\C,0,-1.284118,-1.0572,-0.550733\C,0,-2.877533,-0.194094,0.16
 9391\C,0,-2.319644,1.040698,-0.165054\C,0,-2.475056,1.637982,-1.517766
 \Fe,0,1.403744,0.079648,0.021556\Cl,0,1.950398,2.084628,-0.71448\C,0,-
 1.559028,1.857637,0.812906\Cl,0,2.56991,-1.61037,-0.767422\Cl,0,1.2424
 35,0.015612,2.240796\H,0,-3.621874,-0.566401,-0.531855\H,0,-2.289681,2
 .526984,1.296291\H,0,-1.08472,1.268164,1.597267\H,0,-0.806871,2.479081
 ,0.32065\H,0,-2.827024,2.671623,-1.404776\H,0,-1.485572,1.696853,-1.98
 8348\H,0,-3.169408,1.093833,-2.159162\C,0,-3.14363,-0.571839,1.613794\
 H,0,-3.994229,0.006686,1.994395\H,0,-3.404553,-1.629019,1.697755\H,0,-
 2.291028,-0.381134,2.268577\C,0,-1.016288,-2.173762,0.43781\H,0,-1.850
 323,-2.874377,0.515162\H,0,-0.145779,-2.71308,0.040047\H,0,-0.740603,-
 1.796512,1.422433\C,0,-1.75198,-1.554501,-1.908662\H,0,-0.902376,-2.09
 7802,-2.340345\H,0,-2.602503,-2.23679,-1.831792\H,0,-1.989252,-0.73448
 ,-2.587104\\Version=ES64L-G16RevA.03\HF=-3034.385984\S2=8.761353\S2-1=
 0.\S2A=8.75004\RMSD=1.904e-09\PG=C01 [X(C8H16Cl3Fe1O1)]\\@


 MATERIAL COPIED FROM ONE SCHOLARLY BOOK WITHOUT CREDIT COMPRISES PLAGIARISM.
 MATERIAL COPIED FROM TWO SCHOLARLY BOOKS COMPRISES AN ESSAY.
 MATERIAL COPIED FROM THREE SCHOLARLY BOOKS COMPRISES A DISSERTATION.
 MATERIAL COPIED FROM FOUR SCHOLARLY BOOKS COMPRISES A FIFTH SCHOLARLY BOOK.

                               -- C&EN, 25 FEB 1980
 Job cpu time:       0 days  0 hours  4 minutes 36.9 seconds.
 Elapsed time:       0 days  0 hours  1 minutes  9.7 seconds.
 File lengths (MBytes):  RWF=    170 Int=      0 D2E=      0 Chk=     13 Scr=      1
 Normal termination of Gaussian 16 at Tue Feb 11 14:17:49 2020.
 Initial command:
 /n/sw/g16_nehalem/g16/l1.exe "/scratch/Gau-382057.inp" -scrdir="/scratch/"
 Entering Link 1 = /n/sw/g16_nehalem/g16/l1.exe PID=    386819.
  
 Copyright (c) 1988,1990,1992,1993,1995,1998,2003,2009,2016,
            Gaussian, Inc.  All Rights Reserved.
  
 This is part of the Gaussian(R) 16 program.  It is based on
 the Gaussian(R) 09 system (copyright 2009, Gaussian, Inc.),
 the Gaussian(R) 03 system (copyright 2003, Gaussian, Inc.),
 the Gaussian(R) 98 system (copyright 1998, Gaussian, Inc.),
 the Gaussian(R) 94 system (copyright 1995, Gaussian, Inc.),
 the Gaussian 92(TM) system (copyright 1992, Gaussian, Inc.),
 the Gaussian 90(TM) system (copyright 1990, Gaussian, Inc.),
 the Gaussian 88(TM) system (copyright 1988, Gaussian, Inc.),
 the Gaussian 86(TM) system (copyright 1986, Carnegie Mellon
 University), and the Gaussian 82(TM) system (copyright 1983,
 Carnegie Mellon University). Gaussian is a federally registered
 trademark of Gaussian, Inc.
  
 This software contains proprietary and confidential information,
 including trade secrets, belonging to Gaussian, Inc.
  
 This software is provided under written license and may be
 used, copied, transmitted, or stored only in accord with that
 written license.
  
 The following legend is applicable only to US Government
 contracts under FAR:
  
                    RESTRICTED RIGHTS LEGEND
  
 Use, reproduction and disclosure by the US Government is
 subject to restrictions as set forth in subparagraphs (a)
 and (c) of the Commercial Computer Software - Restricted
 Rights clause in FAR 52.227-19.
  
 Gaussian, Inc.
 340 Quinnipiac St., Bldg. 40, Wallingford CT 06492
  
  
 ---------------------------------------------------------------
 Warning -- This program may not be used in any manner that
 competes with the business of Gaussian, Inc. or will provide
 assistance to any competitor of Gaussian, Inc.  The licensee
 of this program is prohibited from giving any competitor of
 Gaussian, Inc. access to this program.  By using this program,
 the user acknowledges that Gaussian, Inc. is engaged in the
 business of creating and licensing software in the field of
 computational chemistry and represents and warrants to the
 licensee that it is not a competitor of Gaussian, Inc. and that
 it will not use this program in any manner prohibited above.
 ---------------------------------------------------------------
  

 Cite this work as:
 Gaussian 16, Revision A.03,
 M. J. Frisch, G. W. Trucks, H. B. Schlegel, G. E. Scuseria, 
 M. A. Robb, J. R. Cheeseman, G. Scalmani, V. Barone, 
 G. A. Petersson, H. Nakatsuji, X. Li, M. Caricato, A. V. Marenich, 
 J. Bloino, B. G. Janesko, R. Gomperts, B. Mennucci, H. P. Hratchian, 
 J. V. Ortiz, A. F. Izmaylov, J. L. Sonnenberg, D. Williams-Young, 
 F. Ding, F. Lipparini, F. Egidi, J. Goings, B. Peng, A. Petrone, 
 T. Henderson, D. Ranasinghe, V. G. Zakrzewski, J. Gao, N. Rega, 
 G. Zheng, W. Liang, M. Hada, M. Ehara, K. Toyota, R. Fukuda, 
 J. Hasegawa, M. Ishida, T. Nakajima, Y. Honda, O. Kitao, H. Nakai, 
 T. Vreven, K. Throssell, J. A. Montgomery, Jr., J. E. Peralta, 
 F. Ogliaro, M. J. Bearpark, J. J. Heyd, E. N. Brothers, K. N. Kudin, 
 V. N. Staroverov, T. A. Keith, R. Kobayashi, J. Normand, 
 K. Raghavachari, A. P. Rendell, J. C. Burant, S. S. Iyengar, 
 J. Tomasi, M. Cossi, J. M. Millam, M. Klene, C. Adamo, R. Cammi, 
 J. W. Ochterski, R. L. Martin, K. Morokuma, O. Farkas, 
 J. B. Foresman, and D. J. Fox, Gaussian, Inc., Wallingford CT, 2016.
 
 ******************************************
 Gaussian 16:  ES64L-G16RevA.03 25-Dec-2016
                11-Feb-2020 
 ******************************************
 %chk=checkpoint.chk
 %mem=3GB
 %nprocshared=4
 Will use up to    4 processors via shared memory.
 ----------------------------------------
 #t pop=none jul-cc-pvdz guess=read ub97d
 ----------------------------------------
 ------------------------
 theory_abbreviation b97d
 ------------------------
 Symbolic Z-matrix:
 Charge =  0 Multiplicity = 6
 O                    -0.33681  -0.12773  -0.64012 
 C                    -1.28412  -1.0572   -0.55073 
 C                    -2.87753  -0.19409   0.16939 
 C                    -2.31964   1.0407   -0.16505 
 C                    -2.47506   1.63798  -1.51777 
 Fe                    1.40374   0.07965   0.02156 
 Cl                    1.9504    2.08463  -0.71448 
 C                    -1.55903   1.85764   0.81291 
 Cl                    2.56991  -1.61037  -0.76742 
 Cl                    1.24244   0.01561   2.2408 
 H                    -3.62187  -0.5664   -0.53186 
 H                    -2.28968   2.52698   1.29629 
 H                    -1.08472   1.26816   1.59727 
 H                    -0.80687   2.47908   0.32065 
 H                    -2.82702   2.67162  -1.40478 
 H                    -1.48557   1.69685  -1.98835 
 H                    -3.16941   1.09383  -2.15916 
 C                    -3.14363  -0.57184   1.61379 
 H                    -3.99423   0.00669   1.9944 
 H                    -3.40455  -1.62902   1.69776 
 H                    -2.29103  -0.38113   2.26858 
 C                    -1.01629  -2.17376   0.43781 
 H                    -1.85032  -2.87438   0.51516 
 H                    -0.14578  -2.71308   0.04005 
 H                    -0.7406   -1.79651   1.42243 
 C                    -1.75198  -1.5545   -1.90866 
 H                    -0.90238  -2.0978   -2.34035 
 H                    -2.6025   -2.23679  -1.83179 
 H                    -1.98925  -0.73448  -2.5871 
 
                    Distance matrix (angstroms):
                    1          2          3          4          5
     1  O    0.000000
     2  C    1.330150   0.000000
     3  C    2.667391   1.950000   0.000000
     4  C    2.350005   2.371126   1.395638   0.000000
     5  C    2.908619   3.101208   2.522893   1.486853   0.000000
     6  Fe   1.873596   2.973977   4.292566   3.849943   4.454549
     7  Cl   3.182982   4.512205   5.411351   4.430002   4.519890
     8  C    2.747138   3.229762   2.522334   1.484026   2.513839
     9  Cl   3.265498   3.899549   5.705970   5.594528   6.047023
    10  Cl   3.288504   3.914975   4.616149   4.418973   5.529793
    11  H    3.315989   2.388795   1.088302   2.100741   2.673297
    12  H    3.822417   4.155602   3.003288   2.084580   2.956959
    13  H    2.741128   3.171905   2.718677   2.163921   3.431214
    14  H    2.817708   3.673194   3.384728   2.143207   2.621080
    15  H    3.823899   4.124811   3.269998   2.110512   1.097753
    16  H    2.542921   3.113218   3.188898   2.109648   1.097266
    17  H    3.438500   3.281510   2.676958   2.168269   1.090693
    18  C    3.627064   2.894570   1.516509   2.538411   3.890626
    19  H    4.509483   3.867070   2.148944   2.921752   4.159842
    20  H    4.138910   3.143075   2.161633   3.431395   4.677268
    21  H    3.513360   3.069111   2.187591   2.818685   4.295007
    22  C    2.410371   1.515144   2.730452   3.520644   4.525668
    23  H    3.342078   2.181479   2.891130   4.001346   4.988434
    24  H    2.680145   2.094463   3.718131   4.342650   5.175331
    25  H    2.683659   2.176092   2.950310   3.614311   4.842401
    26  C    2.376463   1.519926   2.726881   3.177652   3.296602
    27  H    2.663047   2.105063   3.718081   4.073171   4.135945
    28  H    3.316863   2.184189   2.872800   3.687811   3.889565
    29  H    2.624775   2.179029   2.946069   3.021050   2.647275
                    6          7          8          9         10
     6  Fe   0.000000
     7  Cl   2.204660   0.000000
     8  C    3.544785   3.834124   0.000000
     9  Cl   2.199680   3.746947   5.618953   0.000000
    10  Cl   2.226016   3.676370   3.644190   3.668158   0.000000
    11  H    5.097105   6.173453   3.455384   6.283594   5.629195
    12  H    4.610400   4.713507   1.102515   6.707625   4.435642
    13  H    3.176144   3.901632   1.089802   5.218624   2.720049
    14  H    3.276210   2.971468   1.092817   5.413886   3.735679
    15  H    5.162573   4.862595   2.681138   6.918712   6.074956
    16  H    3.873398   3.684969   2.806826   5.373576   5.306058
    17  H    5.166993   5.411210   3.465531   6.495339   6.323492
    18  C    4.861920   6.198935   3.009109   6.276406   4.469429
    19  H    5.747654   6.855249   3.279046   7.302768   5.242465
    20  H    5.371118   6.948781   4.042980   6.463099   4.959254
    21  H    4.348881   5.741803   2.768916   5.861487   3.555776
    22  C    3.332818   5.316285   4.085027   3.825024   3.625734
    23  H    4.422540   6.367828   4.750312   4.772965   4.571105
    24  H    3.193852   5.289733   4.846240   3.040221   3.770437
    25  H    3.175005   5.183737   3.793962   3.973614   2.808194
    26  C    4.044104   5.327000   4.368850   4.470378   5.352549
    27  H    3.954498   5.317375   5.100949   3.842974   5.482115
    28  H    4.985058   6.375888   4.984737   5.317814   6.036790
    29  H    4.356642   5.193740   4.297003   4.986420   5.857906
                   11         12         13         14         15
    11  H    0.000000
    12  H    3.832217   0.000000
    13  H    3.786283   1.768374   0.000000
    14  H    4.233907   1.775639   1.781368   0.000000
    15  H    3.446531   2.757793   3.744006   2.663679   0.000000
    16  H    3.436201   3.482034   3.633331   2.530610   1.757904
    17  H    2.368381   3.842915   4.299660   3.694585   1.782062
    18  C    2.198308   3.229975   2.761339   4.054723   4.442077
    19  H    2.617062   3.121656   3.195979   4.367312   4.474217
    20  H    2.479425   4.321629   3.712868   5.051817   5.334300
    21  H    3.106106   3.066348   2.150818   3.765365   4.806260
    22  C    3.211376   4.945254   3.632613   4.659027   5.491051
    23  H    3.092150   5.475208   4.349453   5.457668   5.949641
    24  H    4.125353   5.799374   4.376854   5.241595   6.186406
    25  H    3.692443   4.594363   3.088887   4.415769   5.684232
    26  C    2.523577   5.217218   4.550188   4.704556   4.389732
    27  H    3.607145   6.044699   5.183412   5.295080   5.227521
    28  H    2.349288   5.707565   5.132915   5.486050   4.932066
    29  H    2.630162   5.080173   4.726280   4.492219   3.701527
                   16         17         18         19         20
    16  H    0.000000
    17  H    1.796695   0.000000
    18  C    4.568539   4.124357   0.000000
[...]
   427 basis functions,  1056 primitive gaussians,   461 cartesian basis functions
    77 alpha electrons       72 beta electrons
       nuclear repulsion energy      1656.3577947813 Hartrees.
 NAtoms=   29 NActive=   29 NUniq=   29 SFac= 1.00D+00 NAtFMM=   60 NAOKFM=F Big=F
 Nuclear repulsion after empirical dispersion term =     1656.3554003912 Hartrees.
 Initial guess from the checkpoint file:  "checkpoint.chk"
 B after Tr=     0.000000    0.000000    0.000000
         Rot=    1.000000    0.000000    0.000000    0.000000 Ang=   0.00 deg.
 Initial guess <Sx>= 0.0000 <Sy>= 0.0000 <Sz>= 2.5000 <S**2>= 8.7611 S= 2.5018
 SCF Done:  E(UM06L) =  -3034.18388534     A.U. after   18 cycles
            NFock= 18  Conv=0.30D-08     -V/T= 2.0020
 <Sx>= 0.0000 <Sy>= 0.0000 <Sz>= 2.5000 <S**2>= 8.7613 S= 2.5019
 <L.S>= 0.000000000000E+00
 Annihilation of the first spin contaminant:
 S**2 before annihilation     8.7613,   after     8.7500
 1\1\GINC-HOLY7C06108\SP\UM06L\Jul-CC-pVDZ\C8H16Cl3Fe1O1(6)\EKWAN\11-Fe
 b-2020\0\\#t pop=none jul-cc-pvdz guess=read um06l empiricaldispersion
 =gd3\\theory_abbreviation m06l_d3\\0,6\O,0,-0.336813,-0.127726,-0.6401
 22\C,0,-1.284118,-1.0572,-0.550733\C,0,-2.877533,-0.194094,0.169391\C,
 0,-2.319644,1.040698,-0.165054\C,0,-2.475056,1.637982,-1.517766\Fe,0,1
 .403744,0.079648,0.021556\Cl,0,1.950398,2.084628,-0.71448\C,0,-1.55902
 8,1.857637,0.812906\Cl,0,2.56991,-1.61037,-0.767422\Cl,0,1.242435,0.01
 5612,2.240796\H,0,-3.621874,-0.566401,-0.531855\H,0,-2.289681,2.526984
 ,1.296291\H,0,-1.08472,1.268164,1.597267\H,0,-0.806871,2.479081,0.3206
 5\H,0,-2.827024,2.671623,-1.404776\H,0,-1.485572,1.696853,-1.988348\H,
 0,-3.169408,1.093833,-2.159162\C,0,-3.14363,-0.571839,1.613794\H,0,-3.
 994229,0.006686,1.994395\H,0,-3.404553,-1.629019,1.697755\H,0,-2.29102
 8,-0.381134,2.268577\C,0,-1.016288,-2.173762,0.43781\H,0,-1.850323,-2.
 874377,0.515162\H,0,-0.145779,-2.71308,0.040047\H,0,-0.740603,-1.79651
 2,1.422433\C,0,-1.75198,-1.554501,-1.908662\H,0,-0.902376,-2.097802,-2
 .340345\H,0,-2.602503,-2.23679,-1.831792\H,0,-1.989252,-0.73448,-2.587
 104\\Version=ES64L-G16RevA.03\HF=-3034.1838853\S2=8.761254\S2-1=0.\S2A
 =8.750041\RMSD=2.976e-09\PG=C01 [X(C8H16Cl3Fe1O1)]\\@


 ONE OF THE BENEFITS OF A COLLEGE EDUCATION
 IS TO SHOW THE BOY ITS LITTLE AVAIL 
                                    EMERSON IN 'CULTURE'
 Job cpu time:       0 days  1 hours 19 minutes 25.7 seconds.
 Elapsed time:       0 days  0 hours 19 minutes 54.8 seconds.
 File lengths (MBytes):  RWF=    174 Int=      0 D2E=      0 Chk=     13 Scr=      1
 Normal termination of Gaussian 16 at Tue Feb 11 23:34:21 2020.
 Initial command:
 /n/sw/g16_nehalem/g16/l1.exe "/scratch/Gau-382057.inp" -scrdir="/scratch/"
 Entering Link 1 = /n/sw/g16_nehalem/g16/l1.exe PID=    438417.
  
 Copyright (c) 1988,1990,1992,1993,1995,1998,2003,2009,2016,
            Gaussian, Inc.  All Rights Reserved.
  
 This is part of the Gaussian(R) 16 program.  It is based on
 the Gaussian(R) 09 system (copyright 2009, Gaussian, Inc.),
 the Gaussian(R) 03 system (copyright 2003, Gaussian, Inc.),
 the Gaussian(R) 98 system (copyright 1998, Gaussian, Inc.),
 the Gaussian(R) 94 system (copyright 1995, Gaussian, Inc.),
 the Gaussian 92(TM) system (copyright 1992, Gaussian, Inc.),
 the Gaussian 90(TM) system (copyright 1990, Gaussian, Inc.),
 the Gaussian 88(TM) system (copyright 1988, Gaussian, Inc.),
 the Gaussian 86(TM) system (copyright 1986, Carnegie Mellon
 University), and the Gaussian 82(TM) system (copyright 1983,
 Carnegie Mellon University). Gaussian is a federally registered
 trademark of Gaussian, Inc.
  
 This software contains proprietary and confidential information,
 including trade secrets, belonging to Gaussian, Inc.
  
 This software is provided under written license and may be
 used, copied, transmitted, or stored only in accord with that
 written license.
  
 The following legend is applicable only to US Government
 contracts under FAR:
  
                    RESTRICTED RIGHTS LEGEND
  
 Use, reproduction and disclosure by the US Government is
 subject to restrictions as set forth in subparagraphs (a)
 and (c) of the Commercial Computer Software - Restricted
 Rights clause in FAR 52.227-19.
  
 Gaussian, Inc.
 340 Quinnipiac St., Bldg. 40, Wallingford CT 06492
  
  
 ---------------------------------------------------------------
 Warning -- This program may not be used in any manner that
 competes with the business of Gaussian, Inc. or will provide
 assistance to any competitor of Gaussian, Inc.  The licensee
 of this program is prohibited from giving any competitor of
 Gaussian, Inc. access to this program.  By using this program,
 the user acknowledges that Gaussian, Inc. is engaged in the
 business of creating and licensing software in the field of
 computational chemistry and represents and warrants to the
 licensee that it is not a competitor of Gaussian, Inc. and that
 it will not use this program in any manner prohibited above.
 ---------------------------------------------------------------
  

 Cite this work as:
 Gaussian 16, Revision A.03,
 M. J. Frisch, G. W. Trucks, H. B. Schlegel, G. E. Scuseria, 
 M. A. Robb, J. R. Cheeseman, G. Scalmani, V. Barone, 
 G. A. Petersson, H. Nakatsuji, X. Li, M. Caricato, A. V. Marenich, 
 J. Bloino, B. G. Janesko, R. Gomperts, B. Mennucci, H. P. Hratchian, 
 J. V. Ortiz, A. F. Izmaylov, J. L. Sonnenberg, D. Williams-Young, 
 F. Ding, F. Lipparini, F. Egidi, J. Goings, B. Peng, A. Petrone, 
 T. Henderson, D. Ranasinghe, V. G. Zakrzewski, J. Gao, N. Rega, 
 G. Zheng, W. Liang, M. Hada, M. Ehara, K. Toyota, R. Fukuda, 
 J. Hasegawa, M. Ishida, T. Nakajima, Y. Honda, O. Kitao, H. Nakai, 
 T. Vreven, K. Throssell, J. A. Montgomery, Jr., J. E. Peralta, 
 F. Ogliaro, M. J. Bearpark, J. J. Heyd, E. N. Brothers, K. N. Kudin, 
 V. N. Staroverov, T. A. Keith, R. Kobayashi, J. Normand, 
 K. Raghavachari, A. P. Rendell, J. C. Burant, S. S. Iyengar, 
 J. Tomasi, M. Cossi, J. M. Millam, M. Klene, C. Adamo, R. Cammi, 
 J. W. Ochterski, R. L. Martin, K. Morokuma, O. Farkas, 
 J. B. Foresman, and D. J. Fox, Gaussian, Inc., Wallingford CT, 2016.
 
 ******************************************
 Gaussian 16:  ES64L-G16RevA.03 25-Dec-2016
                11-Feb-2020 
 ******************************************
 %chk=checkpoint.chk
 %mem=3GB
 %nprocshared=4
 Will use up to    4 processors via shared memory.
 -------------------------------------------------------------------
 #t pop=none jul-cc-pvdz guess=read ub97d3 empiricaldispersion=gd3bj
 -------------------------------------------------------------------
 ------------------------------
 theory_abbreviation b97d3_d3bj
 ------------------------------
 Symbolic Z-matrix:
 Charge =  0 Multiplicity = 6
 O                    -0.33681  -0.12773  -0.64012 
 C                    -1.28412  -1.0572   -0.55073 
 C                    -2.87753  -0.19409   0.16939 
 C                    -2.31964   1.0407   -0.16505 
 C                    -2.47506   1.63798  -1.51777 
 Fe                    1.40374   0.07965   0.02156 
 Cl                    1.9504    2.08463  -0.71448 
 C                    -1.55903   1.85764   0.81291 
 Cl                    2.56991  -1.61037  -0.76742 
 Cl                    1.24244   0.01561   2.2408 
 H                    -3.62187  -0.5664   -0.53186 
 H                    -2.28968   2.52698   1.29629 
 H                    -1.08472   1.26816   1.59727 
 H                    -0.80687   2.47908   0.32065 
 H                    -2.82702   2.67162  -1.40478 
 H                    -1.48557   1.69685  -1.98835 
 H                    -3.16941   1.09383  -2.15916 
 C                    -3.14363  -0.57184   1.61379 
 H                    -3.99423   0.00669   1.9944 
 H                    -3.40455  -1.62902   1.69776 
 H                    -2.29103  -0.38113   2.26858 
 C                    -1.01629  -2.17376   0.43781 
 H                    -1.85032  -2.87438   0.51516 
 H                    -0.14578  -2.71308   0.04005 
 H                    -0.7406   -1.79651   1.42243 
 C                    -1.75198  -1.5545   -1.90866 
 H                    -0.90238  -2.0978   -2.34035 
 H                    -2.6025   -2.23679  -1.83179 
 H                    -1.98925  -0.73448  -2.5871 
 
                    Distance matrix (angstroms):
                    1          2          3          4          5
     1  O    0.000000
     2  C    1.330150   0.000000
     3  C    2.667391   1.950000   0.000000
     4  C    2.350005   2.371126   1.395638   0.000000
     5  C    2.908619   3.101208   2.522893   1.486853   0.000000
     6  Fe   1.873596   2.973977   4.292566   3.849943   4.454549
     7  Cl   3.182982   4.512205   5.411351   4.430002   4.519890
     8  C    2.747138   3.229762   2.522334   1.484026   2.513839
     9  Cl   3.265498   3.899549   5.705970   5.594528   6.047023
    10  Cl   3.288504   3.914975   4.616149   4.418973   5.529793
    11  H    3.315989   2.388795   1.088302   2.100741   2.673297
    12  H    3.822417   4.155602   3.003288   2.084580   2.956959
    13  H    2.741128   3.171905   2.718677   2.163921   3.431214
    14  H    2.817708   3.673194   3.384728   2.143207   2.621080
    15  H    3.823899   4.124811   3.269998   2.110512   1.097753
    16  H    2.542921   3.113218   3.188898   2.109648   1.097266
    17  H    3.438500   3.281510   2.676958   2.168269   1.090693
    18  C    3.627064   2.894570   1.516509   2.538411   3.890626
    19  H    4.509483   3.867070   2.148944   2.921752   4.159842
    20  H    4.138910   3.143075   2.161633   3.431395   4.677268
    21  H    3.513360   3.069111   2.187591   2.818685   4.295007
    22  C    2.410371   1.515144   2.730452   3.520644   4.525668
    23  H    3.342078   2.181479   2.891130   4.001346   4.988434
    24  H    2.680145   2.094463   3.718131   4.342650   5.175331
    25  H    2.683659   2.176092   2.950310   3.614311   4.842401
    26  C    2.376463   1.519926   2.726881   3.177652   3.296602
    27  H    2.663047   2.105063   3.718081   4.073171   4.135945
    28  H    3.316863   2.184189   2.872800   3.687811   3.889565
    29  H    2.624775   2.179029   2.946069   3.021050   2.647275
                    6          7          8          9         10
     6  Fe   0.000000
     7  Cl   2.204660   0.000000
     8  C    3.544785   3.834124   0.000000
     9  Cl   2.199680   3.746947   5.618953   0.000000
    10  Cl   2.226016   3.676370   3.644190   3.668158   0.000000
    11  H    5.097105   6.173453   3.455384   6.283594   5.629195
    12  H    4.610400   4.713507   1.102515   6.707625   4.435642
    13  H    3.176144   3.901632   1.089802   5.218624   2.720049
    14  H    3.276210   2.971468   1.092817   5.413886   3.735679
    15  H    5.162573   4.862595   2.681138   6.918712   6.074956
    16  H    3.873398   3.684969   2.806826   5.373576   5.306058
    17  H    5.166993   5.411210   3.465531   6.495339   6.323492
    18  C    4.861920   6.198935   3.009109   6.276406   4.469429
    19  H    5.747654   6.855249   3.279046   7.302768   5.242465
    20  H    5.371118   6.948781   4.042980   6.463099   4.959254
    21  H    4.348881   5.741803   2.768916   5.861487   3.555776
    22  C    3.332818   5.316285   4.085027   3.825024   3.625734
    23  H    4.422540   6.367828   4.750312   4.772965   4.571105
    24  H    3.193852   5.289733   4.846240   3.040221   3.770437
    25  H    3.175005   5.183737   3.793962   3.973614   2.808194
    26  C    4.044104   5.327000   4.368850   4.470378   5.352549
    27  H    3.954498   5.317375   5.100949   3.842974   5.482115
    28  H    4.985058   6.375888   4.984737   5.317814   6.036790
    29  H    4.356642   5.193740   4.297003   4.986420   5.857906
                   11         12         13         14         15
    11  H    0.000000
    12  H    3.832217   0.000000
    13  H    3.786283   1.768374   0.000000
    14  H    4.233907   1.775639   1.781368   0.000000
    15  H    3.446531   2.757793   3.744006   2.663679   0.000000
    16  H    3.436201   3.482034   3.633331   2.530610   1.757904
    17  H    2.368381   3.842915   4.299660   3.694585   1.782062
    18  C    2.198308   3.229975   2.761339   4.054723   4.442077
    19  H    2.617062   3.121656   3.195979   4.367312   4.474217
    20  H    2.479425   4.321629   3.712868   5.051817   5.334300
    21  H    3.106106   3.066348   2.150818   3.765365   4.806260
    22  C    3.211376   4.945254   3.632613   4.659027   5.491051
    23  H    3.092150   5.475208   4.349453   5.457668   5.949641
    24  H    4.125353   5.799374   4.376854   5.241595   6.186406
    25  H    3.692443   4.594363   3.088887   4.415769   5.684232
    26  C    2.523577   5.217218   4.550188   4.704556   4.389732
    27  H    3.607145   6.044699   5.183412   5.295080   5.227521
    28  H    2.349288   5.707565   5.132915   5.486050   4.932066
    29  H    2.630162   5.080173   4.726280   4.492219   3.701527
                   16         17         18         19         20
    16  H    0.000000
    17  H    1.796695   0.000000
    18  C    4.568539   4.124357   0.000000
    19  H    5.001226   4.371985   1.096844   0.000000
    20  H    5.322712   4.727052   1.092135   1.763872   0.000000
    21  H    4.805018   4.748890   1.091806   1.768184   1.767199
    22  C    4.592181   4.696527   2.911130   4.005676   2.754635
    23  H    5.224629   4.963737   2.860300   3.883940   2.316263
    24  H    5.035568   5.335863   4.006083   5.101683   3.813501
    25  H    4.938826   5.203942   2.703883   3.763608   2.683372
    26  C    3.263223   3.014221   3.912801   4.764330   3.967719
    27  H    3.855311   3.919030   4.794476   5.725242   4.773562
    28  H    4.092138   3.394349   3.864834   4.648633   3.670201
    29  H    2.554130   2.217799   4.359654   5.055630   4.600358
                   21         22         23         24         25
    21  H    0.000000
    22  C    2.861850   0.000000
    23  H    3.079764   1.091998   0.000000
    24  H    3.873811   1.098574   1.776857   0.000000
    25  H    2.263420   1.089863   1.793436   1.762074   0.000000
    26  C    4.372264   2.535874   2.761642   2.778426   3.489649
    27  H    5.110525   2.781527   3.107345   2.572406   3.778286
    28  H    4.511486   2.769683   2.545680   3.125080   3.774983
    29  H    4.877864   3.488309   3.771275   3.770301   4.331677
                   26         27         28         29
    26  C    0.000000
    27  H    1.096975   0.000000
    28  H    1.093077   1.779993   0.000000
    29  H    1.090420   1.760919   1.789835   0.000000
 Framework group  C1[X(C8H16Cl3FeO)]
 Deg. of freedom    81
                         Standard orientation:                         
 ---------------------------------------------------------------------
 Center     Atomic      Atomic             Coordinates (Angstroms)
 Number     Number       Type             X           Y           Z
 ---------------------------------------------------------------------
      1          8           0       -0.336813   -0.127726   -0.640122
      2          6           0       -1.284118   -1.057200   -0.550733
      3          6           0       -2.877533   -0.194094    0.169391
      4          6           0       -2.319644    1.040698   -0.165054
      5          6           0       -2.475056    1.637982   -1.517766
      6         26           0        1.403744    0.079648    0.021556
      7         17           0        1.950398    2.084628   -0.714480
      8          6           0       -1.559028    1.857637    0.812906
      9         17           0        2.569910   -1.610370   -0.767422
     10         17           0        1.242435    0.015612    2.240796
     11          1           0       -3.621874   -0.566401   -0.531855
     12          1           0       -2.289681    2.526984    1.296291
     13          1           0       -1.084720    1.268164    1.597267
     14          1           0       -0.806871    2.479081    0.320650
     15          1           0       -2.827024    2.671623   -1.404776
     16          1           0       -1.485572    1.696853   -1.988348
     17          1           0       -3.169408    1.093833   -2.159162
     18          6           0       -3.143630   -0.571839    1.613794
     19          1           0       -3.994229    0.006686    1.994395
     20          1           0       -3.404553   -1.629019    1.697755
     21          1           0       -2.291028   -0.381134    2.268577
     22          6           0       -1.016288   -2.173762    0.437810
     23          1           0       -1.850323   -2.874377    0.515162
     24          1           0       -0.145779   -2.713080    0.040047
     25          1           0       -0.740603   -1.796512    1.422433
     26          6           0       -1.751980   -1.554501   -1.908662
     27          1           0       -0.902376   -2.097802   -2.340345
     28          1           0       -2.602503   -2.236790   -1.831792
     29          1           0       -1.989252   -0.734480   -2.587104
 ---------------------------------------------------------------------
 Rotational constants (GHZ):           0.5781555           0.3485204           0.3243822
   427 basis functions,  1056 primitive gaussians,   461 cartesian basis functions
    77 alpha electrons       72 beta electrons
       nuclear repulsion energy      1656.3577947813 Hartrees.
 NAtoms=   29 NActive=   29 NUniq=   29 SFac= 1.00D+00 NAtFMM=   60 NAOKFM=F Big=F
 Nuclear repulsion after empirical dispersion term =     1656.2558762006 Hartrees.
 Initial guess from the checkpoint file:  "checkpoint.chk"
 B after Tr=     0.000000    0.000000    0.000000
         Rot=    1.000000    0.000000    0.000000    0.000000 Ang=   0.00 deg.
 Initial guess <Sx>= 0.0000 <Sy>= 0.0000 <Sz>= 2.5000 <S**2>= 8.7613 S= 2.5019
 SCF Done:  E(UB97D3) =  -3034.60398227     A.U. after   16 cycles
            NFock= 16  Conv=0.57D-08     -V/T= 2.0019
 <Sx>= 0.0000 <Sy>= 0.0000 <Sz>= 2.5000 <S**2>= 8.7592 S= 2.5015
 <L.S>= 0.000000000000E+00
 Annihilation of the first spin contaminant:
 S**2 before annihilation     8.7592,   after     8.7500
 1\1\GINC-HOLY7C06108\SP\UB97D3\Jul-CC-pVDZ\C8H16Cl3Fe1O1(6)\EKWAN\11-F
 eb-2020\0\\#t pop=none jul-cc-pvdz guess=read ub97d3 empiricaldispersi
 on=gd3bj\\theory_abbreviation b97d3_d3bj\\0,6\O,0,-0.336813,-0.127726,
 -0.640122\C,0,-1.284118,-1.0572,-0.550733\C,0,-2.877533,-0.194094,0.16
 9391\C,0,-2.319644,1.040698,-0.165054\C,0,-2.475056,1.637982,-1.517766
 \Fe,0,1.403744,0.079648,0.021556\Cl,0,1.950398,2.084628,-0.71448\C,0,-
 1.559028,1.857637,0.812906\Cl,0,2.56991,-1.61037,-0.767422\Cl,0,1.2424
 35,0.015612,2.240796\H,0,-3.621874,-0.566401,-0.531855\H,0,-2.289681,2
 .526984,1.296291\H,0,-1.08472,1.268164,1.597267\H,0,-0.806871,2.479081
 ,0.32065\H,0,-2.827024,2.671623,-1.404776\H,0,-1.485572,1.696853,-1.98
 8348\H,0,-3.169408,1.093833,-2.159162\C,0,-3.14363,-0.571839,1.613794\
 H,0,-3.994229,0.006686,1.994395\H,0,-3.404553,-1.629019,1.697755\H,0,-
 2.291028,-0.381134,2.268577\C,0,-1.016288,-2.173762,0.43781\H,0,-1.850
 323,-2.874377,0.515162\H,0,-0.145779,-2.71308,0.040047\H,0,-0.740603,-
 1.796512,1.422433\C,0,-1.75198,-1.554501,-1.908662\H,0,-0.902376,-2.09
 7802,-2.340345\H,0,-2.602503,-2.23679,-1.831792\H,0,-1.989252,-0.73448
 ,-2.587104\\Version=ES64L-G16RevA.03\HF=-3034.6039823\S2=8.759222\S2-1
 =0.\S2A=8.750027\RMSD=5.664e-09\PG=C01 [X(C8H16Cl3Fe1O1)]\\@


 THIS CURIOUS WORLD WHICH WE INHABIT IS MORE WONDERFUL THAN IT IS CONVENIENT;
 MORE BEAUTIFUL THAN IT IS USEFUL;
 IT IS MORE TO BE ADMIRED THAN IT IS TO BE USED.

                                                                 -- THOREAU
 Job cpu time:       0 days  0 hours 51 minutes 11.9 seconds.
 Elapsed time:       0 days  0 hours 12 minutes 50.4 seconds.
 File lengths (MBytes):  RWF=    174 Int=      0 D2E=      0 Chk=     13 Scr=      1
 Normal termination of Gaussian 16 at Tue Feb 11 23:47:12 2020.
