 Entering Gaussian System, Link 0=g16
 Input=simple-grid-180-210-b3lyp_d3bj-631gd-gas-singlepoint-DFT-juldz2-gas.gjf
 Output=simple-grid-180-210-b3lyp_d3bj-631gd-gas-singlepoint-DFT-juldz2-gas.out
 Initial command:
 /n/sw/g16_nehalem/g16/l1.exe "/scratch/Gau-274529.inp" -scrdir="/scratch/"
 Entering Link 1 = /n/sw/g16_nehalem/g16/l1.exe PID=    274538.
  
 Copyright (c) 1988,1990,1992,1993,1995,1998,2003,2009,2016,
            Gaussian, Inc.  All Rights Reserved.
  
 This is part of the Gaussian(R) 16 program.  It is based on
 the Gaussian(R) 09 system (copyright 2009, Gaussian, Inc.),
 the Gaussian(R) 03 system (copyright 2003, Gaussian, Inc.),
 the Gaussian(R) 98 system (copyright 1998, Gaussian, Inc.),
 the Gaussian(R) 94 system (copyright 1995, Gaussian, Inc.),
 the Gaussian 92(TM) system (copyright 1992, Gaussian, Inc.),
 the Gaussian 90(TM) system (copyright 1990, Gaussian, Inc.),
 the Gaussian 88(TM) system (copyright 1988, Gaussian, Inc.),
 the Gaussian 86(TM) system (copyright 1986, Carnegie Mellon
 University), and the Gaussian 82(TM) system (copyright 1983,
 Carnegie Mellon University). Gaussian is a federally registered
 trademark of Gaussian, Inc.
  
 This software contains proprietary and confidential information,
 including trade secrets, belonging to Gaussian, Inc.
  
 This software is provided under written license and may be
 used, copied, transmitted, or stored only in accord with that
 written license.
  
 The following legend is applicable only to US Government
 contracts under FAR:
  
                    RESTRICTED RIGHTS LEGEND
  
 Use, reproduction and disclosure by the US Government is
 subject to restrictions as set forth in subparagraphs (a)
 and (c) of the Commercial Computer Software - Restricted
 Rights clause in FAR 52.227-19.
  
 Gaussian, Inc.
 340 Quinnipiac St., Bldg. 40, Wallingford CT 06492
  
  
 ---------------------------------------------------------------
 Warning -- This program may not be used in any manner that
 competes with the business of Gaussian, Inc. or will provide
 assistance to any competitor of Gaussian, Inc.  The licensee
 of this program is prohibited from giving any competitor of
 Gaussian, Inc. access to this program.  By using this program,
 the user acknowledges that Gaussian, Inc. is engaged in the
 business of creating and licensing software in the field of
 computational chemistry and represents and warrants to the
 licensee that it is not a competitor of Gaussian, Inc. and that
 it will not use this program in any manner prohibited above.
 ---------------------------------------------------------------
  

 Cite this work as:
 Gaussian 16, Revision A.03,
 M. J. Frisch, G. W. Trucks, H. B. Schlegel, G. E. Scuseria, 
 M. A. Robb, J. R. Cheeseman, G. Scalmani, V. Barone, 
 G. A. Petersson, H. Nakatsuji, X. Li, M. Caricato, A. V. Marenich, 
 J. Bloino, B. G. Janesko, R. Gomperts, B. Mennucci, H. P. Hratchian, 
 J. V. Ortiz, A. F. Izmaylov, J. L. Sonnenberg, D. Williams-Young, 
 F. Ding, F. Lipparini, F. Egidi, J. Goings, B. Peng, A. Petrone, 
 T. Henderson, D. Ranasinghe, V. G. Zakrzewski, J. Gao, N. Rega, 
 G. Zheng, W. Liang, M. Hada, M. Ehara, K. Toyota, R. Fukuda, 
 J. Hasegawa, M. Ishida, T. Nakajima, Y. Honda, O. Kitao, H. Nakai, 
 T. Vreven, K. Throssell, J. A. Montgomery, Jr., J. E. Peralta, 
 F. Ogliaro, M. J. Bearpark, J. J. Heyd, E. N. Brothers, K. N. Kudin, 
 V. N. Staroverov, T. A. Keith, R. Kobayashi, J. Normand, 
 K. Raghavachari, A. P. Rendell, J. C. Burant, S. S. Iyengar, 
 J. Tomasi, M. Cossi, J. M. Millam, M. Klene, C. Adamo, R. Cammi, 
 J. W. Ochterski, R. L. Martin, K. Morokuma, O. Farkas, 
 J. B. Foresman, and D. J. Fox, Gaussian, Inc., Wallingford CT, 2016.
 
 ******************************************
 Gaussian 16:  ES64L-G16RevA.03 25-Dec-2016
                11-Feb-2020 
 ******************************************
 %chk=checkpoint.chk
 %mem=3GB
 %nprocshared=4
 Will use up to    4 processors via shared memory.
 --------------------------------
 #t pop=none jul-cc-pvdz upbe1pbe
 --------------------------------
 ------------------------
 theory_abbreviation pbe0
 ------------------------
 Symbolic Z-matrix:
 Charge =  0 Multiplicity = 6
 O                    -0.3877   -0.19901  -0.53729 
 C                    -1.39576  -1.20638  -0.38477 
 C                    -2.81805  -0.12329  -0.17504 
 C                    -1.99877   1.12193  -0.27345 
 C                    -1.89575   1.82794  -1.57257 
 Fe                    1.37829   0.04455   0.03656 
 Cl                    1.81705   2.03686  -0.82928 
 C                    -1.57207   1.85389   0.94171 
 Cl                    2.52565  -1.66693  -0.71702 
 Cl                    1.32791   0.14429   2.25171 
 H                    -3.42965  -0.24685  -1.0716 
 H                    -2.43615   2.45986   1.2612 
 H                    -1.31002   1.18947   1.76574 
 H                    -0.73764   2.52627   0.73263 
 H                    -2.66833   2.615    -1.56912 
 H                    -0.92072   2.31182  -1.67677 
 H                    -2.08683   1.16654  -2.41879 
 C                    -3.63082  -0.34581   1.08885 
 H                    -4.43134   0.3981    1.1822 
 H                    -4.10324  -1.33182   1.05276 
 H                    -3.02203  -0.30212   1.99475 
 C                    -1.16517  -2.07407   0.83055 
 H                    -1.98458  -2.78564   0.97119 
 H                    -0.24099  -2.64459   0.67457 
 H                    -1.03382  -1.48232   1.73813 
 C                    -1.53522  -1.98986  -1.67148 
 H                    -0.59463  -2.522    -1.85765 
 H                    -2.34787  -2.72115  -1.60598 
 H                    -1.71672  -1.32448  -2.52016 
 
                    Distance matrix (angstroms):
                    1          2          3          4          5
     1  O    0.000000
     2  C    1.433269   0.000000
     3  C    2.458371   1.799997   0.000000
     4  C    2.100002   2.407698   1.493811   0.000000
     5  C    2.730301   3.296662   2.571197   1.482157   0.000000
     6  Fe   1.872787   3.072081   4.205024   3.558279   4.060681
     7  Cl   3.153606   4.586753   5.155425   3.963140   3.792227
     8  C    2.793659   3.340039   2.590141   1.481369   2.535162
     9  Cl   3.267214   3.962315   5.588534   5.333364   5.700426
    10  Cl   3.292369   4.024141   4.811415   4.289405   5.277482
    11  H    3.088889   2.351414   1.092313   2.134948   2.628414
    12  H    3.807926   4.151259   2.980148   2.082433   2.953236
    13  H    2.842972   3.220580   2.786418   2.153426   3.448923
    14  H    3.026928   3.951505   3.488860   2.138885   2.672608
    15  H    3.766242   4.198223   3.076380   2.087186   1.102884
    16  H    2.808339   3.777919   3.432904   2.132449   1.093471
    17  H    2.879552   3.200876   2.689387   2.147613   1.090895
    18  C    3.630934   2.812042   1.519044   2.583347   3.849519
    19  H    4.434439   3.774189   2.171784   2.925795   4.007800
    20  H    4.197234   3.068005   2.149357   3.494067   4.663634
    21  H    3.655349   3.020687   2.186681   2.867007   4.304822
    22  C    2.447718   1.510979   2.747501   3.482537   4.640521
    23  H    3.393553   2.163185   3.016059   4.101021   5.269129
    24  H    2.733313   2.127002   3.704060   4.263233   5.271756
    25  H    2.691082   2.171138   2.947993   3.429239   4.760412
    26  C    2.410462   1.512913   2.714607   3.442754   3.836063
    27  H    2.680014   2.131210   3.678130   4.214201   4.549307
    28  H    3.368319   2.166192   3.002926   4.082491   4.571629
    29  H    2.639088   2.162609   2.855770   3.333494   3.296631
                    6          7          8          9         10
     6  Fe   0.000000
     7  Cl   2.216187   0.000000
     8  C    3.577373   3.828310   0.000000
     9  Cl   2.193958   3.772629   5.651439   0.000000
    10  Cl   2.217969   3.648778   3.612299   3.678100   0.000000
    11  H    4.942589   5.727287   3.452117   6.132529   5.816508
    12  H    4.677975   4.758018   1.102690   6.750051   4.528927
    13  H    3.395276   4.150991   1.090484   5.388451   2.878754
    14  H    3.334761   3.034060   1.091824   5.507581   3.499708
    15  H    5.055744   4.582598   2.843471   6.785160   6.055831
    16  H    3.655334   2.879098   2.736853   5.350610   5.018714
    17  H    4.392570   4.303979   3.468486   5.674464   5.875293
    18  C    5.133303   6.247840   3.016418   6.550460   5.116777
    19  H    5.932058   6.765645   3.217549   7.501406   5.863212
    20  H    5.742315   7.066812   4.070369   6.869246   5.754454
    21  H    4.828819   6.071461   2.803512   6.324010   4.380328
    22  C    3.404136   5.343067   3.950537   4.022797   3.627153
    23  H    4.493589   6.399256   4.657922   4.944055   4.603996
    24  H    3.203208   5.330381   4.698875   3.247549   3.567442
    25  H    3.323394   5.206117   3.471929   4.328007   2.913314
    26  C    3.942675   5.306729   4.648061   4.184003   5.305041
    27  H    3.750677   5.258980   5.285848   3.430495   5.262326
    28  H    4.922523   6.370901   5.293727   5.064857   6.050109
    29  H    4.241481   5.161899   4.701863   4.622370   5.847893
                   11         12         13         14         15
    11  H    0.000000
    12  H    3.708808   0.000000
    13  H    3.821828   1.771059   0.000000
    14  H    4.265248   1.780095   1.783809   0.000000
    15  H    3.002882   2.844055   3.872782   3.005573   0.000000
    16  H    3.634243   3.309091   3.641716   2.425840   1.776976
    17  H    2.369758   3.916253   4.256090   3.687905   1.777112
    18  C    2.172050   3.054297   2.863806   4.092214   4.093600
    19  H    2.549311   2.870172   3.272532   4.286568   3.948751
    20  H    2.478673   4.147226   3.829795   5.129777   4.950820
    21  H    3.093825   2.917176   2.282165   3.848532   4.619079
    22  C    3.476318   4.728356   3.397972   4.621199   5.477706
    23  H    3.564644   5.272884   4.109480   5.461516   6.007293
    24  H    4.354980   5.587335   4.127164   5.194981   6.212037
    25  H    3.893712   4.211273   2.686171   4.143378   5.513399
    26  C    2.643260   5.404839   4.687569   5.177962   4.743330
    27  H    3.719079   6.159333   5.236005   5.675831   5.547278
    28  H    2.752817   5.922110   5.266742   5.966353   5.345896
    29  H    2.488723   5.397920   4.985413   5.134937   4.162884
                   16         17         18         19         20
    16  H    0.000000
    17  H    1.795014   0.000000
    18  C    4.696408   4.120030   0.000000
    19  H    4.915334   4.365138   1.096797   0.000000
    20  H    5.554717   4.728575   1.093938   1.765511   0.000000
    21  H    4.972753   4.744574   1.092337   1.771077   1.765401
    22  C    5.057908   4.680734   3.022081   4.111341   3.038508
    23  H    5.841879   5.207894   2.945623   4.020867   2.570790
    24  H    5.527821   5.244115   4.116668   5.203339   4.096754
    25  H    5.105864   5.040371   2.908196   3.922778   3.148603
    26  C    4.345353   3.290234   3.835858   4.715229   3.801214
    27  H    4.848184   4.018322   4.757739   5.699832   4.711410
    28  H    5.231882   3.980326   3.814481   4.673815   3.475695
    29  H    3.816760   2.520412   4.200773   4.903465   4.296661
                   21         22         23         24         25
    21  H    0.000000
    22  C    2.818343   0.000000
    23  H    2.879557   1.094320   0.000000
    24  H    3.868365   1.097247   1.774259   0.000000
    25  H    2.326305   1.091379   1.786274   1.763695   0.000000
    26  C    4.301198   2.530647   2.796221   2.758190   3.483447
    27  H    5.065684   2.784352   3.162876   2.559728   3.768748
    28  H    4.389927   2.784630   2.603440   3.105750   3.800587
    29  H    4.809732   3.477555   3.794237   3.758559   4.315591
                   26         27         28         29
    26  C    0.000000
    27  H    1.096605   0.000000
    28  H    1.095208   1.782373   0.000000
    29  H    1.093590   1.769765   1.784590   0.000000
 Framework group  C1[X(C8H16Cl3FeO)]
 Deg. of freedom    81
                         Standard orientation:                         
 ---------------------------------------------------------------------
 Center     Atomic      Atomic             Coordinates (Angstroms)
 Number     Number       Type             X           Y           Z
 ---------------------------------------------------------------------
      1          8           0       -0.387699   -0.199005   -0.537292
      2          6           0       -1.395762   -1.206380   -0.384768
      3          6           0       -2.818054   -0.123288   -0.175036
      4          6           0       -1.998767    1.121925   -0.273451
      5          6           0       -1.895751    1.827943   -1.572572
      6         26           0        1.378288    0.044546    0.036557
      7         17           0        1.817046    2.036855   -0.829283
      8          6           0       -1.572065    1.853888    0.941707
      9         17           0        2.525647   -1.666928   -0.717019
     10         17           0        1.327911    0.144287    2.251709
     11          1           0       -3.429649   -0.246845   -1.071603
     12          1           0       -2.436152    2.459863    1.261197
     13          1           0       -1.310015    1.189469    1.765741
     14          1           0       -0.737640    2.526272    0.732629
     15          1           0       -2.668330    2.615003   -1.569116
     16          1           0       -0.920721    2.311822   -1.676768
     17          1           0       -2.086830    1.166544   -2.418794
     18          6           0       -3.630815   -0.345811    1.088846
     19          1           0       -4.431342    0.398100    1.182204
     20          1           0       -4.103238   -1.331820    1.052762
     21          1           0       -3.022028   -0.302122    1.994754
     22          6           0       -1.165173   -2.074066    0.830554
     23          1           0       -1.984578   -2.785638    0.971186
     24          1           0       -0.240985   -2.644588    0.674565
     25          1           0       -1.033821   -1.482322    1.738130
     26          6           0       -1.535216   -1.989859   -1.671476
     27          1           0       -0.594627   -2.522000   -1.857651
     28          1           0       -2.347867   -2.721152   -1.605976
     29          1           0       -1.716724   -1.324484   -2.520163
 ---------------------------------------------------------------------
 Rotational constants (GHZ):           0.5708790           0.3606232           0.3244498
   427 basis functions,  1056 primitive gaussians,   461 cartesian basis functions
    77 alpha electrons       72 beta electrons
       nuclear repulsion energy      1658.3911173562 Hartrees.
 NAtoms=   29 NActive=   29 NUniq=   29 SFac= 1.00D+00 NAtFMM=   60 NAOKFM=F Big=F
 ExpMin= 1.40D-02 ExpMax= 4.32D+06 ExpMxC= 4.91D+03 IAcc=3 IRadAn=         5 AccDes= 0.00D+00
 Harris functional with IExCor= 1009 and IRadAn=       5 diagonalized for initial guess.
 HarFok:  IExCor= 1009 AccDes= 0.00D+00 IRadAn=         5 IDoV= 1 UseB2=F ITyADJ=14
 ICtDFT=  3500011 ScaDFX=  1.000000  1.000000  1.000000  1.000000
 FoFCou: FMM=F IPFlag=           0 FMFlag=      100000 FMFlg1=           0
         NFxFlg=           0 DoJE=T BraDBF=F KetDBF=T FulRan=T
         wScrn=  0.000000 ICntrl=       500 IOpCl=  0 I1Cent=   200000004 NGrid=           0
         NMat0=    1 NMatS0=      1 NMatT0=    0 NMatD0=    1 NMtDS0=    0 NMtDT0=    0
 Petite list used in FoFCou.
 Initial guess <Sx>= 0.0000 <Sy>= 0.0000 <Sz>= 2.5000 <S**2>= 8.7500 S= 2.5000
 EnCoef did   100 forward-backward iterations
 Restarting incremental Fock formation.
 SCF Done:  E(UPBE1PBE) =  -3033.10781350     A.U. after   21 cycles
            NFock= 21  Conv=0.44D-08     -V/T= 2.0022
 <Sx>= 0.0000 <Sy>= 0.0000 <Sz>= 2.5000 <S**2>= 8.7626 S= 2.5021
 <L.S>= 0.000000000000E+00
 Annihilation of the first spin contaminant:
 S**2 before annihilation     8.7626,   after     8.7501
 1\1\GINC-HOLY7C04303\SP\UPBE1PBE\Jul-CC-pVDZ\C8H16Cl3Fe1O1(6)\EKWAN\11
 -Feb-2020\0\\#t pop=none jul-cc-pvdz upbe1pbe\\theory_abbreviation pbe
 0\\0,6\O,0,-0.387699,-0.199005,-0.537292\C,0,-1.395762,-1.20638,-0.384
 768\C,0,-2.818054,-0.123288,-0.175036\C,0,-1.998767,1.121925,-0.273451
 \C,0,-1.895751,1.827943,-1.572572\Fe,0,1.378288,0.044546,0.036557\Cl,0
 ,1.817046,2.036855,-0.829283\C,0,-1.572065,1.853888,0.941707\Cl,0,2.52
 5647,-1.666928,-0.717019\Cl,0,1.327911,0.144287,2.251709\H,0,-3.429649
 ,-0.246845,-1.071603\H,0,-2.436152,2.459863,1.261197\H,0,-1.310015,1.1
 89469,1.765741\H,0,-0.73764,2.526272,0.732629\H,0,-2.66833,2.615003,-1
 .569116\H,0,-0.920721,2.311822,-1.676768\H,0,-2.08683,1.166544,-2.4187
 94\C,0,-3.630815,-0.345811,1.088846\H,0,-4.431342,0.3981,1.182204\H,0,
 -4.103238,-1.33182,1.052762\H,0,-3.022028,-0.302122,1.994754\C,0,-1.16
 5173,-2.074066,0.830554\H,0,-1.984578,-2.785638,0.971186\H,0,-0.240985
 ,-2.644588,0.674565\H,0,-1.033821,-1.482322,1.73813\C,0,-1.535216,-1.9
 89859,-1.671476\H,0,-0.594627,-2.522,-1.857651\H,0,-2.347867,-2.721152
 ,-1.605976\H,0,-1.716724,-1.324484,-2.520163\\Version=ES64L-G16RevA.03
 \HF=-3033.1078135\S2=8.762647\S2-1=0.\S2A=8.75005\RMSD=4.366e-09\PG=C0
 1 [X(C8H16Cl3Fe1O1)]\\@


 THE MOST SERIOUS THREAT TO THE SURVIVAL OF MANKIND IS NOT NOW
 IGNORANCE IN THE TRADITIONAL SENSE,
 BUT A MORALLY NEUTRAL, AN INSENSITIVE OR INHIBITED HUMAN INTELLIGENCE.

                     -- MARGO JEFFERSON IN NEWSWEEK, SEPTEMBER 2, 1974
 Job cpu time:       0 days  1 hours 30 minutes 26.0 seconds.
 Elapsed time:       0 days  0 hours 22 minutes 40.7 seconds.
 File lengths (MBytes):  RWF=    173 Int=      0 D2E=      0 Chk=     13 Scr=      1
 Normal termination of Gaussian 16 at Tue Feb 11 13:58:12 2020.
 Initial command:
 /n/sw/g16_nehalem/g16/l1.exe "/scratch/Gau-274529.inp" -scrdir="/scratch/"
 Entering Link 1 = /n/sw/g16_nehalem/g16/l1.exe PID=    276271.
  
 Copyright (c) 1988,1990,1992,1993,1995,1998,2003,2009,2016,
            Gaussian, Inc.  All Rights Reserved.
  
 This is part of the Gaussian(R) 16 program.  It is based on
 the Gaussian(R) 09 system (copyright 2009, Gaussian, Inc.),
 the Gaussian(R) 03 system (copyright 2003, Gaussian, Inc.),
 the Gaussian(R) 98 system (copyright 1998, Gaussian, Inc.),
 the Gaussian(R) 94 system (copyright 1995, Gaussian, Inc.),
 the Gaussian 92(TM) system (copyright 1992, Gaussian, Inc.),
 the Gaussian 90(TM) system (copyright 1990, Gaussian, Inc.),
 the Gaussian 88(TM) system (copyright 1988, Gaussian, Inc.),
 the Gaussian 86(TM) system (copyright 1986, Carnegie Mellon
 University), and the Gaussian 82(TM) system (copyright 1983,
 Carnegie Mellon University). Gaussian is a federally registered
 trademark of Gaussian, Inc.
  
 This software contains proprietary and confidential information,
 including trade secrets, belonging to Gaussian, Inc.
  
 This software is provided under written license and may be
 used, copied, transmitted, or stored only in accord with that
 written license.
  
 The following legend is applicable only to US Government
 contracts under FAR:
  
                    RESTRICTED RIGHTS LEGEND
  
 Use, reproduction and disclosure by the US Government is
 subject to restrictions as set forth in subparagraphs (a)
 and (c) of the Commercial Computer Software - Restricted
 Rights clause in FAR 52.227-19.
  
 Gaussian, Inc.
 340 Quinnipiac St., Bldg. 40, Wallingford CT 06492
  
  
 ---------------------------------------------------------------
 Warning -- This program may not be used in any manner that
 competes with the business of Gaussian, Inc. or will provide
 assistance to any competitor of Gaussian, Inc.  The licensee
 of this program is prohibited from giving any competitor of
 Gaussian, Inc. access to this program.  By using this program,
 the user acknowledges that Gaussian, Inc. is engaged in the
 business of creating and licensing software in the field of
 computational chemistry and represents and warrants to the
 licensee that it is not a competitor of Gaussian, Inc. and that
 it will not use this program in any manner prohibited above.
 ---------------------------------------------------------------
  

 Cite this work as:
 Gaussian 16, Revision A.03,
 M. J. Frisch, G. W. Trucks, H. B. Schlegel, G. E. Scuseria, 
 M. A. Robb, J. R. Cheeseman, G. Scalmani, V. Barone, 
 G. A. Petersson, H. Nakatsuji, X. Li, M. Caricato, A. V. Marenich, 
 J. Bloino, B. G. Janesko, R. Gomperts, B. Mennucci, H. P. Hratchian, 
 J. V. Ortiz, A. F. Izmaylov, J. L. Sonnenberg, D. Williams-Young, 
 F. Ding, F. Lipparini, F. Egidi, J. Goings, B. Peng, A. Petrone, 
 T. Henderson, D. Ranasinghe, V. G. Zakrzewski, J. Gao, N. Rega, 
 G. Zheng, W. Liang, M. Hada, M. Ehara, K. Toyota, R. Fukuda, 
 J. Hasegawa, M. Ishida, T. Nakajima, Y. Honda, O. Kitao, H. Nakai, 
 T. Vreven, K. Throssell, J. A. Montgomery, Jr., J. E. Peralta, 
 F. Ogliaro, M. J. Bearpark, J. J. Heyd, E. N. Brothers, K. N. Kudin, 
 V. N. Staroverov, T. A. Keith, R. Kobayashi, J. Normand, 
 K. Raghavachari, A. P. Rendell, J. C. Burant, S. S. Iyengar, 
 J. Tomasi, M. Cossi, J. M. Millam, M. Klene, C. Adamo, R. Cammi, 
 J. W. Ochterski, R. L. Martin, K. Morokuma, O. Farkas, 
 J. B. Foresman, and D. J. Fox, Gaussian, Inc., Wallingford CT, 2016.
 
 ******************************************
 Gaussian 16:  ES64L-G16RevA.03 25-Dec-2016
                11-Feb-2020 
 ******************************************
 %chk=checkpoint.chk
 %mem=3GB
 %nprocshared=4
 Will use up to    4 processors via shared memory.
 ---------------------------------------------------------------------
 #t pop=none jul-cc-pvdz guess=read upbe1pbe empiricaldispersion=gd3bj
 ---------------------------------------------------------------------
 -----------------------------
 theory_abbreviation pbe0_d3bj
 -----------------------------
 Symbolic Z-matrix:
 Charge =  0 Multiplicity = 6
 O                    -0.3877   -0.19901  -0.53729 
 C                    -1.39576  -1.20638  -0.38477 
 C                    -2.81805  -0.12329  -0.17504 
 C                    -1.99877   1.12193  -0.27345 
 C                    -1.89575   1.82794  -1.57257 
 Fe                    1.37829   0.04455   0.03656 
 Cl                    1.81705   2.03686  -0.82928 
 C                    -1.57207   1.85389   0.94171 
 Cl                    2.52565  -1.66693  -0.71702 
 Cl                    1.32791   0.14429   2.25171 
 H                    -3.42965  -0.24685  -1.0716 
 H                    -2.43615   2.45986   1.2612 
 H                    -1.31002   1.18947   1.76574 
 H                    -0.73764   2.52627   0.73263 
 H                    -2.66833   2.615    -1.56912 
 H                    -0.92072   2.31182  -1.67677 
 H                    -2.08683   1.16654  -2.41879 
 C                    -3.63082  -0.34581   1.08885 
 H                    -4.43134   0.3981    1.1822 
 H                    -4.10324  -1.33182   1.05276 
 H                    -3.02203  -0.30212   1.99475 
 C                    -1.16517  -2.07407   0.83055 
 H                    -1.98458  -2.78564   0.97119 
 H                    -0.24099  -2.64459   0.67457 
 H                    -1.03382  -1.48232   1.73813 
 C                    -1.53522  -1.98986  -1.67148 
 H                    -0.59463  -2.522    -1.85765 
 H                    -2.34787  -2.72115  -1.60598 
 H                    -1.71672  -1.32448  -2.52016 
 
                    Distance matrix (angstroms):
                    1          2          3          4          5
     1  O    0.000000
     2  C    1.433269   0.000000
     3  C    2.458371   1.799997   0.000000
     4  C    2.100002   2.407698   1.493811   0.000000
     5  C    2.730301   3.296662   2.571197   1.482157   0.000000
     6  Fe   1.872787   3.072081   4.205024   3.558279   4.060681
     7  Cl   3.153606   4.586753   5.155425   3.963140   3.792227
     8  C    2.793659   3.340039   2.590141   1.481369   2.535162
     9  Cl   3.267214   3.962315   5.588534   5.333364   5.700426
    10  Cl   3.292369   4.024141   4.811415   4.289405   5.277482
    11  H    3.088889   2.351414   1.092313   2.134948   2.628414
    12  H    3.807926   4.151259   2.980148   2.082433   2.953236
    13  H    2.842972   3.220580   2.786418   2.153426   3.448923
    14  H    3.026928   3.951505   3.488860   2.138885   2.672608
    15  H    3.766242   4.198223   3.076380   2.087186   1.102884
    16  H    2.808339   3.777919   3.432904   2.132449   1.093471
    17  H    2.879552   3.200876   2.689387   2.147613   1.090895
    18  C    3.630934   2.812042   1.519044   2.583347   3.849519
    19  H    4.434439   3.774189   2.171784   2.925795   4.007800
    20  H    4.197234   3.068005   2.149357   3.494067   4.663634
    21  H    3.655349   3.020687   2.186681   2.867007   4.304822
    22  C    2.447718   1.510979   2.747501   3.482537   4.640521
    23  H    3.393553   2.163185   3.016059   4.101021   5.269129
    24  H    2.733313   2.127002   3.704060   4.263233   5.271756
    25  H    2.691082   2.171138   2.947993   3.429239   4.760412
    26  C    2.410462   1.512913   2.714607   3.442754   3.836063
    27  H    2.680014   2.131210   3.678130   4.214201   4.549307
    28  H    3.368319   2.166192   3.002926   4.082491   4.571629
    29  H    2.639088   2.162609   2.855770   3.333494   3.296631
                    6          7          8          9         10
     6  Fe   0.000000
     7  Cl   2.216187   0.000000
     8  C    3.577373   3.828310   0.000000
     9  Cl   2.193958   3.772629   5.651439   0.000000
    10  Cl   2.217969   3.648778   3.612299   3.678100   0.000000
    11  H    4.942589   5.727287   3.452117   6.132529   5.816508
    12  H    4.677975   4.758018   1.102690   6.750051   4.528927
    13  H    3.395276   4.150991   1.090484   5.388451   2.878754
    14  H    3.334761   3.034060   1.091824   5.507581   3.499708
    15  H    5.055744   4.582598   2.843471   6.785160   6.055831
    16  H    3.655334   2.879098   2.736853   5.350610   5.018714
    17  H    4.392570   4.303979   3.468486   5.674464   5.875293
    18  C    5.133303   6.247840   3.016418   6.550460   5.116777
    19  H    5.932058   6.765645   3.217549   7.501406   5.863212
    20  H    5.742315   7.066812   4.070369   6.869246   5.754454
    21  H    4.828819   6.071461   2.803512   6.324010   4.380328
    22  C    3.404136   5.343067   3.950537   4.022797   3.627153
    23  H    4.493589   6.399256   4.657922   4.944055   4.603996
    24  H    3.203208   5.330381   4.698875   3.247549   3.567442
    25  H    3.323394   5.206117   3.471929   4.328007   2.913314
    26  C    3.942675   5.306729   4.648061   4.184003   5.305041
    27  H    3.750677   5.258980   5.285848   3.430495   5.262326
    28  H    4.922523   6.370901   5.293727   5.064857   6.050109
    29  H    4.241481   5.161899   4.701863   4.622370   5.847893
                   11         12         13         14         15
    11  H    0.000000
    12  H    3.708808   0.000000
    13  H    3.821828   1.771059   0.000000
    14  H    4.265248   1.780095   1.783809   0.000000
    15  H    3.002882   2.844055   3.872782   3.005573   0.000000
    16  H    3.634243   3.309091   3.641716   2.425840   1.776976
    17  H    2.369758   3.916253   4.256090   3.687905   1.777112
    18  C    2.172050   3.054297   2.863806   4.092214   4.093600
    19  H    2.549311   2.870172   3.272532   4.286568   3.948751
    20  H    2.478673   4.147226   3.829795   5.129777   4.950820
    21  H    3.093825   2.917176   2.282165   3.848532   4.619079
    22  C    3.476318   4.728356   3.397972   4.621199   5.477706
    23  H    3.564644   5.272884   4.109480   5.461516   6.007293
    24  H    4.354980   5.587335   4.127164   5.194981   6.212037
    25  H    3.893712   4.211273   2.686171   4.143378   5.513399
    26  C    2.643260   5.404839   4.687569   5.177962   4.743330
    27  H    3.719079   6.159333   5.236005   5.675831   5.547278
    28  H    2.752817   5.922110   5.266742   5.966353   5.345896
    29  H    2.488723   5.397920   4.985413   5.134937   4.162884
                   16         17         18         19         20
    16  H    0.000000
    17  H    1.795014   0.000000
    18  C    4.696408   4.120030   0.000000
    19  H    4.915334   4.365138   1.096797   0.000000
    20  H    5.554717   4.728575   1.093938   1.765511   0.000000
    21  H    4.972753   4.744574   1.092337   1.771077   1.765401
    22  C    5.057908   4.680734   3.022081   4.111341   3.038508
    23  H    5.841879   5.207894   2.945623   4.020867   2.570790
    24  H    5.527821   5.244115   4.116668   5.203339   4.096754
    25  H    5.105864   5.040371   2.908196   3.922778   3.148603
    26  C    4.345353   3.290234   3.835858   4.715229   3.801214
    27  H    4.848184   4.018322   4.757739   5.699832   4.711410
    28  H    5.231882   3.980326   3.814481   4.673815   3.475695
    29  H    3.816760   2.520412   4.200773   4.903465   4.296661
                   21         22         23         24         25
    21  H    0.000000
    22  C    2.818343   0.000000
    23  H    2.879557   1.094320   0.000000
    24  H    3.868365   1.097247   1.774259   0.000000
    25  H    2.326305   1.091379   1.786274   1.763695   0.000000
    26  C    4.301198   2.530647   2.796221   2.758190   3.483447
    27  H    5.065684   2.784352   3.162876   2.559728   3.768748
    28  H    4.389927   2.784630   2.603440   3.105750   3.800587
    29  H    4.809732   3.477555   3.794237   3.758559   4.315591
                   26         27         28         29
    26  C    0.000000
    27  H    1.096605   0.000000
    28  H    1.095208   1.782373   0.000000
    29  H    1.093590   1.769765   1.784590   0.000000
 Framework group  C1[X(C8H16Cl3FeO)]
 Deg. of freedom    81
                         Standard orientation:                         
 ---------------------------------------------------------------------
 Center     Atomic      Atomic             Coordinates (Angstroms)
 Number     Number       Type             X           Y           Z
 ---------------------------------------------------------------------
      1          8           0       -0.387699   -0.199005   -0.537292
      2          6           0       -1.395762   -1.206380   -0.384768
      3          6           0       -2.818054   -0.123288   -0.175036
      4          6           0       -1.998767    1.121925   -0.273451
      5          6           0       -1.895751    1.827943   -1.572572
      6         26           0        1.378288    0.044546    0.036557
      7         17           0        1.817046    2.036855   -0.829283
      8          6           0       -1.572065    1.853888    0.941707
      9         17           0        2.525647   -1.666928   -0.717019
     10         17           0        1.327911    0.144287    2.251709
     11          1           0       -3.429649   -0.246845   -1.071603
     12          1           0       -2.436152    2.459863    1.261197
     13          1           0       -1.310015    1.189469    1.765741
     14          1           0       -0.737640    2.526272    0.732629
     15          1           0       -2.668330    2.615003   -1.569116
     16          1           0       -0.920721    2.311822   -1.676768
     17          1           0       -2.086830    1.166544   -2.418794
     18          6           0       -3.630815   -0.345811    1.088846
     19          1           0       -4.431342    0.398100    1.182204
     20          1           0       -4.103238   -1.331820    1.052762
     21          1           0       -3.022028   -0.302122    1.994754
     22          6           0       -1.165173   -2.074066    0.830554
     23          1           0       -1.984578   -2.785638    0.971186
     24          1           0       -0.240985   -2.644588    0.674565
     25          1           0       -1.033821   -1.482322    1.738130
     26          6           0       -1.535216   -1.989859   -1.671476
     27          1           0       -0.594627   -2.522000   -1.857651
     28          1           0       -2.347867   -2.721152   -1.605976
     29          1           0       -1.716724   -1.324484   -2.520163
 ---------------------------------------------------------------------
 Rotational constants (GHZ):           0.5708790           0.3606232           0.3244498
   427 basis functions,  1056 primitive gaussians,   461 cartesian basis functions
    77 alpha electrons       72 beta electrons
       nuclear repulsion energy      1658.3911173562 Hartrees.
 NAtoms=   29 NActive=   29 NUniq=   29 SFac= 1.00D+00 NAtFMM=   60 NAOKFM=F Big=F
 Nuclear repulsion after empirical dispersion term =     1658.3542092465 Hartrees.
 Initial guess from the checkpoint file:  "checkpoint.chk"
 B after Tr=     0.000000    0.000000    0.000000
         Rot=    1.000000    0.000000    0.000000    0.000000 Ang=   0.00 deg.
 Initial guess <Sx>= 0.0000 <Sy>= 0.0000 <Sz>= 2.5000 <S**2>= 8.7626 S= 2.5021
 SCF Done:  E(UPBE1PBE) =  -3033.14472161     A.U. after    1 cycles
            NFock=  1  Conv=0.17D-08     -V/T= 2.0022
 <Sx>= 0.0000 <Sy>= 0.0000 <Sz>= 2.5000 <S**2>= 8.7626 S= 2.5021
 <L.S>= 0.000000000000E+00
 Annihilation of the first spin contaminant:
 S**2 before annihilation     8.7626,   after     8.7501
 1\1\GINC-HOLY7C04303\SP\UPBE1PBE\Jul-CC-pVDZ\C8H16Cl3Fe1O1(6)\EKWAN\11
 -Feb-2020\0\\#t pop=none jul-cc-pvdz guess=read upbe1pbe empiricaldisp
 ersion=gd3bj\\theory_abbreviation pbe0_d3bj\\0,6\O,0,-0.387699,-0.1990
 05,-0.537292\C,0,-1.395762,-1.20638,-0.384768\C,0,-2.818054,-0.123288,
 -0.175036\C,0,-1.998767,1.121925,-0.273451\C,0,-1.895751,1.827943,-1.5
 72572\Fe,0,1.378288,0.044546,0.036557\Cl,0,1.817046,2.036855,-0.829283
 \C,0,-1.572065,1.853888,0.941707\Cl,0,2.525647,-1.666928,-0.717019\Cl,
 0,1.327911,0.144287,2.251709\H,0,-3.429649,-0.246845,-1.071603\H,0,-2.
 436152,2.459863,1.261197\H,0,-1.310015,1.189469,1.765741\H,0,-0.73764,
 2.526272,0.732629\H,0,-2.66833,2.615003,-1.569116\H,0,-0.920721,2.3118
 22,-1.676768\H,0,-2.08683,1.166544,-2.418794\C,0,-3.630815,-0.345811,1
 .088846\H,0,-4.431342,0.3981,1.182204\H,0,-4.103238,-1.33182,1.052762\
 H,0,-3.022028,-0.302122,1.994754\C,0,-1.165173,-2.074066,0.830554\H,0,
 -1.984578,-2.785638,0.971186\H,0,-0.240985,-2.644588,0.674565\H,0,-1.0
 33821,-1.482322,1.73813\C,0,-1.535216,-1.989859,-1.671476\H,0,-0.59462
 7,-2.522,-1.857651\H,0,-2.347867,-2.721152,-1.605976\H,0,-1.716724,-1.
 324484,-2.520163\\Version=ES64L-G16RevA.03\HF=-3033.1447216\S2=8.76264
 7\S2-1=0.\S2A=8.75005\RMSD=1.688e-09\PG=C01 [X(C8H16Cl3Fe1O1)]\\@


 DON'T WORRY CHARLIE BROWN...WE LEARN MORE FROM LOSING 
 THAN WE DO FROM WINNING.
 THEN THAT MAKES ME THE SMARTEST PERSON IN THE WORLD...
 CHARLES SCHULZ 'PEANUTS'
 Job cpu time:       0 days  0 hours  4 minutes 38.6 seconds.
 Elapsed time:       0 days  0 hours  1 minutes 10.3 seconds.
 File lengths (MBytes):  RWF=    170 Int=      0 D2E=      0 Chk=     13 Scr=      1
 Normal termination of Gaussian 16 at Tue Feb 11 13:59:23 2020.
 Initial command:
 /n/sw/g16_nehalem/g16/l1.exe "/scratch/Gau-274529.inp" -scrdir="/scratch/"
 Entering Link 1 = /n/sw/g16_nehalem/g16/l1.exe PID=    276520.
  
 Copyright (c) 1988,1990,1992,1993,1995,1998,2003,2009,2016,
            Gaussian, Inc.  All Rights Reserved.
  
 This is part of the Gaussian(R) 16 program.  It is based on
 the Gaussian(R) 09 system (copyright 2009, Gaussian, Inc.),
 the Gaussian(R) 03 system (copyright 2003, Gaussian, Inc.),
 the Gaussian(R) 98 system (copyright 1998, Gaussian, Inc.),
 the Gaussian(R) 94 system (copyright 1995, Gaussian, Inc.),
 the Gaussian 92(TM) system (copyright 1992, Gaussian, Inc.),
 the Gaussian 90(TM) system (copyright 1990, Gaussian, Inc.),
 the Gaussian 88(TM) system (copyright 1988, Gaussian, Inc.),
 the Gaussian 86(TM) system (copyright 1986, Carnegie Mellon
 University), and the Gaussian 82(TM) system (copyright 1983,
 Carnegie Mellon University). Gaussian is a federally registered
 trademark of Gaussian, Inc.
  
 This software contains proprietary and confidential information,
 including trade secrets, belonging to Gaussian, Inc.
  
 This software is provided under written license and may be
 used, copied, transmitted, or stored only in accord with that
 written license.
  
 The following legend is applicable only to US Government
 contracts under FAR:
  
                    RESTRICTED RIGHTS LEGEND
  
 Use, reproduction and disclosure by the US Government is
 subject to restrictions as set forth in subparagraphs (a)
 and (c) of the Commercial Computer Software - Restricted
 Rights clause in FAR 52.227-19.
  
 Gaussian, Inc.
 340 Quinnipiac St., Bldg. 40, Wallingford CT 06492
  
  
 ---------------------------------------------------------------
 Warning -- This program may not be used in any manner that
 competes with the business of Gaussian, Inc. or will provide
 assistance to any competitor of Gaussian, Inc.  The licensee
 of this program is prohibited from giving any competitor of
 Gaussian, Inc. access to this program.  By using this program,
 the user acknowledges that Gaussian, Inc. is engaged in the
 business of creating and licensing software in the field of
 computational chemistry and represents and warrants to the
 licensee that it is not a competitor of Gaussian, Inc. and that
 it will not use this program in any manner prohibited above.
 ---------------------------------------------------------------
  

 Cite this work as:
 Gaussian 16, Revision A.03,
 M. J. Frisch, G. W. Trucks, H. B. Schlegel, G. E. Scuseria, 
 M. A. Robb, J. R. Cheeseman, G. Scalmani, V. Barone, 
 G. A. Petersson, H. Nakatsuji, X. Li, M. Caricato, A. V. Marenich, 
 J. Bloino, B. G. Janesko, R. Gomperts, B. Mennucci, H. P. Hratchian, 
 J. V. Ortiz, A. F. Izmaylov, J. L. Sonnenberg, D. Williams-Young, 
 F. Ding, F. Lipparini, F. Egidi, J. Goings, B. Peng, A. Petrone, 
 T. Henderson, D. Ranasinghe, V. G. Zakrzewski, J. Gao, N. Rega, 
 G. Zheng, W. Liang, M. Hada, M. Ehara, K. Toyota, R. Fukuda, 
 J. Hasegawa, M. Ishida, T. Nakajima, Y. Honda, O. Kitao, H. Nakai, 
 T. Vreven, K. Throssell, J. A. Montgomery, Jr., J. E. Peralta, 
 F. Ogliaro, M. J. Bearpark, J. J. Heyd, E. N. Brothers, K. N. Kudin, 
 V. N. Staroverov, T. A. Keith, R. Kobayashi, J. Normand, 
 K. Raghavachari, A. P. Rendell, J. C. Burant, S. S. Iyengar, 
 J. Tomasi, M. Cossi, J. M. Millam, M. Klene, C. Adamo, R. Cammi, 
 J. W. Ochterski, R. L. Martin, K. Morokuma, O. Farkas, 
 J. B. Foresman, and D. J. Fox, Gaussian, Inc., Wallingford CT, 2016.
 
 ******************************************
 Gaussian 16:  ES64L-G16RevA.03 25-Dec-2016
                11-Feb-2020 
 ******************************************
 %chk=checkpoint.chk
 %mem=3GB
 %nprocshared=4
 Will use up to    4 processors via shared memory.
 -----------------------------------------
 #t pop=none jul-cc-pvdz guess=read ub3lyp
 -----------------------------------------
 -------------------------
 theory_abbreviation b3lyp
 -------------------------
 Symbolic Z-matrix:
 Charge =  0 Multiplicity = 6
 O                    -0.3877   -0.19901  -0.53729 
 C                    -1.39576  -1.20638  -0.38477 
 C                    -2.81805  -0.12329  -0.17504 
 C                    -1.99877   1.12193  -0.27345 
 C                    -1.89575   1.82794  -1.57257 
 Fe                    1.37829   0.04455   0.03656 
 Cl                    1.81705   2.03686  -0.82928 
 C                    -1.57207   1.85389   0.94171 
 Cl                    2.52565  -1.66693  -0.71702 
 Cl                    1.32791   0.14429   2.25171 
 H                    -3.42965  -0.24685  -1.0716 
 H                    -2.43615   2.45986   1.2612 
 H                    -1.31002   1.18947   1.76574 
 H                    -0.73764   2.52627   0.73263 
 H                    -2.66833   2.615    -1.56912 
 H                    -0.92072   2.31182  -1.67677 
 H                    -2.08683   1.16654  -2.41879 
 C                    -3.63082  -0.34581   1.08885 
 H                    -4.43134   0.3981    1.1822 
 H                    -4.10324  -1.33182   1.05276 
 H                    -3.02203  -0.30212   1.99475 
 C                    -1.16517  -2.07407   0.83055 
 H                    -1.98458  -2.78564   0.97119 
 H                    -0.24099  -2.64459   0.67457 
 H                    -1.03382  -1.48232   1.73813 
 C                    -1.53522  -1.98986  -1.67148 
 H                    -0.59463  -2.522    -1.85765 
 H                    -2.34787  -2.72115  -1.60598 
 H                    -1.71672  -1.32448  -2.52016 
 
                    Distance matrix (angstroms):
                    1          2          3          4          5
     1  O    0.000000
     2  C    1.433269   0.000000
     3  C    2.458371   1.799997   0.000000
     4  C    2.100002   2.407698   1.493811   0.000000
     5  C    2.730301   3.296662   2.571197   1.482157   0.000000
     6  Fe   1.872787   3.072081   4.205024   3.558279   4.060681
     7  Cl   3.153606   4.586753   5.155425   3.963140   3.792227
     8  C    2.793659   3.340039   2.590141   1.481369   2.535162
     9  Cl   3.267214   3.962315   5.588534   5.333364   5.700426
    10  Cl   3.292369   4.024141   4.811415   4.289405   5.277482
    11  H    3.088889   2.351414   1.092313   2.134948   2.628414
    12  H    3.807926   4.151259   2.980148   2.082433   2.953236
    13  H    2.842972   3.220580   2.786418   2.153426   3.448923
    14  H    3.026928   3.951505   3.488860   2.138885   2.672608
    15  H    3.766242   4.198223   3.076380   2.087186   1.102884
    16  H    2.808339   3.777919   3.432904   2.132449   1.093471
    17  H    2.879552   3.200876   2.689387   2.147613   1.090895
    18  C    3.630934   2.812042   1.519044   2.583347   3.849519
    19  H    4.434439   3.774189   2.171784   2.925795   4.007800
    20  H    4.197234   3.068005   2.149357   3.494067   4.663634
    21  H    3.655349   3.020687   2.186681   2.867007   4.304822
    22  C    2.447718   1.510979   2.747501   3.482537   4.640521
    23  H    3.393553   2.163185   3.016059   4.101021   5.269129
    24  H    2.733313   2.127002   3.704060   4.263233   5.271756
    25  H    2.691082   2.171138   2.947993   3.429239   4.760412
    26  C    2.410462   1.512913   2.714607   3.442754   3.836063
    27  H    2.680014   2.131210   3.678130   4.214201   4.549307
    28  H    3.368319   2.166192   3.002926   4.082491   4.571629
    29  H    2.639088   2.162609   2.855770   3.333494   3.296631
                    6          7          8          9         10
     6  Fe   0.000000
     7  Cl   2.216187   0.000000
     8  C    3.577373   3.828310   0.000000
     9  Cl   2.193958   3.772629   5.651439   0.000000
    10  Cl   2.217969   3.648778   3.612299   3.678100   0.000000
    11  H    4.942589   5.727287   3.452117   6.132529   5.816508
    12  H    4.677975   4.758018   1.102690   6.750051   4.528927
    13  H    3.395276   4.150991   1.090484   5.388451   2.878754
    14  H    3.334761   3.034060   1.091824   5.507581   3.499708
    15  H    5.055744   4.582598   2.843471   6.785160   6.055831
    16  H    3.655334   2.879098   2.736853   5.350610   5.018714
    17  H    4.392570   4.303979   3.468486   5.674464   5.875293
    18  C    5.133303   6.247840   3.016418   6.550460   5.116777
    19  H    5.932058   6.765645   3.217549   7.501406   5.863212
    20  H    5.742315   7.066812   4.070369   6.869246   5.754454
    21  H    4.828819   6.071461   2.803512   6.324010   4.380328
    22  C    3.404136   5.343067   3.950537   4.022797   3.627153
    23  H    4.493589   6.399256   4.657922   4.944055   4.603996
    24  H    3.203208   5.330381   4.698875   3.247549   3.567442
    25  H    3.323394   5.206117   3.471929   4.328007   2.913314
    26  C    3.942675   5.306729   4.648061   4.184003   5.305041
    27  H    3.750677   5.258980   5.285848   3.430495   5.262326
    28  H    4.922523   6.370901   5.293727   5.064857   6.050109
    29  H    4.241481   5.161899   4.701863   4.622370   5.847893
                   11         12         13         14         15
    11  H    0.000000
    12  H    3.708808   0.000000
    13  H    3.821828   1.771059   0.000000
    14  H    4.265248   1.780095   1.783809   0.000000
    15  H    3.002882   2.844055   3.872782   3.005573   0.000000
    16  H    3.634243   3.309091   3.641716   2.425840   1.776976
    17  H    2.369758   3.916253   4.256090   3.687905   1.777112
    18  C    2.172050   3.054297   2.863806   4.092214   4.093600
    19  H    2.549311   2.870172   3.272532   4.286568   3.948751
    20  H    2.478673   4.147226   3.829795   5.129777   4.950820
    21  H    3.093825   2.917176   2.282165   3.848532   4.619079
    22  C    3.476318   4.728356   3.397972   4.621199   5.477706
    23  H    3.564644   5.272884   4.109480   5.461516   6.007293
    24  H    4.354980   5.587335   4.127164   5.194981   6.212037
    25  H    3.893712   4.211273   2.686171   4.143378   5.513399
    26  C    2.643260   5.404839   4.687569   5.177962   4.743330
    27  H    3.719079   6.159333   5.236005   5.675831   5.547278
    28  H    2.752817   5.922110   5.266742   5.966353   5.345896
    29  H    2.488723   5.397920   4.985413   5.134937   4.162884
                   16         17         18         19         20
    16  H    0.000000
    17  H    1.795014   0.000000
    18  C    4.696408   4.120030   0.000000
    19  H    4.915334   4.365138   1.096797   0.000000
    20  H    5.554717   4.728575   1.093938   1.765511   0.000000
    21  H    4.972753   4.744574   1.092337   1.771077   1.765401
    22  C    5.057908   4.680734   3.022081   4.111341   3.038508
    23  H    5.841879   5.207894   2.945623   4.020867   2.570790
    24  H    5.527821   5.244115   4.116668   5.203339   4.096754
    25  H    5.105864   5.040371   2.908196   3.922778   3.148603
    26  C    4.345353   3.290234   3.835858   4.715229   3.801214
    27  H    4.848184   4.018322   4.757739   5.699832   4.711410
    28  H    5.231882   3.980326   3.814481   4.673815   3.475695
    29  H    3.816760   2.520412   4.200773   4.903465   4.296661
                   21         22         23         24         25
    21  H    0.000000
    22  C    2.818343   0.000000
    23  H    2.879557   1.094320   0.000000
    24  H    3.868365   1.097247   1.774259   0.000000
    25  H    2.326305   1.091379   1.786274   1.763695   0.000000
    26  C    4.301198   2.530647   2.796221   2.758190   3.483447
    27  H    5.065684   2.784352   3.162876   2.559728   3.768748
    28  H    4.389927   2.784630   2.603440   3.105750   3.800587
    29  H    4.809732   3.477555   3.794237   3.758559   4.315591
                   26         27         28         29
    26  C    0.000000
    27  H    1.096605   0.000000
    28  H    1.095208   1.782373   0.000000
    29  H    1.093590   1.769765   1.784590   0.000000
 Framework group  C1[X(C8H16Cl3FeO)]
 Deg. of freedom    81
                         Standard orientation:                         
 ---------------------------------------------------------------------
 Center     Atomic      Atomic             Coordinates (Angstroms)
 Number     Number       Type             X           Y           Z
 ---------------------------------------------------------------------
      1          8           0       -0.387699   -0.199005   -0.537292
      2          6           0       -1.395762   -1.206380   -0.384768
      3          6           0       -2.818054   -0.123288   -0.175036
      4          6           0       -1.998767    1.121925   -0.273451
      5          6           0       -1.895751    1.827943   -1.572572
      6         26           0        1.378288    0.044546    0.036557
      7         17           0        1.817046    2.036855   -0.829283
      8          6           0       -1.572065    1.853888    0.941707
      9         17           0        2.525647   -1.666928   -0.717019
     10         17           0        1.327911    0.144287    2.251709
     11          1           0       -3.429649   -0.246845   -1.071603
     12          1           0       -2.436152    2.459863    1.261197
     13          1           0       -1.310015    1.189469    1.765741
     14          1           0       -0.737640    2.526272    0.732629
     15          1           0       -2.668330    2.615003   -1.569116
     16          1           0       -0.920721    2.311822   -1.676768
     17          1           0       -2.086830    1.166544   -2.418794
     18          6           0       -3.630815   -0.345811    1.088846
     19          1           0       -4.431342    0.398100    1.182204
     20          1           0       -4.103238   -1.331820    1.052762
     21          1           0       -3.022028   -0.302122    1.994754
     22          6           0       -1.165173   -2.074066    0.830554
     23          1           0       -1.984578   -2.785638    0.971186
     24          1           0       -0.240985   -2.644588    0.674565
     25          1           0       -1.033821   -1.482322    1.738130
     26          6           0       -1.535216   -1.989859   -1.671476
     27          1           0       -0.594627   -2.522000   -1.857651
     28          1           0       -2.347867   -2.721152   -1.605976
     29          1           0       -1.716724   -1.324484   -2.520163
 ---------------------------------------------------------------------
 Rotational constants (GHZ):           0.5708790           0.3606232           0.3244498
   427 basis functions,  1056 primitive gaussians,   461 cartesian basis functions
    77 alpha electrons       72 beta electrons
       nuclear repulsion energy      1658.3911173562 Hartrees.
 NAtoms=   29 NActive=   29 NUniq=   29 SFac= 1.00D+00 NAtFMM=   60 NAOKFM=F Big=F
 Initial guess from the checkpoint file:  "checkpoint.chk"
 B after Tr=     0.000000    0.000000    0.000000
         Rot=    1.000000    0.000000    0.000000    0.000000 Ang=   0.00 deg.
 Initial guess <Sx>= 0.0000 <Sy>= 0.0000 <Sz>= 2.5000 <S**2>= 8.7626 S= 2.5021
 SCF Done:  E(UB3LYP) =  -3034.32127879     A.U. after   13 cycles
            NFock= 13  Conv=0.79D-08     -V/T= 2.0025
 <Sx>= 0.0000 <Sy>= 0.0000 <Sz>= 2.5000 <S**2>= 8.7620 S= 2.5020
 <L.S>= 0.000000000000E+00
 Annihilation of the first spin contaminant:
 S**2 before annihilation     8.7620,   after     8.7500
 1\1\GINC-HOLY7C04303\SP\UB3LYP\Jul-CC-pVDZ\C8H16Cl3Fe1O1(6)\EKWAN\11-F
 eb-2020\0\\#t pop=none jul-cc-pvdz guess=read ub3lyp\\theory_abbreviat
 ion b3lyp\\0,6\O,0,-0.387699,-0.199005,-0.537292\C,0,-1.395762,-1.2063
 8,-0.384768\C,0,-2.818054,-0.123288,-0.175036\C,0,-1.998767,1.121925,-
 0.273451\C,0,-1.895751,1.827943,-1.572572\Fe,0,1.378288,0.044546,0.036
 557\Cl,0,1.817046,2.036855,-0.829283\C,0,-1.572065,1.853888,0.941707\C
 l,0,2.525647,-1.666928,-0.717019\Cl,0,1.327911,0.144287,2.251709\H,0,-
 3.429649,-0.246845,-1.071603\H,0,-2.436152,2.459863,1.261197\H,0,-1.31
 0015,1.189469,1.765741\H,0,-0.73764,2.526272,0.732629\H,0,-2.66833,2.6
 15003,-1.569116\H,0,-0.920721,2.311822,-1.676768\H,0,-2.08683,1.166544
 ,-2.418794\C,0,-3.630815,-0.345811,1.088846\H,0,-4.431342,0.3981,1.182
 204\H,0,-4.103238,-1.33182,1.052762\H,0,-3.022028,-0.302122,1.994754\C
 ,0,-1.165173,-2.074066,0.830554\H,0,-1.984578,-2.785638,0.971186\H,0,-
 0.240985,-2.644588,0.674565\H,0,-1.033821,-1.482322,1.73813\C,0,-1.535
 216,-1.989859,-1.671476\H,0,-0.594627,-2.522,-1.857651\H,0,-2.347867,-
 2.721152,-1.605976\H,0,-1.716724,-1.324484,-2.520163\\Version=ES64L-G1
 6RevA.03\HF=-3034.3212788\S2=8.761976\S2-1=0.\S2A=8.750045\RMSD=7.905e
 -09\PG=C01 [X(C8H16Cl3Fe1O1)]\\@


 We make a living by what we get,
 we make a life by what we give.
                   -- Sir Winston Churchill
 Job cpu time:       0 days  0 hours 54 minutes 28.9 seconds.
 Elapsed time:       0 days  0 hours 13 minutes 40.0 seconds.
 File lengths (MBytes):  RWF=    174 Int=      0 D2E=      0 Chk=     13 Scr=      1
 Normal termination of Gaussian 16 at Tue Feb 11 14:13:04 2020.
 Initial command:
 /n/sw/g16_nehalem/g16/l1.exe "/scratch/Gau-274529.inp" -scrdir="/scratch/"
 Entering Link 1 = /n/sw/g16_nehalem/g16/l1.exe PID=    278682.
  
 Copyright (c) 1988,1990,1992,1993,1995,1998,2003,2009,2016,
            Gaussian, Inc.  All Rights Reserved.
  
 This is part of the Gaussian(R) 16 program.  It is based on
 the Gaussian(R) 09 system (copyright 2009, Gaussian, Inc.),
 the Gaussian(R) 03 system (copyright 2003, Gaussian, Inc.),
 the Gaussian(R) 98 system (copyright 1998, Gaussian, Inc.),
 the Gaussian(R) 94 system (copyright 1995, Gaussian, Inc.),
 the Gaussian 92(TM) system (copyright 1992, Gaussian, Inc.),
 the Gaussian 90(TM) system (copyright 1990, Gaussian, Inc.),
 the Gaussian 88(TM) system (copyright 1988, Gaussian, Inc.),
 the Gaussian 86(TM) system (copyright 1986, Carnegie Mellon
 University), and the Gaussian 82(TM) system (copyright 1983,
 Carnegie Mellon University). Gaussian is a federally registered
 trademark of Gaussian, Inc.
  
 This software contains proprietary and confidential information,
 including trade secrets, belonging to Gaussian, Inc.
  
 This software is provided under written license and may be
 used, copied, transmitted, or stored only in accord with that
 written license.
  
 The following legend is applicable only to US Government
 contracts under FAR:
  
                    RESTRICTED RIGHTS LEGEND
  
 Use, reproduction and disclosure by the US Government is
 subject to restrictions as set forth in subparagraphs (a)
 and (c) of the Commercial Computer Software - Restricted
 Rights clause in FAR 52.227-19.
  
 Gaussian, Inc.
 340 Quinnipiac St., Bldg. 40, Wallingford CT 06492
  
  
 ---------------------------------------------------------------
 Warning -- This program may not be used in any manner that
 competes with the business of Gaussian, Inc. or will provide
 assistance to any competitor of Gaussian, Inc.  The licensee
 of this program is prohibited from giving any competitor of
 Gaussian, Inc. access to this program.  By using this program,
 the user acknowledges that Gaussian, Inc. is engaged in the
 business of creating and licensing software in the field of
 computational chemistry and represents and warrants to the
 licensee that it is not a competitor of Gaussian, Inc. and that
 it will not use this program in any manner prohibited above.
 ---------------------------------------------------------------
  

 Cite this work as:
 Gaussian 16, Revision A.03,
 M. J. Frisch, G. W. Trucks, H. B. Schlegel, G. E. Scuseria, 
 M. A. Robb, J. R. Cheeseman, G. Scalmani, V. Barone, 
 G. A. Petersson, H. Nakatsuji, X. Li, M. Caricato, A. V. Marenich, 
 J. Bloino, B. G. Janesko, R. Gomperts, B. Mennucci, H. P. Hratchian, 
 J. V. Ortiz, A. F. Izmaylov, J. L. Sonnenberg, D. Williams-Young, 
 F. Ding, F. Lipparini, F. Egidi, J. Goings, B. Peng, A. Petrone, 
 T. Henderson, D. Ranasinghe, V. G. Zakrzewski, J. Gao, N. Rega, 
 G. Zheng, W. Liang, M. Hada, M. Ehara, K. Toyota, R. Fukuda, 
 J. Hasegawa, M. Ishida, T. Nakajima, Y. Honda, O. Kitao, H. Nakai, 
 T. Vreven, K. Throssell, J. A. Montgomery, Jr., J. E. Peralta, 
 F. Ogliaro, M. J. Bearpark, J. J. Heyd, E. N. Brothers, K. N. Kudin, 
 V. N. Staroverov, T. A. Keith, R. Kobayashi, J. Normand, 
 K. Raghavachari, A. P. Rendell, J. C. Burant, S. S. Iyengar, 
 J. Tomasi, M. Cossi, J. M. Millam, M. Klene, C. Adamo, R. Cammi, 
 J. W. Ochterski, R. L. Martin, K. Morokuma, O. Farkas, 
 J. B. Foresman, and D. J. Fox, Gaussian, Inc., Wallingford CT, 2016.
 
 ******************************************
 Gaussian 16:  ES64L-G16RevA.03 25-Dec-2016
                11-Feb-2020 
 ******************************************
 %chk=checkpoint.chk
 %mem=3GB
 %nprocshared=4
 Will use up to    4 processors via shared memory.
 -------------------------------------------------------------------
 #t pop=none jul-cc-pvdz guess=read ub3lyp empiricaldispersion=gd3bj
 -------------------------------------------------------------------
 ------------------------------
 theory_abbreviation b3lyp_d3bj
 ------------------------------
 Symbolic Z-matrix:
 Charge =  0 Multiplicity = 6
 O                    -0.3877   -0.19901  -0.53729 
 C                    -1.39576  -1.20638  -0.38477 
 C                    -2.81805  -0.12329  -0.17504 
 C                    -1.99877   1.12193  -0.27345 
 C                    -1.89575   1.82794  -1.57257 
 Fe                    1.37829   0.04455   0.03656 
 Cl                    1.81705   2.03686  -0.82928 
 C                    -1.57207   1.85389   0.94171 
 Cl                    2.52565  -1.66693  -0.71702 
 Cl                    1.32791   0.14429   2.25171 
 H                    -3.42965  -0.24685  -1.0716 
 H                    -2.43615   2.45986   1.2612 
 H                    -1.31002   1.18947   1.76574 
 H                    -0.73764   2.52627   0.73263 
 H                    -2.66833   2.615    -1.56912 
 H                    -0.92072   2.31182  -1.67677 
 H                    -2.08683   1.16654  -2.41879 
 C                    -3.63082  -0.34581   1.08885 
 H                    -4.43134   0.3981    1.1822 
 H                    -4.10324  -1.33182   1.05276 
 H                    -3.02203  -0.30212   1.99475 
 C                    -1.16517  -2.07407   0.83055 
 H                    -1.98458  -2.78564   0.97119 
 H                    -0.24099  -2.64459   0.67457 
 H                    -1.03382  -1.48232   1.73813 
 C                    -1.53522  -1.98986  -1.67148 
 H                    -0.59463  -2.522    -1.85765 
 H                    -2.34787  -2.72115  -1.60598 
 H                    -1.71672  -1.32448  -2.52016 
 
                    Distance matrix (angstroms):
                    1          2          3          4          5
     1  O    0.000000
     2  C    1.433269   0.000000
     3  C    2.458371   1.799997   0.000000
     4  C    2.100002   2.407698   1.493811   0.000000
     5  C    2.730301   3.296662   2.571197   1.482157   0.000000
     6  Fe   1.872787   3.072081   4.205024   3.558279   4.060681
     7  Cl   3.153606   4.586753   5.155425   3.963140   3.792227
     8  C    2.793659   3.340039   2.590141   1.481369   2.535162
     9  Cl   3.267214   3.962315   5.588534   5.333364   5.700426
    10  Cl   3.292369   4.024141   4.811415   4.289405   5.277482
    11  H    3.088889   2.351414   1.092313   2.134948   2.628414
    12  H    3.807926   4.151259   2.980148   2.082433   2.953236
    13  H    2.842972   3.220580   2.786418   2.153426   3.448923
    14  H    3.026928   3.951505   3.488860   2.138885   2.672608
    15  H    3.766242   4.198223   3.076380   2.087186   1.102884
    16  H    2.808339   3.777919   3.432904   2.132449   1.093471
    17  H    2.879552   3.200876   2.689387   2.147613   1.090895
    18  C    3.630934   2.812042   1.519044   2.583347   3.849519
    19  H    4.434439   3.774189   2.171784   2.925795   4.007800
    20  H    4.197234   3.068005   2.149357   3.494067   4.663634
    21  H    3.655349   3.020687   2.186681   2.867007   4.304822
    22  C    2.447718   1.510979   2.747501   3.482537   4.640521
    23  H    3.393553   2.163185   3.016059   4.101021   5.269129
    24  H    2.733313   2.127002   3.704060   4.263233   5.271756
    25  H    2.691082   2.171138   2.947993   3.429239   4.760412
    26  C    2.410462   1.512913   2.714607   3.442754   3.836063
    27  H    2.680014   2.131210   3.678130   4.214201   4.549307
    28  H    3.368319   2.166192   3.002926   4.082491   4.571629
    29  H    2.639088   2.162609   2.855770   3.333494   3.296631
                    6          7          8          9         10
     6  Fe   0.000000
     7  Cl   2.216187   0.000000
     8  C    3.577373   3.828310   0.000000
     9  Cl   2.193958   3.772629   5.651439   0.000000
    10  Cl   2.217969   3.648778   3.612299   3.678100   0.000000
    11  H    4.942589   5.727287   3.452117   6.132529   5.816508
    12  H    4.677975   4.758018   1.102690   6.750051   4.528927
    13  H    3.395276   4.150991   1.090484   5.388451   2.878754
    14  H    3.334761   3.034060   1.091824   5.507581   3.499708
    15  H    5.055744   4.582598   2.843471   6.785160   6.055831
    16  H    3.655334   2.879098   2.736853   5.350610   5.018714
    17  H    4.392570   4.303979   3.468486   5.674464   5.875293
    18  C    5.133303   6.247840   3.016418   6.550460   5.116777
    19  H    5.932058   6.765645   3.217549   7.501406   5.863212
    20  H    5.742315   7.066812   4.070369   6.869246   5.754454
    21  H    4.828819   6.071461   2.803512   6.324010   4.380328
    22  C    3.404136   5.343067   3.950537   4.022797   3.627153
    23  H    4.493589   6.399256   4.657922   4.944055   4.603996
    24  H    3.203208   5.330381   4.698875   3.247549   3.567442
    25  H    3.323394   5.206117   3.471929   4.328007   2.913314
    26  C    3.942675   5.306729   4.648061   4.184003   5.305041
    27  H    3.750677   5.258980   5.285848   3.430495   5.262326
    28  H    4.922523   6.370901   5.293727   5.064857   6.050109
    29  H    4.241481   5.161899   4.701863   4.622370   5.847893
                   11         12         13         14         15
    11  H    0.000000
    12  H    3.708808   0.000000
    13  H    3.821828   1.771059   0.000000
    14  H    4.265248   1.780095   1.783809   0.000000
    15  H    3.002882   2.844055   3.872782   3.005573   0.000000
    16  H    3.634243   3.309091   3.641716   2.425840   1.776976
    17  H    2.369758   3.916253   4.256090   3.687905   1.777112
    18  C    2.172050   3.054297   2.863806   4.092214   4.093600
    19  H    2.549311   2.870172   3.272532   4.286568   3.948751
    20  H    2.478673   4.147226   3.829795   5.129777   4.950820
    21  H    3.093825   2.917176   2.282165   3.848532   4.619079
    22  C    3.476318   4.728356   3.397972   4.621199   5.477706
    23  H    3.564644   5.272884   4.109480   5.461516   6.007293
    24  H    4.354980   5.587335   4.127164   5.194981   6.212037
    25  H    3.893712   4.211273   2.686171   4.143378   5.513399
    26  C    2.643260   5.404839   4.687569   5.177962   4.743330
    27  H    3.719079   6.159333   5.236005   5.675831   5.547278
    28  H    2.752817   5.922110   5.266742   5.966353   5.345896
    29  H    2.488723   5.397920   4.985413   5.134937   4.162884
                   16         17         18         19         20
    16  H    0.000000
    17  H    1.795014   0.000000
    18  C    4.696408   4.120030   0.000000
    19  H    4.915334   4.365138   1.096797   0.000000
    20  H    5.554717   4.728575   1.093938   1.765511   0.000000
    21  H    4.972753   4.744574   1.092337   1.771077   1.765401
    22  C    5.057908   4.680734   3.022081   4.111341   3.038508
    23  H    5.841879   5.207894   2.945623   4.020867   2.570790
    24  H    5.527821   5.244115   4.116668   5.203339   4.096754
    25  H    5.105864   5.040371   2.908196   3.922778   3.148603
    26  C    4.345353   3.290234   3.835858   4.715229   3.801214
    27  H    4.848184   4.018322   4.757739   5.699832   4.711410
    28  H    5.231882   3.980326   3.814481   4.673815   3.475695
    29  H    3.816760   2.520412   4.200773   4.903465   4.296661
                   21         22         23         24         25
    21  H    0.000000
    22  C    2.818343   0.000000
    23  H    2.879557   1.094320   0.000000
    24  H    3.868365   1.097247   1.774259   0.000000
    25  H    2.326305   1.091379   1.786274   1.763695   0.000000
    26  C    4.301198   2.530647   2.796221   2.758190   3.483447
    27  H    5.065684   2.784352   3.162876   2.559728   3.768748
    28  H    4.389927   2.784630   2.603440   3.105750   3.800587
    29  H    4.809732   3.477555   3.794237   3.758559   4.315591
                   26         27         28         29
    26  C    0.000000
    27  H    1.096605   0.000000
    28  H    1.095208   1.782373   0.000000
    29  H    1.093590   1.769765   1.784590   0.000000
 Framework group  C1[X(C8H16Cl3FeO)]
 Deg. of freedom    81
                         Standard orientation:                         
 ---------------------------------------------------------------------
 Center     Atomic      Atomic             Coordinates (Angstroms)
 Number     Number       Type             X           Y           Z
 ---------------------------------------------------------------------
      1          8           0       -0.387699   -0.199005   -0.537292
      2          6           0       -1.395762   -1.206380   -0.384768
      3          6           0       -2.818054   -0.123288   -0.175036
      4          6           0       -1.998767    1.121925   -0.273451
      5          6           0       -1.895751    1.827943   -1.572572
      6         26           0        1.378288    0.044546    0.036557
      7         17           0        1.817046    2.036855   -0.829283
      8          6           0       -1.572065    1.853888    0.941707
      9         17           0        2.525647   -1.666928   -0.717019
     10         17           0        1.327911    0.144287    2.251709
     11          1           0       -3.429649   -0.246845   -1.071603
     12          1           0       -2.436152    2.459863    1.261197
     13          1           0       -1.310015    1.189469    1.765741
     14          1           0       -0.737640    2.526272    0.732629
     15          1           0       -2.668330    2.615003   -1.569116
     16          1           0       -0.920721    2.311822   -1.676768
     17          1           0       -2.086830    1.166544   -2.418794
     18          6           0       -3.630815   -0.345811    1.088846
     19          1           0       -4.431342    0.398100    1.182204
     20          1           0       -4.103238   -1.331820    1.052762
     21          1           0       -3.022028   -0.302122    1.994754
     22          6           0       -1.165173   -2.074066    0.830554
     23          1           0       -1.984578   -2.785638    0.971186
     24          1           0       -0.240985   -2.644588    0.674565
     25          1           0       -1.033821   -1.482322    1.738130
     26          6           0       -1.535216   -1.989859   -1.671476
     27          1           0       -0.594627   -2.522000   -1.857651
     28          1           0       -2.347867   -2.721152   -1.605976
     29          1           0       -1.716724   -1.324484   -2.520163
 ---------------------------------------------------------------------
 Rotational constants (GHZ):           0.5708790           0.3606232           0.3244498
   427 basis functions,  1056 primitive gaussians,   461 cartesian basis functions
    77 alpha electrons       72 beta electrons
       nuclear repulsion energy      1658.3911173562 Hartrees.
 NAtoms=   29 NActive=   29 NUniq=   29 SFac= 1.00D+00 NAtFMM=   60 NAOKFM=F Big=F
 Nuclear repulsion after empirical dispersion term =     1658.3224669086 Hartrees.
 Initial guess from the checkpoint file:  "checkpoint.chk"
 B after Tr=     0.000000    0.000000    0.000000
         Rot=    1.000000    0.000000    0.000000    0.000000 Ang=   0.00 deg.
 Initial guess <Sx>= 0.0000 <Sy>= 0.0000 <Sz>= 2.5000 <S**2>= 8.7620 S= 2.5020
 SCF Done:  E(UB3LYP) =  -3034.38992924     A.U. after    1 cycles
            NFock=  1  Conv=0.51D-08     -V/T= 2.0025
 <Sx>= 0.0000 <Sy>= 0.0000 <Sz>= 2.5000 <S**2>= 8.7620 S= 2.5020
 <L.S>= 0.000000000000E+00
 Annihilation of the first spin contaminant:
 S**2 before annihilation     8.7620,   after     8.7500
 1\1\GINC-HOLY7C04303\SP\UB3LYP\Jul-CC-pVDZ\C8H16Cl3Fe1O1(6)\EKWAN\11-F
 eb-2020\0\\#t pop=none jul-cc-pvdz guess=read ub3lyp empiricaldispersi
 on=gd3bj\\theory_abbreviation b3lyp_d3bj\\0,6\O,0,-0.387699,-0.199005,
 -0.537292\C,0,-1.395762,-1.20638,-0.384768\C,0,-2.818054,-0.123288,-0.
 175036\C,0,-1.998767,1.121925,-0.273451\C,0,-1.895751,1.827943,-1.5725
 72\Fe,0,1.378288,0.044546,0.036557\Cl,0,1.817046,2.036855,-0.829283\C,
 0,-1.572065,1.853888,0.941707\Cl,0,2.525647,-1.666928,-0.717019\Cl,0,1
 .327911,0.144287,2.251709\H,0,-3.429649,-0.246845,-1.071603\H,0,-2.436
 152,2.459863,1.261197\H,0,-1.310015,1.189469,1.765741\H,0,-0.73764,2.5
 26272,0.732629\H,0,-2.66833,2.615003,-1.569116\H,0,-0.920721,2.311822,
 -1.676768\H,0,-2.08683,1.166544,-2.418794\C,0,-3.630815,-0.345811,1.08
 8846\H,0,-4.431342,0.3981,1.182204\H,0,-4.103238,-1.33182,1.052762\H,0
 ,-3.022028,-0.302122,1.994754\C,0,-1.165173,-2.074066,0.830554\H,0,-1.
 984578,-2.785638,0.971186\H,0,-0.240985,-2.644588,0.674565\H,0,-1.0338
 21,-1.482322,1.73813\C,0,-1.535216,-1.989859,-1.671476\H,0,-0.594627,-
 2.522,-1.857651\H,0,-2.347867,-2.721152,-1.605976\H,0,-1.716724,-1.324
 484,-2.520163\\Version=ES64L-G16RevA.03\HF=-3034.3899292\S2=8.761976\S
 2-1=0.\S2A=8.750045\RMSD=5.090e-09\PG=C01 [X(C8H16Cl3Fe1O1)]\\@


 SUCCESS-- IF YOU HAVE TRIED TO DO SOMETHING AND FAILED
           YOU ARE BETTER OFF THAN IF YOU HAD TRIED TO DO
           NOTHING AND SUCCEEDED.

                   -- FROM THE BACK OF A SUGAR PACKET
 Job cpu time:       0 days  0 hours  4 minutes 50.7 seconds.
 Elapsed time:       0 days  0 hours  1 minutes 15.3 seconds.
 File lengths (MBytes):  RWF=    170 Int=      0 D2E=      0 Chk=     13 Scr=      1
 Normal termination of Gaussian 16 at Tue Feb 11 14:14:20 2020.
 Initial command:
 /n/sw/g16_nehalem/g16/l1.exe "/scratch/Gau-274529.inp" -scrdir="/scratch/"
 Entering Link 1 = /n/sw/g16_nehalem/g16/l1.exe PID=    278914.
  
 Copyright (c) 1988,1990,1992,1993,1995,1998,2003,2009,2016,
            Gaussian, Inc.  All Rights Reserved.
  
 This is part of the Gaussian(R) 16 program.  It is based on
 the Gaussian(R) 09 system (copyright 2009, Gaussian, Inc.),
 the Gaussian(R) 03 system (copyright 2003, Gaussian, Inc.),
 the Gaussian(R) 98 system (copyright 1998, Gaussian, Inc.),
 the Gaussian(R) 94 system (copyright 1995, Gaussian, Inc.),
 the Gaussian 92(TM) system (copyright 1992, Gaussian, Inc.),
 the Gaussian 90(TM) system (copyright 1990, Gaussian, Inc.),
 the Gaussian 88(TM) system (copyright 1988, Gaussian, Inc.),
 the Gaussian 86(TM) system (copyright 1986, Carnegie Mellon
 University), and the Gaussian 82(TM) system (copyright 1983,
 Carnegie Mellon University). Gaussian is a federally registered
 trademark of Gaussian, Inc.
  
 This software contains proprietary and confidential information,
 including trade secrets, belonging to Gaussian, Inc.
  
 This software is provided under written license and may be
 used, copied, transmitted, or stored only in accord with that
 written license.
  
 The following legend is applicable only to US Government
 contracts under FAR:
  
                    RESTRICTED RIGHTS LEGEND
  
 Use, reproduction and disclosure by the US Government is
 subject to restrictions as set forth in subparagraphs (a)
 and (c) of the Commercial Computer Software - Restricted
 Rights clause in FAR 52.227-19.
  
 Gaussian, Inc.
 340 Quinnipiac St., Bldg. 40, Wallingford CT 06492
  
  
 ---------------------------------------------------------------
 Warning -- This program may not be used in any manner that
 competes with the business of Gaussian, Inc. or will provide
 assistance to any competitor of Gaussian, Inc.  The licensee
 of this program is prohibited from giving any competitor of
 Gaussian, Inc. access to this program.  By using this program,
 the user acknowledges that Gaussian, Inc. is engaged in the
 business of creating and licensing software in the field of
 computational chemistry and represents and warrants to the
 licensee that it is not a competitor of Gaussian, Inc. and that
 it will not use this program in any manner prohibited above.
 ---------------------------------------------------------------
  

 Cite this work as:
 Gaussian 16, Revision A.03,
 M. J. Frisch, G. W. Trucks, H. B. Schlegel, G. E. Scuseria, 
 M. A. Robb, J. R. Cheeseman, G. Scalmani, V. Barone, 
 G. A. Petersson, H. Nakatsuji, X. Li, M. Caricato, A. V. Marenich, 
 J. Bloino, B. G. Janesko, R. Gomperts, B. Mennucci, H. P. Hratchian, 
 J. V. Ortiz, A. F. Izmaylov, J. L. Sonnenberg, D. Williams-Young, 
 F. Ding, F. Lipparini, F. Egidi, J. Goings, B. Peng, A. Petrone, 
 T. Henderson, D. Ranasinghe, V. G. Zakrzewski, J. Gao, N. Rega, 
 G. Zheng, W. Liang, M. Hada, M. Ehara, K. Toyota, R. Fukuda, 
 J. Hasegawa, M. Ishida, T. Nakajima, Y. Honda, O. Kitao, H. Nakai, 
 T. Vreven, K. Throssell, J. A. Montgomery, Jr., J. E. Peralta, 
 F. Ogliaro, M. J. Bearpark, J. J. Heyd, E. N. Brothers, K. N. Kudin, 
 V. N. Staroverov, T. A. Keith, R. Kobayashi, J. Normand, 
 K. Raghavachari, A. P. Rendell, J. C. Burant, S. S. Iyengar, 
 J. Tomasi, M. Cossi, J. M. Millam, M. Klene, C. Adamo, R. Cammi, 
 J. W. Ochterski, R. L. Martin, K. Morokuma, O. Farkas, 
 J. B. Foresman, and D. J. Fox, Gaussian, Inc., Wallingford CT, 2016.
 
 ******************************************
 Gaussian 16:  ES64L-G16RevA.03 25-Dec-2016
                11-Feb-2020 
 ******************************************
 %chk=checkpoint.chk
 %mem=3GB
 %nprocshared=4
 Will use up to    4 processors via shared memory.
 ----------------------------------------
 #t pop=none jul-cc-pvdz guess=read ub97d
 ----------------------------------------
 ------------------------
 theory_abbreviation b97d
 ------------------------
 Symbolic Z-matrix:
 Charge =  0 Multiplicity = 6
 O                    -0.3877   -0.19901  -0.53729 
 C                    -1.39576  -1.20638  -0.38477 
 C                    -2.81805  -0.12329  -0.17504 
 C                    -1.99877   1.12193  -0.27345 
 C                    -1.89575   1.82794  -1.57257 
 Fe                    1.37829   0.04455   0.03656 
 Cl                    1.81705   2.03686  -0.82928 
 C                    -1.57207   1.85389   0.94171 
 Cl                    2.52565  -1.66693  -0.71702 
 Cl                    1.32791   0.14429   2.25171 
 H                    -3.42965  -0.24685  -1.0716 
 H                    -2.43615   2.45986   1.2612 
 H                    -1.31002   1.18947   1.76574 
 H                    -0.73764   2.52627   0.73263 
 H                    -2.66833   2.615    -1.56912 
 H                    -0.92072   2.31182  -1.67677 
 H                    -2.08683   1.16654  -2.41879 
 C                    -3.63082  -0.34581   1.08885 
 H                    -4.43134   0.3981    1.1822 
 H                    -4.10324  -1.33182   1.05276 
 H                    -3.02203  -0.30212   1.99475 
 C                    -1.16517  -2.07407   0.83055 
 H                    -1.98458  -2.78564   0.97119 
 H                    -0.24099  -2.64459   0.67457 
 H                    -1.03382  -1.48232   1.73813 
 C                    -1.53522  -1.98986  -1.67148 
 H                    -0.59463  -2.522    -1.85765 
 H                    -2.34787  -2.72115  -1.60598 
 H                    -1.71672  -1.32448  -2.52016 
 
                    Distance matrix (angstroms):
                    1          2          3          4          5
     1  O    0.000000
     2  C    1.433269   0.000000
     3  C    2.458371   1.799997   0.000000
     4  C    2.100002   2.407698   1.493811   0.000000
     5  C    2.730301   3.296662   2.571197   1.482157   0.000000
     6  Fe   1.872787   3.072081   4.205024   3.558279   4.060681
     7  Cl   3.153606   4.586753   5.155425   3.963140   3.792227
     8  C    2.793659   3.340039   2.590141   1.481369   2.535162
     9  Cl   3.267214   3.962315   5.588534   5.333364   5.700426
    10  Cl   3.292369   4.024141   4.811415   4.289405   5.277482
    11  H    3.088889   2.351414   1.092313   2.134948   2.628414
    12  H    3.807926   4.151259   2.980148   2.082433   2.953236
    13  H    2.842972   3.220580   2.786418   2.153426   3.448923
    14  H    3.026928   3.951505   3.488860   2.138885   2.672608
    15  H    3.766242   4.198223   3.076380   2.087186   1.102884
    16  H    2.808339   3.777919   3.432904   2.132449   1.093471
    17  H    2.879552   3.200876   2.689387   2.147613   1.090895
    18  C    3.630934   2.812042   1.519044   2.583347   3.849519
    19  H    4.434439   3.774189   2.171784   2.925795   4.007800
    20  H    4.197234   3.068005   2.149357   3.494067   4.663634
    21  H    3.655349   3.020687   2.186681   2.867007   4.304822
    22  C    2.447718   1.510979   2.747501   3.482537   4.640521
    23  H    3.393553   2.163185   3.016059   4.101021   5.269129
    24  H    2.733313   2.127002   3.704060   4.263233   5.271756
    25  H    2.691082   2.171138   2.947993   3.429239   4.760412
    26  C    2.410462   1.512913   2.714607   3.442754   3.836063
    27  H    2.680014   2.131210   3.678130   4.214201   4.549307
    28  H    3.368319   2.166192   3.002926   4.082491   4.571629
    29  H    2.639088   2.162609   2.855770   3.333494   3.296631
                    6          7          8          9         10
     6  Fe   0.000000
     7  Cl   2.216187   0.000000
     8  C    3.577373   3.828310   0.000000
     9  Cl   2.193958   3.772629   5.651439   0.000000
    10  Cl   2.217969   3.648778   3.612299   3.678100   0.000000
    11  H    4.942589   5.727287   3.452117   6.132529   5.816508
    12  H    4.677975   4.758018   1.102690   6.750051   4.528927
    13  H    3.395276   4.150991   1.090484   5.388451   2.878754
    14  H    3.334761   3.034060   1.091824   5.507581   3.499708
    15  H    5.055744   4.582598   2.843471   6.785160   6.055831
    16  H    3.655334   2.879098   2.736853   5.350610   5.018714
    17  H    4.392570   4.303979   3.468486   5.674464   5.875293
    18  C    5.133303   6.247840   3.016418   6.550460   5.116777
    19  H    5.932058   6.765645   3.217549   7.501406   5.863212
    20  H    5.742315   7.066812   4.070369   6.869246   5.754454
    21  H    4.828819   6.071461   2.803512   6.324010   4.380328
    22  C    3.404136   5.343067   3.950537   4.022797   3.627153
    23  H    4.493589   6.399256   4.657922   4.944055   4.603996
    24  H    3.203208   5.330381   4.698875   3.247549   3.567442
    25  H    3.323394   5.206117   3.471929   4.328007   2.913314
    26  C    3.942675   5.306729   4.648061   4.184003   5.305041
    27  H    3.750677   5.258980   5.285848   3.430495   5.262326
    28  H    4.922523   6.370901   5.293727   5.064857   6.050109
    29  H    4.241481   5.161899   4.701863   4.622370   5.847893
                   11         12         13         14         15
    11  H    0.000000
    12  H    3.708808   0.000000
    13  H    3.821828   1.771059   0.000000
    14  H    4.265248   1.780095   1.783809   0.000000
    15  H    3.002882   2.844055   3.872782   3.005573   0.000000
    16  H    3.634243   3.309091   3.641716   2.425840   1.776976
    17  H    2.369758   3.916253   4.256090   3.687905   1.777112
    18  C    2.172050   3.054297   2.863806   4.092214   4.093600
    19  H    2.549311   2.870172   3.272532   4.286568   3.948751
    20  H    2.478673   4.147226   3.829795   5.129777   4.950820
    21  H    3.093825   2.917176   2.282165   3.848532   4.619079
    22  C    3.476318   4.728356   3.397972   4.621199   5.477706
    23  H    3.564644   5.272884   4.109480   5.461516   6.007293
    24  H    4.354980   5.587335   4.127164   5.194981   6.212037
    25  H    3.893712   4.211273   2.686171   4.143378   5.513399
    26  C    2.643260   5.404839   4.687569   5.177962   4.743330
    27  H    3.719079   6.159333   5.236005   5.675831   5.547278
    28  H    2.752817   5.922110   5.266742   5.966353   5.345896
    29  H    2.488723   5.397920   4.985413   5.134937   4.162884
                   16         17         18         19         20
    16  H    0.000000
    17  H    1.795014   0.000000
    18  C    4.696408   4.120030   0.000000
    19  H    4.915334   4.365138   1.096797   0.000000
    20  H    5.554717   4.728575   1.093938   1.765511   0.000000
    21  H    4.972753   4.744574   1.092337   1.771077   1.765401
    22  C    5.057908   4.680734   3.022081   4.111341   3.038508
[...]
     29          1           0       -1.716724   -1.324484   -2.520163
 ---------------------------------------------------------------------
 Rotational constants (GHZ):           0.5708790           0.3606232           0.3244498
   427 basis functions,  1056 primitive gaussians,   461 cartesian basis functions
    77 alpha electrons       72 beta electrons
       nuclear repulsion energy      1658.3911173562 Hartrees.
 NAtoms=   29 NActive=   29 NUniq=   29 SFac= 1.00D+00 NAtFMM=   60 NAOKFM=F Big=F
 Nuclear repulsion after empirical dispersion term =     1658.3886941556 Hartrees.
 Initial guess from the checkpoint file:  "checkpoint.chk"
 B after Tr=     0.000000    0.000000    0.000000
         Rot=    1.000000    0.000000    0.000000    0.000000 Ang=   0.00 deg.
 Initial guess <Sx>= 0.0000 <Sy>= 0.0000 <Sz>= 2.5000 <S**2>= 8.7617 S= 2.5020
 SCF Done:  E(UM06L) =  -3034.18491045     A.U. after   18 cycles
            NFock= 18  Conv=0.38D-08     -V/T= 2.0021
 <Sx>= 0.0000 <Sy>= 0.0000 <Sz>= 2.5000 <S**2>= 8.7621 S= 2.5020
 <L.S>= 0.000000000000E+00
 Annihilation of the first spin contaminant:
 S**2 before annihilation     8.7621,   after     8.7500
 1\1\GINC-HOLY7C04303\SP\UM06L\Jul-CC-pVDZ\C8H16Cl3Fe1O1(6)\EKWAN\11-Fe
 b-2020\0\\#t pop=none jul-cc-pvdz guess=read um06l empiricaldispersion
 =gd3\\theory_abbreviation m06l_d3\\0,6\O,0,-0.387699,-0.199005,-0.5372
 92\C,0,-1.395762,-1.20638,-0.384768\C,0,-2.818054,-0.123288,-0.175036\
 C,0,-1.998767,1.121925,-0.273451\C,0,-1.895751,1.827943,-1.572572\Fe,0
 ,1.378288,0.044546,0.036557\Cl,0,1.817046,2.036855,-0.829283\C,0,-1.57
 2065,1.853888,0.941707\Cl,0,2.525647,-1.666928,-0.717019\Cl,0,1.327911
 ,0.144287,2.251709\H,0,-3.429649,-0.246845,-1.071603\H,0,-2.436152,2.4
 59863,1.261197\H,0,-1.310015,1.189469,1.765741\H,0,-0.73764,2.526272,0
 .732629\H,0,-2.66833,2.615003,-1.569116\H,0,-0.920721,2.311822,-1.6767
 68\H,0,-2.08683,1.166544,-2.418794\C,0,-3.630815,-0.345811,1.088846\H,
 0,-4.431342,0.3981,1.182204\H,0,-4.103238,-1.33182,1.052762\H,0,-3.022
 028,-0.302122,1.994754\C,0,-1.165173,-2.074066,0.830554\H,0,-1.984578,
 -2.785638,0.971186\H,0,-0.240985,-2.644588,0.674565\H,0,-1.033821,-1.4
 82322,1.73813\C,0,-1.535216,-1.989859,-1.671476\H,0,-0.594627,-2.522,-
 1.857651\H,0,-2.347867,-2.721152,-1.605976\H,0,-1.716724,-1.324484,-2.
 520163\\Version=ES64L-G16RevA.03\HF=-3034.1849104\S2=8.762111\S2-1=0.\
 S2A=8.750047\RMSD=3.776e-09\PG=C01 [X(C8H16Cl3Fe1O1)]\\@


 PICNIC:  A SNACK IN THE GRASS.
 Job cpu time:       0 days  1 hours 23 minutes 37.1 seconds.
 Elapsed time:       0 days  0 hours 22 minutes 34.4 seconds.
 File lengths (MBytes):  RWF=    174 Int=      0 D2E=      0 Chk=     13 Scr=      1
 Normal termination of Gaussian 16 at Tue Feb 11 23:08:28 2020.
 Initial command:
 /n/sw/g16_nehalem/g16/l1.exe "/scratch/Gau-274529.inp" -scrdir="/scratch/"
 Entering Link 1 = /n/sw/g16_nehalem/g16/l1.exe PID=    328726.
  
 Copyright (c) 1988,1990,1992,1993,1995,1998,2003,2009,2016,
            Gaussian, Inc.  All Rights Reserved.
  
 This is part of the Gaussian(R) 16 program.  It is based on
 the Gaussian(R) 09 system (copyright 2009, Gaussian, Inc.),
 the Gaussian(R) 03 system (copyright 2003, Gaussian, Inc.),
 the Gaussian(R) 98 system (copyright 1998, Gaussian, Inc.),
 the Gaussian(R) 94 system (copyright 1995, Gaussian, Inc.),
 the Gaussian 92(TM) system (copyright 1992, Gaussian, Inc.),
 the Gaussian 90(TM) system (copyright 1990, Gaussian, Inc.),
 the Gaussian 88(TM) system (copyright 1988, Gaussian, Inc.),
 the Gaussian 86(TM) system (copyright 1986, Carnegie Mellon
 University), and the Gaussian 82(TM) system (copyright 1983,
 Carnegie Mellon University). Gaussian is a federally registered
 trademark of Gaussian, Inc.
  
 This software contains proprietary and confidential information,
 including trade secrets, belonging to Gaussian, Inc.
  
 This software is provided under written license and may be
 used, copied, transmitted, or stored only in accord with that
 written license.
  
 The following legend is applicable only to US Government
 contracts under FAR:
  
                    RESTRICTED RIGHTS LEGEND
  
 Use, reproduction and disclosure by the US Government is
 subject to restrictions as set forth in subparagraphs (a)
 and (c) of the Commercial Computer Software - Restricted
 Rights clause in FAR 52.227-19.
  
 Gaussian, Inc.
 340 Quinnipiac St., Bldg. 40, Wallingford CT 06492
  
  
 ---------------------------------------------------------------
 Warning -- This program may not be used in any manner that
 competes with the business of Gaussian, Inc. or will provide
 assistance to any competitor of Gaussian, Inc.  The licensee
 of this program is prohibited from giving any competitor of
 Gaussian, Inc. access to this program.  By using this program,
 the user acknowledges that Gaussian, Inc. is engaged in the
 business of creating and licensing software in the field of
 computational chemistry and represents and warrants to the
 licensee that it is not a competitor of Gaussian, Inc. and that
 it will not use this program in any manner prohibited above.
 ---------------------------------------------------------------
  

 Cite this work as:
 Gaussian 16, Revision A.03,
 M. J. Frisch, G. W. Trucks, H. B. Schlegel, G. E. Scuseria, 
 M. A. Robb, J. R. Cheeseman, G. Scalmani, V. Barone, 
 G. A. Petersson, H. Nakatsuji, X. Li, M. Caricato, A. V. Marenich, 
 J. Bloino, B. G. Janesko, R. Gomperts, B. Mennucci, H. P. Hratchian, 
 J. V. Ortiz, A. F. Izmaylov, J. L. Sonnenberg, D. Williams-Young, 
 F. Ding, F. Lipparini, F. Egidi, J. Goings, B. Peng, A. Petrone, 
 T. Henderson, D. Ranasinghe, V. G. Zakrzewski, J. Gao, N. Rega, 
 G. Zheng, W. Liang, M. Hada, M. Ehara, K. Toyota, R. Fukuda, 
 J. Hasegawa, M. Ishida, T. Nakajima, Y. Honda, O. Kitao, H. Nakai, 
 T. Vreven, K. Throssell, J. A. Montgomery, Jr., J. E. Peralta, 
 F. Ogliaro, M. J. Bearpark, J. J. Heyd, E. N. Brothers, K. N. Kudin, 
 V. N. Staroverov, T. A. Keith, R. Kobayashi, J. Normand, 
 K. Raghavachari, A. P. Rendell, J. C. Burant, S. S. Iyengar, 
 J. Tomasi, M. Cossi, J. M. Millam, M. Klene, C. Adamo, R. Cammi, 
 J. W. Ochterski, R. L. Martin, K. Morokuma, O. Farkas, 
 J. B. Foresman, and D. J. Fox, Gaussian, Inc., Wallingford CT, 2016.
 
 ******************************************
 Gaussian 16:  ES64L-G16RevA.03 25-Dec-2016
                11-Feb-2020 
 ******************************************
 %chk=checkpoint.chk
 %mem=3GB
 %nprocshared=4
 Will use up to    4 processors via shared memory.
 -------------------------------------------------------------------
 #t pop=none jul-cc-pvdz guess=read ub97d3 empiricaldispersion=gd3bj
 -------------------------------------------------------------------
 ------------------------------
 theory_abbreviation b97d3_d3bj
 ------------------------------
 Symbolic Z-matrix:
 Charge =  0 Multiplicity = 6
 O                    -0.3877   -0.19901  -0.53729 
 C                    -1.39576  -1.20638  -0.38477 
 C                    -2.81805  -0.12329  -0.17504 
 C                    -1.99877   1.12193  -0.27345 
 C                    -1.89575   1.82794  -1.57257 
 Fe                    1.37829   0.04455   0.03656 
 Cl                    1.81705   2.03686  -0.82928 
 C                    -1.57207   1.85389   0.94171 
 Cl                    2.52565  -1.66693  -0.71702 
 Cl                    1.32791   0.14429   2.25171 
 H                    -3.42965  -0.24685  -1.0716 
 H                    -2.43615   2.45986   1.2612 
 H                    -1.31002   1.18947   1.76574 
 H                    -0.73764   2.52627   0.73263 
 H                    -2.66833   2.615    -1.56912 
 H                    -0.92072   2.31182  -1.67677 
 H                    -2.08683   1.16654  -2.41879 
 C                    -3.63082  -0.34581   1.08885 
 H                    -4.43134   0.3981    1.1822 
 H                    -4.10324  -1.33182   1.05276 
 H                    -3.02203  -0.30212   1.99475 
 C                    -1.16517  -2.07407   0.83055 
 H                    -1.98458  -2.78564   0.97119 
 H                    -0.24099  -2.64459   0.67457 
 H                    -1.03382  -1.48232   1.73813 
 C                    -1.53522  -1.98986  -1.67148 
 H                    -0.59463  -2.522    -1.85765 
 H                    -2.34787  -2.72115  -1.60598 
 H                    -1.71672  -1.32448  -2.52016 
 
                    Distance matrix (angstroms):
                    1          2          3          4          5
     1  O    0.000000
     2  C    1.433269   0.000000
     3  C    2.458371   1.799997   0.000000
     4  C    2.100002   2.407698   1.493811   0.000000
     5  C    2.730301   3.296662   2.571197   1.482157   0.000000
     6  Fe   1.872787   3.072081   4.205024   3.558279   4.060681
     7  Cl   3.153606   4.586753   5.155425   3.963140   3.792227
     8  C    2.793659   3.340039   2.590141   1.481369   2.535162
     9  Cl   3.267214   3.962315   5.588534   5.333364   5.700426
    10  Cl   3.292369   4.024141   4.811415   4.289405   5.277482
    11  H    3.088889   2.351414   1.092313   2.134948   2.628414
    12  H    3.807926   4.151259   2.980148   2.082433   2.953236
    13  H    2.842972   3.220580   2.786418   2.153426   3.448923
    14  H    3.026928   3.951505   3.488860   2.138885   2.672608
    15  H    3.766242   4.198223   3.076380   2.087186   1.102884
    16  H    2.808339   3.777919   3.432904   2.132449   1.093471
    17  H    2.879552   3.200876   2.689387   2.147613   1.090895
    18  C    3.630934   2.812042   1.519044   2.583347   3.849519
    19  H    4.434439   3.774189   2.171784   2.925795   4.007800
    20  H    4.197234   3.068005   2.149357   3.494067   4.663634
    21  H    3.655349   3.020687   2.186681   2.867007   4.304822
    22  C    2.447718   1.510979   2.747501   3.482537   4.640521
    23  H    3.393553   2.163185   3.016059   4.101021   5.269129
    24  H    2.733313   2.127002   3.704060   4.263233   5.271756
    25  H    2.691082   2.171138   2.947993   3.429239   4.760412
    26  C    2.410462   1.512913   2.714607   3.442754   3.836063
    27  H    2.680014   2.131210   3.678130   4.214201   4.549307
    28  H    3.368319   2.166192   3.002926   4.082491   4.571629
    29  H    2.639088   2.162609   2.855770   3.333494   3.296631
                    6          7          8          9         10
     6  Fe   0.000000
     7  Cl   2.216187   0.000000
     8  C    3.577373   3.828310   0.000000
     9  Cl   2.193958   3.772629   5.651439   0.000000
    10  Cl   2.217969   3.648778   3.612299   3.678100   0.000000
    11  H    4.942589   5.727287   3.452117   6.132529   5.816508
    12  H    4.677975   4.758018   1.102690   6.750051   4.528927
    13  H    3.395276   4.150991   1.090484   5.388451   2.878754
    14  H    3.334761   3.034060   1.091824   5.507581   3.499708
    15  H    5.055744   4.582598   2.843471   6.785160   6.055831
    16  H    3.655334   2.879098   2.736853   5.350610   5.018714
    17  H    4.392570   4.303979   3.468486   5.674464   5.875293
    18  C    5.133303   6.247840   3.016418   6.550460   5.116777
    19  H    5.932058   6.765645   3.217549   7.501406   5.863212
    20  H    5.742315   7.066812   4.070369   6.869246   5.754454
    21  H    4.828819   6.071461   2.803512   6.324010   4.380328
    22  C    3.404136   5.343067   3.950537   4.022797   3.627153
    23  H    4.493589   6.399256   4.657922   4.944055   4.603996
    24  H    3.203208   5.330381   4.698875   3.247549   3.567442
    25  H    3.323394   5.206117   3.471929   4.328007   2.913314
    26  C    3.942675   5.306729   4.648061   4.184003   5.305041
    27  H    3.750677   5.258980   5.285848   3.430495   5.262326
    28  H    4.922523   6.370901   5.293727   5.064857   6.050109
    29  H    4.241481   5.161899   4.701863   4.622370   5.847893
                   11         12         13         14         15
    11  H    0.000000
    12  H    3.708808   0.000000
    13  H    3.821828   1.771059   0.000000
    14  H    4.265248   1.780095   1.783809   0.000000
    15  H    3.002882   2.844055   3.872782   3.005573   0.000000
    16  H    3.634243   3.309091   3.641716   2.425840   1.776976
    17  H    2.369758   3.916253   4.256090   3.687905   1.777112
    18  C    2.172050   3.054297   2.863806   4.092214   4.093600
    19  H    2.549311   2.870172   3.272532   4.286568   3.948751
    20  H    2.478673   4.147226   3.829795   5.129777   4.950820
    21  H    3.093825   2.917176   2.282165   3.848532   4.619079
    22  C    3.476318   4.728356   3.397972   4.621199   5.477706
    23  H    3.564644   5.272884   4.109480   5.461516   6.007293
    24  H    4.354980   5.587335   4.127164   5.194981   6.212037
    25  H    3.893712   4.211273   2.686171   4.143378   5.513399
    26  C    2.643260   5.404839   4.687569   5.177962   4.743330
    27  H    3.719079   6.159333   5.236005   5.675831   5.547278
    28  H    2.752817   5.922110   5.266742   5.966353   5.345896
    29  H    2.488723   5.397920   4.985413   5.134937   4.162884
                   16         17         18         19         20
    16  H    0.000000
    17  H    1.795014   0.000000
    18  C    4.696408   4.120030   0.000000
    19  H    4.915334   4.365138   1.096797   0.000000
    20  H    5.554717   4.728575   1.093938   1.765511   0.000000
    21  H    4.972753   4.744574   1.092337   1.771077   1.765401
    22  C    5.057908   4.680734   3.022081   4.111341   3.038508
    23  H    5.841879   5.207894   2.945623   4.020867   2.570790
    24  H    5.527821   5.244115   4.116668   5.203339   4.096754
    25  H    5.105864   5.040371   2.908196   3.922778   3.148603
    26  C    4.345353   3.290234   3.835858   4.715229   3.801214
    27  H    4.848184   4.018322   4.757739   5.699832   4.711410
    28  H    5.231882   3.980326   3.814481   4.673815   3.475695
    29  H    3.816760   2.520412   4.200773   4.903465   4.296661
                   21         22         23         24         25
    21  H    0.000000
    22  C    2.818343   0.000000
    23  H    2.879557   1.094320   0.000000
    24  H    3.868365   1.097247   1.774259   0.000000
    25  H    2.326305   1.091379   1.786274   1.763695   0.000000
    26  C    4.301198   2.530647   2.796221   2.758190   3.483447
    27  H    5.065684   2.784352   3.162876   2.559728   3.768748
    28  H    4.389927   2.784630   2.603440   3.105750   3.800587
    29  H    4.809732   3.477555   3.794237   3.758559   4.315591
                   26         27         28         29
    26  C    0.000000
    27  H    1.096605   0.000000
    28  H    1.095208   1.782373   0.000000
    29  H    1.093590   1.769765   1.784590   0.000000
 Framework group  C1[X(C8H16Cl3FeO)]
 Deg. of freedom    81
                         Standard orientation:                         
 ---------------------------------------------------------------------
 Center     Atomic      Atomic             Coordinates (Angstroms)
 Number     Number       Type             X           Y           Z
 ---------------------------------------------------------------------
      1          8           0       -0.387699   -0.199005   -0.537292
      2          6           0       -1.395762   -1.206380   -0.384768
      3          6           0       -2.818054   -0.123288   -0.175036
      4          6           0       -1.998767    1.121925   -0.273451
      5          6           0       -1.895751    1.827943   -1.572572
      6         26           0        1.378288    0.044546    0.036557
      7         17           0        1.817046    2.036855   -0.829283
      8          6           0       -1.572065    1.853888    0.941707
      9         17           0        2.525647   -1.666928   -0.717019
     10         17           0        1.327911    0.144287    2.251709
     11          1           0       -3.429649   -0.246845   -1.071603
     12          1           0       -2.436152    2.459863    1.261197
     13          1           0       -1.310015    1.189469    1.765741
     14          1           0       -0.737640    2.526272    0.732629
     15          1           0       -2.668330    2.615003   -1.569116
     16          1           0       -0.920721    2.311822   -1.676768
     17          1           0       -2.086830    1.166544   -2.418794
     18          6           0       -3.630815   -0.345811    1.088846
     19          1           0       -4.431342    0.398100    1.182204
     20          1           0       -4.103238   -1.331820    1.052762
     21          1           0       -3.022028   -0.302122    1.994754
     22          6           0       -1.165173   -2.074066    0.830554
     23          1           0       -1.984578   -2.785638    0.971186
     24          1           0       -0.240985   -2.644588    0.674565
     25          1           0       -1.033821   -1.482322    1.738130
     26          6           0       -1.535216   -1.989859   -1.671476
     27          1           0       -0.594627   -2.522000   -1.857651
     28          1           0       -2.347867   -2.721152   -1.605976
     29          1           0       -1.716724   -1.324484   -2.520163
 ---------------------------------------------------------------------
 Rotational constants (GHZ):           0.5708790           0.3606232           0.3244498
   427 basis functions,  1056 primitive gaussians,   461 cartesian basis functions
    77 alpha electrons       72 beta electrons
       nuclear repulsion energy      1658.3911173562 Hartrees.
 NAtoms=   29 NActive=   29 NUniq=   29 SFac= 1.00D+00 NAtFMM=   60 NAOKFM=F Big=F
 Nuclear repulsion after empirical dispersion term =     1658.2908595643 Hartrees.
 Initial guess from the checkpoint file:  "checkpoint.chk"
 B after Tr=     0.000000    0.000000    0.000000
         Rot=    1.000000    0.000000    0.000000    0.000000 Ang=   0.00 deg.
 Initial guess <Sx>= 0.0000 <Sy>= 0.0000 <Sz>= 2.5000 <S**2>= 8.7621 S= 2.5020
 EnCoef did     3 forward-backward iterations
 SCF Done:  E(UB97D3) =  -3034.60799768     A.U. after   15 cycles
            NFock= 15  Conv=0.94D-08     -V/T= 2.0020
 <Sx>= 0.0000 <Sy>= 0.0000 <Sz>= 2.5000 <S**2>= 8.7604 S= 2.5017
 <L.S>= 0.000000000000E+00
 Annihilation of the first spin contaminant:
 S**2 before annihilation     8.7604,   after     8.7500
 1\1\GINC-HOLY7C04303\SP\UB97D3\Jul-CC-pVDZ\C8H16Cl3Fe1O1(6)\EKWAN\11-F
 eb-2020\0\\#t pop=none jul-cc-pvdz guess=read ub97d3 empiricaldispersi
 on=gd3bj\\theory_abbreviation b97d3_d3bj\\0,6\O,0,-0.387699,-0.199005,
 -0.537292\C,0,-1.395762,-1.20638,-0.384768\C,0,-2.818054,-0.123288,-0.
 175036\C,0,-1.998767,1.121925,-0.273451\C,0,-1.895751,1.827943,-1.5725
 72\Fe,0,1.378288,0.044546,0.036557\Cl,0,1.817046,2.036855,-0.829283\C,
 0,-1.572065,1.853888,0.941707\Cl,0,2.525647,-1.666928,-0.717019\Cl,0,1
 .327911,0.144287,2.251709\H,0,-3.429649,-0.246845,-1.071603\H,0,-2.436
 152,2.459863,1.261197\H,0,-1.310015,1.189469,1.765741\H,0,-0.73764,2.5
 26272,0.732629\H,0,-2.66833,2.615003,-1.569116\H,0,-0.920721,2.311822,
 -1.676768\H,0,-2.08683,1.166544,-2.418794\C,0,-3.630815,-0.345811,1.08
 8846\H,0,-4.431342,0.3981,1.182204\H,0,-4.103238,-1.33182,1.052762\H,0
 ,-3.022028,-0.302122,1.994754\C,0,-1.165173,-2.074066,0.830554\H,0,-1.
 984578,-2.785638,0.971186\H,0,-0.240985,-2.644588,0.674565\H,0,-1.0338
 21,-1.482322,1.73813\C,0,-1.535216,-1.989859,-1.671476\H,0,-0.594627,-
 2.522,-1.857651\H,0,-2.347867,-2.721152,-1.605976\H,0,-1.716724,-1.324
 484,-2.520163\\Version=ES64L-G16RevA.03\HF=-3034.6079977\S2=8.760401\S
 2-1=0.\S2A=8.750034\RMSD=9.374e-09\PG=C01 [X(C8H16Cl3Fe1O1)]\\@


 IF MATHEMATICALLY YOU END UP WITH THE INCORRECT ANSWER,
 TRY MULTIPLYING BY THE PAGE NUMBER.
 Job cpu time:       0 days  0 hours 48 minutes 12.4 seconds.
 Elapsed time:       0 days  0 hours 12 minutes  5.7 seconds.
 File lengths (MBytes):  RWF=    174 Int=      0 D2E=      0 Chk=     13 Scr=      1
 Normal termination of Gaussian 16 at Tue Feb 11 23:20:35 2020.
