 Entering Gaussian System, Link 0=g16
 Input=simple-grid-225-280-b3lyp_d3bj-631gd-gas-singlepoint-DFT-juldz2-gas.gjf
 Output=simple-grid-225-280-b3lyp_d3bj-631gd-gas-singlepoint-DFT-juldz2-gas.out
 Initial command:
 /n/sw/g16_nehalem/g16/l1.exe "/scratch/Gau-12473.inp" -scrdir="/scratch/"
 Entering Link 1 = /n/sw/g16_nehalem/g16/l1.exe PID=     12481.
  
 Copyright (c) 1988,1990,1992,1993,1995,1998,2003,2009,2016,
            Gaussian, Inc.  All Rights Reserved.
  
 This is part of the Gaussian(R) 16 program.  It is based on
 the Gaussian(R) 09 system (copyright 2009, Gaussian, Inc.),
 the Gaussian(R) 03 system (copyright 2003, Gaussian, Inc.),
 the Gaussian(R) 98 system (copyright 1998, Gaussian, Inc.),
 the Gaussian(R) 94 system (copyright 1995, Gaussian, Inc.),
 the Gaussian 92(TM) system (copyright 1992, Gaussian, Inc.),
 the Gaussian 90(TM) system (copyright 1990, Gaussian, Inc.),
 the Gaussian 88(TM) system (copyright 1988, Gaussian, Inc.),
 the Gaussian 86(TM) system (copyright 1986, Carnegie Mellon
 University), and the Gaussian 82(TM) system (copyright 1983,
 Carnegie Mellon University). Gaussian is a federally registered
 trademark of Gaussian, Inc.
  
 This software contains proprietary and confidential information,
 including trade secrets, belonging to Gaussian, Inc.
  
 This software is provided under written license and may be
 used, copied, transmitted, or stored only in accord with that
 written license.
  
 The following legend is applicable only to US Government
 contracts under FAR:
  
                    RESTRICTED RIGHTS LEGEND
  
 Use, reproduction and disclosure by the US Government is
 subject to restrictions as set forth in subparagraphs (a)
 and (c) of the Commercial Computer Software - Restricted
 Rights clause in FAR 52.227-19.
  
 Gaussian, Inc.
 340 Quinnipiac St., Bldg. 40, Wallingford CT 06492
  
  
 ---------------------------------------------------------------
 Warning -- This program may not be used in any manner that
 competes with the business of Gaussian, Inc. or will provide
 assistance to any competitor of Gaussian, Inc.  The licensee
 of this program is prohibited from giving any competitor of
 Gaussian, Inc. access to this program.  By using this program,
 the user acknowledges that Gaussian, Inc. is engaged in the
 business of creating and licensing software in the field of
 computational chemistry and represents and warrants to the
 licensee that it is not a competitor of Gaussian, Inc. and that
 it will not use this program in any manner prohibited above.
 ---------------------------------------------------------------
  

 Cite this work as:
 Gaussian 16, Revision A.03,
 M. J. Frisch, G. W. Trucks, H. B. Schlegel, G. E. Scuseria, 
 M. A. Robb, J. R. Cheeseman, G. Scalmani, V. Barone, 
 G. A. Petersson, H. Nakatsuji, X. Li, M. Caricato, A. V. Marenich, 
 J. Bloino, B. G. Janesko, R. Gomperts, B. Mennucci, H. P. Hratchian, 
 J. V. Ortiz, A. F. Izmaylov, J. L. Sonnenberg, D. Williams-Young, 
 F. Ding, F. Lipparini, F. Egidi, J. Goings, B. Peng, A. Petrone, 
 T. Henderson, D. Ranasinghe, V. G. Zakrzewski, J. Gao, N. Rega, 
 G. Zheng, W. Liang, M. Hada, M. Ehara, K. Toyota, R. Fukuda, 
 J. Hasegawa, M. Ishida, T. Nakajima, Y. Honda, O. Kitao, H. Nakai, 
 T. Vreven, K. Throssell, J. A. Montgomery, Jr., J. E. Peralta, 
 F. Ogliaro, M. J. Bearpark, J. J. Heyd, E. N. Brothers, K. N. Kudin, 
 V. N. Staroverov, T. A. Keith, R. Kobayashi, J. Normand, 
 K. Raghavachari, A. P. Rendell, J. C. Burant, S. S. Iyengar, 
 J. Tomasi, M. Cossi, J. M. Millam, M. Klene, C. Adamo, R. Cammi, 
 J. W. Ochterski, R. L. Martin, K. Morokuma, O. Farkas, 
 J. B. Foresman, and D. J. Fox, Gaussian, Inc., Wallingford CT, 2016.
 
 ******************************************
 Gaussian 16:  ES64L-G16RevA.03 25-Dec-2016
                11-Feb-2020 
 ******************************************
 %chk=checkpoint.chk
 %mem=3GB
 %nprocshared=4
 Will use up to    4 processors via shared memory.
 --------------------------------
 #t pop=none jul-cc-pvdz upbe1pbe
 --------------------------------
 ------------------------
 theory_abbreviation pbe0
 ------------------------
 Symbolic Z-matrix:
 Charge =  0 Multiplicity = 6
 O                    -0.2535   -0.26857  -0.78037 
 C                    -1.12718  -1.18366  -0.60686 
 C                    -2.81382  -0.2991    0.59118 
 C                    -2.69685   0.8944   -0.06096 
 C                    -3.41426   1.16647  -1.34836 
 Fe                    1.4698    0.15533  -0.02586 
 Cl                    1.99755   2.0559   -0.96592 
 C                    -1.79202   1.98629   0.40358 
 Cl                    2.69663  -1.57018  -0.58856 
 Cl                    1.21407   0.3256    2.15704 
 H                    -3.55086  -0.99669   0.19619 
 H                    -2.30747   2.95353   0.37282 
 H                    -1.38571   1.82877   1.40202 
 H                    -0.94677   2.06414  -0.29637 
 H                    -4.06245   2.0433   -1.22089 
 H                    -2.70357   1.4236   -2.14514 
 H                    -4.03665   0.32967  -1.67282 
 C                    -2.465    -0.49081   2.05132 
 H                    -3.18213   0.0627    2.67042 
 H                    -2.53698  -1.54116   2.34114 
 H                    -1.4647   -0.13665   2.3075 
 C                    -0.83004  -2.28201   0.38376 
 H                    -1.69762  -2.91171   0.58678 
 H                    -0.05665  -2.8979   -0.09682 
 H                    -0.40755  -1.89883   1.31196 
 C                    -1.88891  -1.59818  -1.84428 
 H                    -1.21686  -2.27186  -2.39305 
 H                    -2.80497  -2.14619  -1.6174 
 H                    -2.09775  -0.74753  -2.49079 
 
                    Distance matrix (angstroms):
                    1          2          3          4          5
     1  O    0.000000
     2  C    1.277028   0.000000
     3  C    2.904711   2.250000   0.000000
     4  C    2.800000   2.660860   1.365073   0.000000
     5  C    3.517439   3.362091   2.504046   1.498699   0.000000
     6  Fe   1.928405   2.979054   4.351631   4.231832   5.159988
     7  Cl   3.241117   4.515264   5.578524   4.919898   5.497735
     8  C    2.975432   3.392871   2.510440   1.492227   2.524497
     9  Cl   3.230212   3.843346   5.776900   5.953331   6.738667
    10  Cl   3.336943   3.924088   4.366475   4.531924   5.866546
    11  H    3.515166   2.560087   1.088981   2.090861   2.661491
    12  H    3.991319   4.412391   3.299046   2.140046   2.716805
    13  H    3.231650   3.630030   2.687896   2.175415   3.481128
    14  H    2.481220   3.267592   3.139835   2.118131   2.828609
    15  H    4.477374   4.405230   3.213955   2.128441   1.097825
    16  H    3.275496   3.413077   3.235327   2.150328   1.098215
    17  H    3.932756   3.448393   2.648839   2.170733   1.092192
    18  C    3.599805   3.055439   1.513417   2.536593   3.899423
    19  H    4.538123   4.064082   2.142374   2.896144   4.174055
    20  H    4.071560   3.287256   2.163724   3.424559   4.659751
    21  H    3.319541   3.115064   2.189126   2.861970   4.343298
    22  C    2.396143   1.508640   2.812536   3.711110   4.644401
    23  H    3.307678   2.176311   2.841063   3.988042   4.829403
    24  H    2.723852   2.084424   3.850859   4.620984   5.418400
    25  H    2.656932   2.170527   2.978049   3.863663   5.051101
    26  C    2.360992   1.511043   2.911108   3.169533   3.196238
    27  H    2.746258   2.093491   3.917618   4.201693   4.212137
    28  H    3.276587   2.182342   2.879176   3.417512   3.378955
    29  H    2.560501   2.163650   3.195683   2.993145   2.588777
                    6          7          8          9         10
     6  Fe   0.000000
     7  Cl   2.185038   0.000000
     8  C    3.765142   4.030039   0.000000
     9  Cl   2.190693   3.712086   5.812128   0.000000
    10  Cl   2.204416   3.655222   3.856044   3.651064   0.000000
    11  H    5.155918   6.438452   3.469112   6.322649   5.319586
    12  H    4.717699   4.596870   1.096447   6.813907   4.742441
    13  H    3.604604   4.135843   1.089395   5.672809   3.096517
    14  H    3.091367   3.019503   1.100197   5.154424   3.702833
    15  H    5.966428   6.065371   2.792311   7.690400   6.496347
    16  H    4.849417   4.887828   2.764696   6.367720   5.921339
    17  H    5.750118   6.315947   3.477676   7.079701   6.499069
    18  C    4.496092   5.958511   3.050245   5.897156   3.770051
    19  H    5.377637   6.635127   3.281944   6.917159   4.433879
    20  H    4.953292   6.666145   4.092923   5.997893   4.193937
    21  H    3.760469   5.244974   2.870356   5.268665   2.722523
    22  C    3.376040   5.351103   4.375407   3.726859   3.757993
    23  H    4.451361   6.382969   4.902334   4.742423   4.628591
    24  H    3.414281   5.432792   5.207423   3.096001   4.133470
    25  H    3.087682   5.158789   4.223274   3.654576   2.879569
    26  C    4.202655   5.406321   4.232102   4.754447   5.416633
    27  H    4.325845   5.576610   5.126774   4.366227   5.775769
    28  H    5.109168   6.414524   4.710397   5.626535   6.042252
    29  H    4.429267   5.191908   3.993074   5.223153   5.807068
                   11         12         13         14         15
    11  H    0.000000
    12  H    4.145056   0.000000
    13  H    3.758341   1.781575   0.000000
    14  H    4.048779   1.757936   1.769914   0.000000
    15  H    3.392841   2.539361   3.753745   3.250017   0.000000
    16  H    3.472397   2.972830   3.805690   2.629562   1.756368
    17  H    2.342728   3.749582   4.327750   3.801368   1.772414
    18  C    2.208288   3.834801   2.639488   3.787409   4.436318
    19  H    2.716635   3.794850   2.820450   4.219529   4.454210
    20  H    2.434180   4.912150   3.682902   4.741671   5.278583
    21  H    3.090209   3.741994   2.165411   3.448462   4.893876
    22  C    3.014981   5.440021   4.271309   4.400594   5.633086
    23  H    2.693388   5.900741   4.820165   5.109092   5.780325
    24  H    3.988729   6.286976   5.133643   5.045200   6.459522
    25  H    3.455311   5.295005   3.854847   4.310754   5.942551
    26  C    2.699513   5.080235   4.747167   4.086103   4.286404
    27  H    3.711841   6.012005   5.589829   4.823893   5.300184
    28  H    2.273059   5.496875   5.189552   4.787997   4.392072
    29  H    3.064870   4.684241   4.722103   3.747765   3.641624
                   16         17         18         19         20
    16  H    0.000000
    17  H    1.787990   0.000000
    18  C    4.618679   4.124617   0.000000
    19  H    5.026996   4.434540   1.097241   0.000000
    20  H    5.379991   4.675558   1.091973   1.759832   0.000000
    21  H    4.878035   4.761861   1.091632   1.766643   1.767360
    22  C    4.861790   4.618736   2.943170   4.032223   2.700718
    23  H    5.222089   4.591657   2.931636   3.923319   2.379228
    24  H    5.466005   5.361099   4.026005   5.117753   3.733155
    25  H    5.316177   5.200519   2.600434   3.659413   2.391992
    26  C    3.144096   2.891158   4.090701   4.981308   4.235682
    27  H    3.991014   3.903577   4.947971   5.911953   4.968826
    28  H    3.610013   2.765858   4.039228   4.838062   4.013470
    29  H    2.280418   2.364059   4.564155   5.335765   4.916330
                   21         22         23         24         25
    21  H    0.000000
    22  C    2.950613   0.000000
    23  H    3.273540   1.091076   0.000000
    24  H    3.922732   1.099274   1.777717   0.000000
    25  H    2.283402   1.089433   1.793345   1.762362   0.000000
    26  C    4.421908   2.559878   2.769834   2.846061   3.499514
    27  H    5.168723   2.803641   3.085436   2.647772   3.810667
    28  H    4.608622   2.814861   2.582756   3.229627   3.793402
    29  H    4.878266   3.496387   3.783537   3.810678   4.317764
                   26         27         28         29
    26  C    0.000000
    27  H    1.098475   0.000000
    28  H    1.091311   1.771868   0.000000
    29  H    1.088662   1.763263   1.794212   0.000000
 Framework group  C1[X(C8H16Cl3FeO)]
 Deg. of freedom    81
                         Standard orientation:                         
 ---------------------------------------------------------------------
 Center     Atomic      Atomic             Coordinates (Angstroms)
 Number     Number       Type             X           Y           Z
 ---------------------------------------------------------------------
      1          8           0       -0.253502   -0.268574   -0.780371
      2          6           0       -1.127184   -1.183656   -0.606859
      3          6           0       -2.813824   -0.299100    0.591184
      4          6           0       -2.696846    0.894403   -0.060960
      5          6           0       -3.414264    1.166472   -1.348356
      6         26           0        1.469800    0.155329   -0.025864
      7         17           0        1.997552    2.055897   -0.965922
      8          6           0       -1.792016    1.986293    0.403583
      9         17           0        2.696632   -1.570184   -0.588557
     10         17           0        1.214073    0.325600    2.157038
     11          1           0       -3.550861   -0.996690    0.196185
     12          1           0       -2.307472    2.953534    0.372821
     13          1           0       -1.385708    1.828765    1.402022
     14          1           0       -0.946769    2.064144   -0.296367
     15          1           0       -4.062445    2.043303   -1.220887
     16          1           0       -2.703566    1.423603   -2.145142
     17          1           0       -4.036652    0.329667   -1.672815
     18          6           0       -2.465000   -0.490812    2.051321
     19          1           0       -3.182131    0.062703    2.670418
     20          1           0       -2.536984   -1.541158    2.341142
     21          1           0       -1.464698   -0.136654    2.307501
     22          6           0       -0.830036   -2.282007    0.383759
     23          1           0       -1.697624   -2.911707    0.586777
     24          1           0       -0.056652   -2.897903   -0.096816
     25          1           0       -0.407554   -1.898828    1.311955
     26          6           0       -1.888905   -1.598176   -1.844278
     27          1           0       -1.216857   -2.271858   -2.393050
     28          1           0       -2.804967   -2.146187   -1.617401
     29          1           0       -2.097749   -0.747531   -2.490786
 ---------------------------------------------------------------------
 Rotational constants (GHZ):           0.5787500           0.3269292           0.3078310
   427 basis functions,  1056 primitive gaussians,   461 cartesian basis functions
    77 alpha electrons       72 beta electrons
       nuclear repulsion energy      1633.5349925037 Hartrees.
 NAtoms=   29 NActive=   29 NUniq=   29 SFac= 1.00D+00 NAtFMM=   60 NAOKFM=F Big=F
 ExpMin= 1.40D-02 ExpMax= 4.32D+06 ExpMxC= 4.91D+03 IAcc=3 IRadAn=         5 AccDes= 0.00D+00
 Harris functional with IExCor= 1009 and IRadAn=       5 diagonalized for initial guess.
 HarFok:  IExCor= 1009 AccDes= 0.00D+00 IRadAn=         5 IDoV= 1 UseB2=F ITyADJ=14
 ICtDFT=  3500011 ScaDFX=  1.000000  1.000000  1.000000  1.000000
 FoFCou: FMM=F IPFlag=           0 FMFlag=      100000 FMFlg1=           0
         NFxFlg=           0 DoJE=T BraDBF=F KetDBF=T FulRan=T
         wScrn=  0.000000 ICntrl=       500 IOpCl=  0 I1Cent=   200000004 NGrid=           0
         NMat0=    1 NMatS0=      1 NMatT0=    0 NMatD0=    1 NMtDS0=    0 NMtDT0=    0
 Petite list used in FoFCou.
 Initial guess <Sx>= 0.0000 <Sy>= 0.0000 <Sz>= 2.5000 <S**2>= 8.7500 S= 2.5000
 EnCoef did   100 forward-backward iterations
 EnCoef did     1 forward-backward iterations
 SCF Done:  E(UPBE1PBE) =  -3033.12226136     A.U. after   20 cycles
            NFock= 20  Conv=0.99D-08     -V/T= 2.0021
 <Sx>= 0.0000 <Sy>= 0.0000 <Sz>= 2.5000 <S**2>= 8.7626 S= 2.5021
 <L.S>= 0.000000000000E+00
 Annihilation of the first spin contaminant:
 S**2 before annihilation     8.7626,   after     8.7500
 1\1\GINC-HOLY7C04205\SP\UPBE1PBE\Jul-CC-pVDZ\C8H16Cl3Fe1O1(6)\EKWAN\11
 -Feb-2020\0\\#t pop=none jul-cc-pvdz upbe1pbe\\theory_abbreviation pbe
 0\\0,6\O,0,-0.253502,-0.268574,-0.780371\C,0,-1.127184,-1.183656,-0.60
 6859\C,0,-2.813824,-0.2991,0.591184\C,0,-2.696846,0.894403,-0.06096\C,
 0,-3.414264,1.166472,-1.348356\Fe,0,1.4698,0.155329,-0.025864\Cl,0,1.9
 97552,2.055897,-0.965922\C,0,-1.792016,1.986293,0.403583\Cl,0,2.696632
 ,-1.570184,-0.588557\Cl,0,1.214073,0.3256,2.157038\H,0,-3.550861,-0.99
 669,0.196185\H,0,-2.307472,2.953534,0.372821\H,0,-1.385708,1.828765,1.
 402022\H,0,-0.946769,2.064144,-0.296367\H,0,-4.062445,2.043303,-1.2208
 87\H,0,-2.703566,1.423603,-2.145142\H,0,-4.036652,0.329667,-1.672815\C
 ,0,-2.465,-0.490812,2.051321\H,0,-3.182131,0.062703,2.670418\H,0,-2.53
 6984,-1.541158,2.341142\H,0,-1.464698,-0.136654,2.307501\C,0,-0.830036
 ,-2.282007,0.383759\H,0,-1.697624,-2.911707,0.586777\H,0,-0.056652,-2.
 897903,-0.096816\H,0,-0.407554,-1.898828,1.311955\C,0,-1.888905,-1.598
 176,-1.844278\H,0,-1.216857,-2.271858,-2.39305\H,0,-2.804967,-2.146187
 ,-1.617401\H,0,-2.097749,-0.747531,-2.490786\\Version=ES64L-G16RevA.03
 \HF=-3033.1222614\S2=8.762572\S2-1=0.\S2A=8.750049\RMSD=9.867e-09\PG=C
 01 [X(C8H16Cl3Fe1O1)]\\@


 THE RARE EARTHS PERPLEX US IN OUR RESEARCHES,
 BAFFLE US IN OUR SPECULATIONS, AND HAUNT US IN OUR
 VERY DREAMS.  THEY STRETCH LIKE AN UNKNOWN BEFORE US,
 MOCKING, MYSTIFYING, AND MURMURING STRANGE REVELATIONS
 AND POSSIBILITIES.  -- SIR WILLIAM CROOKE, 1832-1919
 Job cpu time:       0 days  1 hours 26 minutes 47.4 seconds.
 Elapsed time:       0 days  0 hours 21 minutes 47.1 seconds.
 File lengths (MBytes):  RWF=    173 Int=      0 D2E=      0 Chk=     13 Scr=      1
 Normal termination of Gaussian 16 at Tue Feb 11 13:58:39 2020.
 Initial command:
 /n/sw/g16_nehalem/g16/l1.exe "/scratch/Gau-12473.inp" -scrdir="/scratch/"
 Entering Link 1 = /n/sw/g16_nehalem/g16/l1.exe PID=     14516.
  
 Copyright (c) 1988,1990,1992,1993,1995,1998,2003,2009,2016,
            Gaussian, Inc.  All Rights Reserved.
  
 This is part of the Gaussian(R) 16 program.  It is based on
 the Gaussian(R) 09 system (copyright 2009, Gaussian, Inc.),
 the Gaussian(R) 03 system (copyright 2003, Gaussian, Inc.),
 the Gaussian(R) 98 system (copyright 1998, Gaussian, Inc.),
 the Gaussian(R) 94 system (copyright 1995, Gaussian, Inc.),
 the Gaussian 92(TM) system (copyright 1992, Gaussian, Inc.),
 the Gaussian 90(TM) system (copyright 1990, Gaussian, Inc.),
 the Gaussian 88(TM) system (copyright 1988, Gaussian, Inc.),
 the Gaussian 86(TM) system (copyright 1986, Carnegie Mellon
 University), and the Gaussian 82(TM) system (copyright 1983,
 Carnegie Mellon University). Gaussian is a federally registered
 trademark of Gaussian, Inc.
  
 This software contains proprietary and confidential information,
 including trade secrets, belonging to Gaussian, Inc.
  
 This software is provided under written license and may be
 used, copied, transmitted, or stored only in accord with that
 written license.
  
 The following legend is applicable only to US Government
 contracts under FAR:
  
                    RESTRICTED RIGHTS LEGEND
  
 Use, reproduction and disclosure by the US Government is
 subject to restrictions as set forth in subparagraphs (a)
 and (c) of the Commercial Computer Software - Restricted
 Rights clause in FAR 52.227-19.
  
 Gaussian, Inc.
 340 Quinnipiac St., Bldg. 40, Wallingford CT 06492
  
  
 ---------------------------------------------------------------
 Warning -- This program may not be used in any manner that
 competes with the business of Gaussian, Inc. or will provide
 assistance to any competitor of Gaussian, Inc.  The licensee
 of this program is prohibited from giving any competitor of
 Gaussian, Inc. access to this program.  By using this program,
 the user acknowledges that Gaussian, Inc. is engaged in the
 business of creating and licensing software in the field of
 computational chemistry and represents and warrants to the
 licensee that it is not a competitor of Gaussian, Inc. and that
 it will not use this program in any manner prohibited above.
 ---------------------------------------------------------------
  

 Cite this work as:
 Gaussian 16, Revision A.03,
 M. J. Frisch, G. W. Trucks, H. B. Schlegel, G. E. Scuseria, 
 M. A. Robb, J. R. Cheeseman, G. Scalmani, V. Barone, 
 G. A. Petersson, H. Nakatsuji, X. Li, M. Caricato, A. V. Marenich, 
 J. Bloino, B. G. Janesko, R. Gomperts, B. Mennucci, H. P. Hratchian, 
 J. V. Ortiz, A. F. Izmaylov, J. L. Sonnenberg, D. Williams-Young, 
 F. Ding, F. Lipparini, F. Egidi, J. Goings, B. Peng, A. Petrone, 
 T. Henderson, D. Ranasinghe, V. G. Zakrzewski, J. Gao, N. Rega, 
 G. Zheng, W. Liang, M. Hada, M. Ehara, K. Toyota, R. Fukuda, 
 J. Hasegawa, M. Ishida, T. Nakajima, Y. Honda, O. Kitao, H. Nakai, 
 T. Vreven, K. Throssell, J. A. Montgomery, Jr., J. E. Peralta, 
 F. Ogliaro, M. J. Bearpark, J. J. Heyd, E. N. Brothers, K. N. Kudin, 
 V. N. Staroverov, T. A. Keith, R. Kobayashi, J. Normand, 
 K. Raghavachari, A. P. Rendell, J. C. Burant, S. S. Iyengar, 
 J. Tomasi, M. Cossi, J. M. Millam, M. Klene, C. Adamo, R. Cammi, 
 J. W. Ochterski, R. L. Martin, K. Morokuma, O. Farkas, 
 J. B. Foresman, and D. J. Fox, Gaussian, Inc., Wallingford CT, 2016.
 
 ******************************************
 Gaussian 16:  ES64L-G16RevA.03 25-Dec-2016
                11-Feb-2020 
 ******************************************
 %chk=checkpoint.chk
 %mem=3GB
 %nprocshared=4
 Will use up to    4 processors via shared memory.
 ---------------------------------------------------------------------
 #t pop=none jul-cc-pvdz guess=read upbe1pbe empiricaldispersion=gd3bj
 ---------------------------------------------------------------------
 -----------------------------
 theory_abbreviation pbe0_d3bj
 -----------------------------
 Symbolic Z-matrix:
 Charge =  0 Multiplicity = 6
 O                    -0.2535   -0.26857  -0.78037 
 C                    -1.12718  -1.18366  -0.60686 
 C                    -2.81382  -0.2991    0.59118 
 C                    -2.69685   0.8944   -0.06096 
 C                    -3.41426   1.16647  -1.34836 
 Fe                    1.4698    0.15533  -0.02586 
 Cl                    1.99755   2.0559   -0.96592 
 C                    -1.79202   1.98629   0.40358 
 Cl                    2.69663  -1.57018  -0.58856 
 Cl                    1.21407   0.3256    2.15704 
 H                    -3.55086  -0.99669   0.19619 
 H                    -2.30747   2.95353   0.37282 
 H                    -1.38571   1.82877   1.40202 
 H                    -0.94677   2.06414  -0.29637 
 H                    -4.06245   2.0433   -1.22089 
 H                    -2.70357   1.4236   -2.14514 
 H                    -4.03665   0.32967  -1.67282 
 C                    -2.465    -0.49081   2.05132 
 H                    -3.18213   0.0627    2.67042 
 H                    -2.53698  -1.54116   2.34114 
 H                    -1.4647   -0.13665   2.3075 
 C                    -0.83004  -2.28201   0.38376 
 H                    -1.69762  -2.91171   0.58678 
 H                    -0.05665  -2.8979   -0.09682 
 H                    -0.40755  -1.89883   1.31196 
 C                    -1.88891  -1.59818  -1.84428 
 H                    -1.21686  -2.27186  -2.39305 
 H                    -2.80497  -2.14619  -1.6174 
 H                    -2.09775  -0.74753  -2.49079 
 
                    Distance matrix (angstroms):
                    1          2          3          4          5
     1  O    0.000000
     2  C    1.277028   0.000000
     3  C    2.904711   2.250000   0.000000
     4  C    2.800000   2.660860   1.365073   0.000000
     5  C    3.517439   3.362091   2.504046   1.498699   0.000000
     6  Fe   1.928405   2.979054   4.351631   4.231832   5.159988
     7  Cl   3.241117   4.515264   5.578524   4.919898   5.497735
     8  C    2.975432   3.392871   2.510440   1.492227   2.524497
     9  Cl   3.230212   3.843346   5.776900   5.953331   6.738667
    10  Cl   3.336943   3.924088   4.366475   4.531924   5.866546
    11  H    3.515166   2.560087   1.088981   2.090861   2.661491
    12  H    3.991319   4.412391   3.299046   2.140046   2.716805
    13  H    3.231650   3.630030   2.687896   2.175415   3.481128
    14  H    2.481220   3.267592   3.139835   2.118131   2.828609
    15  H    4.477374   4.405230   3.213955   2.128441   1.097825
    16  H    3.275496   3.413077   3.235327   2.150328   1.098215
    17  H    3.932756   3.448393   2.648839   2.170733   1.092192
    18  C    3.599805   3.055439   1.513417   2.536593   3.899423
    19  H    4.538123   4.064082   2.142374   2.896144   4.174055
    20  H    4.071560   3.287256   2.163724   3.424559   4.659751
    21  H    3.319541   3.115064   2.189126   2.861970   4.343298
    22  C    2.396143   1.508640   2.812536   3.711110   4.644401
    23  H    3.307678   2.176311   2.841063   3.988042   4.829403
    24  H    2.723852   2.084424   3.850859   4.620984   5.418400
    25  H    2.656932   2.170527   2.978049   3.863663   5.051101
    26  C    2.360992   1.511043   2.911108   3.169533   3.196238
    27  H    2.746258   2.093491   3.917618   4.201693   4.212137
    28  H    3.276587   2.182342   2.879176   3.417512   3.378955
    29  H    2.560501   2.163650   3.195683   2.993145   2.588777
                    6          7          8          9         10
     6  Fe   0.000000
     7  Cl   2.185038   0.000000
     8  C    3.765142   4.030039   0.000000
     9  Cl   2.190693   3.712086   5.812128   0.000000
    10  Cl   2.204416   3.655222   3.856044   3.651064   0.000000
    11  H    5.155918   6.438452   3.469112   6.322649   5.319586
    12  H    4.717699   4.596870   1.096447   6.813907   4.742441
    13  H    3.604604   4.135843   1.089395   5.672809   3.096517
    14  H    3.091367   3.019503   1.100197   5.154424   3.702833
    15  H    5.966428   6.065371   2.792311   7.690400   6.496347
    16  H    4.849417   4.887828   2.764696   6.367720   5.921339
    17  H    5.750118   6.315947   3.477676   7.079701   6.499069
    18  C    4.496092   5.958511   3.050245   5.897156   3.770051
    19  H    5.377637   6.635127   3.281944   6.917159   4.433879
    20  H    4.953292   6.666145   4.092923   5.997893   4.193937
    21  H    3.760469   5.244974   2.870356   5.268665   2.722523
    22  C    3.376040   5.351103   4.375407   3.726859   3.757993
    23  H    4.451361   6.382969   4.902334   4.742423   4.628591
    24  H    3.414281   5.432792   5.207423   3.096001   4.133470
    25  H    3.087682   5.158789   4.223274   3.654576   2.879569
    26  C    4.202655   5.406321   4.232102   4.754447   5.416633
    27  H    4.325845   5.576610   5.126774   4.366227   5.775769
    28  H    5.109168   6.414524   4.710397   5.626535   6.042252
    29  H    4.429267   5.191908   3.993074   5.223153   5.807068
                   11         12         13         14         15
    11  H    0.000000
    12  H    4.145056   0.000000
    13  H    3.758341   1.781575   0.000000
    14  H    4.048779   1.757936   1.769914   0.000000
    15  H    3.392841   2.539361   3.753745   3.250017   0.000000
    16  H    3.472397   2.972830   3.805690   2.629562   1.756368
    17  H    2.342728   3.749582   4.327750   3.801368   1.772414
    18  C    2.208288   3.834801   2.639488   3.787409   4.436318
    19  H    2.716635   3.794850   2.820450   4.219529   4.454210
    20  H    2.434180   4.912150   3.682902   4.741671   5.278583
    21  H    3.090209   3.741994   2.165411   3.448462   4.893876
    22  C    3.014981   5.440021   4.271309   4.400594   5.633086
    23  H    2.693388   5.900741   4.820165   5.109092   5.780325
    24  H    3.988729   6.286976   5.133643   5.045200   6.459522
    25  H    3.455311   5.295005   3.854847   4.310754   5.942551
    26  C    2.699513   5.080235   4.747167   4.086103   4.286404
    27  H    3.711841   6.012005   5.589829   4.823893   5.300184
    28  H    2.273059   5.496875   5.189552   4.787997   4.392072
    29  H    3.064870   4.684241   4.722103   3.747765   3.641624
                   16         17         18         19         20
    16  H    0.000000
    17  H    1.787990   0.000000
    18  C    4.618679   4.124617   0.000000
    19  H    5.026996   4.434540   1.097241   0.000000
    20  H    5.379991   4.675558   1.091973   1.759832   0.000000
    21  H    4.878035   4.761861   1.091632   1.766643   1.767360
    22  C    4.861790   4.618736   2.943170   4.032223   2.700718
    23  H    5.222089   4.591657   2.931636   3.923319   2.379228
    24  H    5.466005   5.361099   4.026005   5.117753   3.733155
    25  H    5.316177   5.200519   2.600434   3.659413   2.391992
    26  C    3.144096   2.891158   4.090701   4.981308   4.235682
    27  H    3.991014   3.903577   4.947971   5.911953   4.968826
    28  H    3.610013   2.765858   4.039228   4.838062   4.013470
    29  H    2.280418   2.364059   4.564155   5.335765   4.916330
                   21         22         23         24         25
    21  H    0.000000
    22  C    2.950613   0.000000
    23  H    3.273540   1.091076   0.000000
    24  H    3.922732   1.099274   1.777717   0.000000
    25  H    2.283402   1.089433   1.793345   1.762362   0.000000
    26  C    4.421908   2.559878   2.769834   2.846061   3.499514
    27  H    5.168723   2.803641   3.085436   2.647772   3.810667
    28  H    4.608622   2.814861   2.582756   3.229627   3.793402
    29  H    4.878266   3.496387   3.783537   3.810678   4.317764
                   26         27         28         29
    26  C    0.000000
    27  H    1.098475   0.000000
    28  H    1.091311   1.771868   0.000000
    29  H    1.088662   1.763263   1.794212   0.000000
 Framework group  C1[X(C8H16Cl3FeO)]
 Deg. of freedom    81
                         Standard orientation:                         
 ---------------------------------------------------------------------
 Center     Atomic      Atomic             Coordinates (Angstroms)
 Number     Number       Type             X           Y           Z
 ---------------------------------------------------------------------
      1          8           0       -0.253502   -0.268574   -0.780371
      2          6           0       -1.127184   -1.183656   -0.606859
      3          6           0       -2.813824   -0.299100    0.591184
      4          6           0       -2.696846    0.894403   -0.060960
      5          6           0       -3.414264    1.166472   -1.348356
      6         26           0        1.469800    0.155329   -0.025864
      7         17           0        1.997552    2.055897   -0.965922
      8          6           0       -1.792016    1.986293    0.403583
      9         17           0        2.696632   -1.570184   -0.588557
     10         17           0        1.214073    0.325600    2.157038
     11          1           0       -3.550861   -0.996690    0.196185
     12          1           0       -2.307472    2.953534    0.372821
     13          1           0       -1.385708    1.828765    1.402022
     14          1           0       -0.946769    2.064144   -0.296367
     15          1           0       -4.062445    2.043303   -1.220887
     16          1           0       -2.703566    1.423603   -2.145142
     17          1           0       -4.036652    0.329667   -1.672815
     18          6           0       -2.465000   -0.490812    2.051321
     19          1           0       -3.182131    0.062703    2.670418
     20          1           0       -2.536984   -1.541158    2.341142
     21          1           0       -1.464698   -0.136654    2.307501
     22          6           0       -0.830036   -2.282007    0.383759
     23          1           0       -1.697624   -2.911707    0.586777
     24          1           0       -0.056652   -2.897903   -0.096816
     25          1           0       -0.407554   -1.898828    1.311955
     26          6           0       -1.888905   -1.598176   -1.844278
     27          1           0       -1.216857   -2.271858   -2.393050
     28          1           0       -2.804967   -2.146187   -1.617401
     29          1           0       -2.097749   -0.747531   -2.490786
 ---------------------------------------------------------------------
 Rotational constants (GHZ):           0.5787500           0.3269292           0.3078310
   427 basis functions,  1056 primitive gaussians,   461 cartesian basis functions
    77 alpha electrons       72 beta electrons
       nuclear repulsion energy      1633.5349925037 Hartrees.
 NAtoms=   29 NActive=   29 NUniq=   29 SFac= 1.00D+00 NAtFMM=   60 NAOKFM=F Big=F
 Nuclear repulsion after empirical dispersion term =     1633.4977886197 Hartrees.
 Initial guess from the checkpoint file:  "checkpoint.chk"
 B after Tr=     0.000000    0.000000    0.000000
         Rot=    1.000000    0.000000    0.000000    0.000000 Ang=   0.00 deg.
 Initial guess <Sx>= 0.0000 <Sy>= 0.0000 <Sz>= 2.5000 <S**2>= 8.7626 S= 2.5021
 SCF Done:  E(UPBE1PBE) =  -3033.15946524     A.U. after    1 cycles
            NFock=  1  Conv=0.38D-08     -V/T= 2.0021
 <Sx>= 0.0000 <Sy>= 0.0000 <Sz>= 2.5000 <S**2>= 8.7626 S= 2.5021
 <L.S>= 0.000000000000E+00
 Annihilation of the first spin contaminant:
 S**2 before annihilation     8.7626,   after     8.7500
 1\1\GINC-HOLY7C04205\SP\UPBE1PBE\Jul-CC-pVDZ\C8H16Cl3Fe1O1(6)\EKWAN\11
 -Feb-2020\0\\#t pop=none jul-cc-pvdz guess=read upbe1pbe empiricaldisp
 ersion=gd3bj\\theory_abbreviation pbe0_d3bj\\0,6\O,0,-0.253502,-0.2685
 74,-0.780371\C,0,-1.127184,-1.183656,-0.606859\C,0,-2.813824,-0.2991,0
 .591184\C,0,-2.696846,0.894403,-0.06096\C,0,-3.414264,1.166472,-1.3483
 56\Fe,0,1.4698,0.155329,-0.025864\Cl,0,1.997552,2.055897,-0.965922\C,0
 ,-1.792016,1.986293,0.403583\Cl,0,2.696632,-1.570184,-0.588557\Cl,0,1.
 214073,0.3256,2.157038\H,0,-3.550861,-0.99669,0.196185\H,0,-2.307472,2
 .953534,0.372821\H,0,-1.385708,1.828765,1.402022\H,0,-0.946769,2.06414
 4,-0.296367\H,0,-4.062445,2.043303,-1.220887\H,0,-2.703566,1.423603,-2
 .145142\H,0,-4.036652,0.329667,-1.672815\C,0,-2.465,-0.490812,2.051321
 \H,0,-3.182131,0.062703,2.670418\H,0,-2.536984,-1.541158,2.341142\H,0,
 -1.464698,-0.136654,2.307501\C,0,-0.830036,-2.282007,0.383759\H,0,-1.6
 97624,-2.911707,0.586777\H,0,-0.056652,-2.897903,-0.096816\H,0,-0.4075
 54,-1.898828,1.311955\C,0,-1.888905,-1.598176,-1.844278\H,0,-1.216857,
 -2.271858,-2.39305\H,0,-2.804967,-2.146187,-1.617401\H,0,-2.097749,-0.
 747531,-2.490786\\Version=ES64L-G16RevA.03\HF=-3033.1594652\S2=8.76257
 2\S2-1=0.\S2A=8.750049\RMSD=3.810e-09\PG=C01 [X(C8H16Cl3Fe1O1)]\\@


 VIRTUE IS LEARNED AT YOUR MOTHER'S KNEE,
 VICES ARE PICKED UP AT SOME OTHER JOINT.
 Job cpu time:       0 days  0 hours  4 minutes 43.0 seconds.
 Elapsed time:       0 days  0 hours  1 minutes 11.9 seconds.
 File lengths (MBytes):  RWF=    170 Int=      0 D2E=      0 Chk=     13 Scr=      1
 Normal termination of Gaussian 16 at Tue Feb 11 13:59:52 2020.
 Initial command:
 /n/sw/g16_nehalem/g16/l1.exe "/scratch/Gau-12473.inp" -scrdir="/scratch/"
 Entering Link 1 = /n/sw/g16_nehalem/g16/l1.exe PID=     15323.
  
 Copyright (c) 1988,1990,1992,1993,1995,1998,2003,2009,2016,
            Gaussian, Inc.  All Rights Reserved.
  
 This is part of the Gaussian(R) 16 program.  It is based on
 the Gaussian(R) 09 system (copyright 2009, Gaussian, Inc.),
 the Gaussian(R) 03 system (copyright 2003, Gaussian, Inc.),
 the Gaussian(R) 98 system (copyright 1998, Gaussian, Inc.),
 the Gaussian(R) 94 system (copyright 1995, Gaussian, Inc.),
 the Gaussian 92(TM) system (copyright 1992, Gaussian, Inc.),
 the Gaussian 90(TM) system (copyright 1990, Gaussian, Inc.),
 the Gaussian 88(TM) system (copyright 1988, Gaussian, Inc.),
 the Gaussian 86(TM) system (copyright 1986, Carnegie Mellon
 University), and the Gaussian 82(TM) system (copyright 1983,
 Carnegie Mellon University). Gaussian is a federally registered
 trademark of Gaussian, Inc.
  
 This software contains proprietary and confidential information,
 including trade secrets, belonging to Gaussian, Inc.
  
 This software is provided under written license and may be
 used, copied, transmitted, or stored only in accord with that
 written license.
  
 The following legend is applicable only to US Government
 contracts under FAR:
  
                    RESTRICTED RIGHTS LEGEND
  
 Use, reproduction and disclosure by the US Government is
 subject to restrictions as set forth in subparagraphs (a)
 and (c) of the Commercial Computer Software - Restricted
 Rights clause in FAR 52.227-19.
  
 Gaussian, Inc.
 340 Quinnipiac St., Bldg. 40, Wallingford CT 06492
  
  
 ---------------------------------------------------------------
 Warning -- This program may not be used in any manner that
 competes with the business of Gaussian, Inc. or will provide
 assistance to any competitor of Gaussian, Inc.  The licensee
 of this program is prohibited from giving any competitor of
 Gaussian, Inc. access to this program.  By using this program,
 the user acknowledges that Gaussian, Inc. is engaged in the
 business of creating and licensing software in the field of
 computational chemistry and represents and warrants to the
 licensee that it is not a competitor of Gaussian, Inc. and that
 it will not use this program in any manner prohibited above.
 ---------------------------------------------------------------
  

 Cite this work as:
 Gaussian 16, Revision A.03,
 M. J. Frisch, G. W. Trucks, H. B. Schlegel, G. E. Scuseria, 
 M. A. Robb, J. R. Cheeseman, G. Scalmani, V. Barone, 
 G. A. Petersson, H. Nakatsuji, X. Li, M. Caricato, A. V. Marenich, 
 J. Bloino, B. G. Janesko, R. Gomperts, B. Mennucci, H. P. Hratchian, 
 J. V. Ortiz, A. F. Izmaylov, J. L. Sonnenberg, D. Williams-Young, 
 F. Ding, F. Lipparini, F. Egidi, J. Goings, B. Peng, A. Petrone, 
 T. Henderson, D. Ranasinghe, V. G. Zakrzewski, J. Gao, N. Rega, 
 G. Zheng, W. Liang, M. Hada, M. Ehara, K. Toyota, R. Fukuda, 
 J. Hasegawa, M. Ishida, T. Nakajima, Y. Honda, O. Kitao, H. Nakai, 
 T. Vreven, K. Throssell, J. A. Montgomery, Jr., J. E. Peralta, 
 F. Ogliaro, M. J. Bearpark, J. J. Heyd, E. N. Brothers, K. N. Kudin, 
 V. N. Staroverov, T. A. Keith, R. Kobayashi, J. Normand, 
 K. Raghavachari, A. P. Rendell, J. C. Burant, S. S. Iyengar, 
 J. Tomasi, M. Cossi, J. M. Millam, M. Klene, C. Adamo, R. Cammi, 
 J. W. Ochterski, R. L. Martin, K. Morokuma, O. Farkas, 
 J. B. Foresman, and D. J. Fox, Gaussian, Inc., Wallingford CT, 2016.
 
 ******************************************
 Gaussian 16:  ES64L-G16RevA.03 25-Dec-2016
                11-Feb-2020 
 ******************************************
 %chk=checkpoint.chk
 %mem=3GB
 %nprocshared=4
 Will use up to    4 processors via shared memory.
 -----------------------------------------
 #t pop=none jul-cc-pvdz guess=read ub3lyp
 -----------------------------------------
 -------------------------
 theory_abbreviation b3lyp
 -------------------------
 Symbolic Z-matrix:
 Charge =  0 Multiplicity = 6
 O                    -0.2535   -0.26857  -0.78037 
 C                    -1.12718  -1.18366  -0.60686 
 C                    -2.81382  -0.2991    0.59118 
 C                    -2.69685   0.8944   -0.06096 
 C                    -3.41426   1.16647  -1.34836 
 Fe                    1.4698    0.15533  -0.02586 
 Cl                    1.99755   2.0559   -0.96592 
 C                    -1.79202   1.98629   0.40358 
 Cl                    2.69663  -1.57018  -0.58856 
 Cl                    1.21407   0.3256    2.15704 
 H                    -3.55086  -0.99669   0.19619 
 H                    -2.30747   2.95353   0.37282 
 H                    -1.38571   1.82877   1.40202 
 H                    -0.94677   2.06414  -0.29637 
 H                    -4.06245   2.0433   -1.22089 
 H                    -2.70357   1.4236   -2.14514 
 H                    -4.03665   0.32967  -1.67282 
 C                    -2.465    -0.49081   2.05132 
 H                    -3.18213   0.0627    2.67042 
 H                    -2.53698  -1.54116   2.34114 
 H                    -1.4647   -0.13665   2.3075 
 C                    -0.83004  -2.28201   0.38376 
 H                    -1.69762  -2.91171   0.58678 
 H                    -0.05665  -2.8979   -0.09682 
 H                    -0.40755  -1.89883   1.31196 
 C                    -1.88891  -1.59818  -1.84428 
 H                    -1.21686  -2.27186  -2.39305 
 H                    -2.80497  -2.14619  -1.6174 
 H                    -2.09775  -0.74753  -2.49079 
 
                    Distance matrix (angstroms):
                    1          2          3          4          5
     1  O    0.000000
     2  C    1.277028   0.000000
     3  C    2.904711   2.250000   0.000000
     4  C    2.800000   2.660860   1.365073   0.000000
     5  C    3.517439   3.362091   2.504046   1.498699   0.000000
     6  Fe   1.928405   2.979054   4.351631   4.231832   5.159988
     7  Cl   3.241117   4.515264   5.578524   4.919898   5.497735
     8  C    2.975432   3.392871   2.510440   1.492227   2.524497
     9  Cl   3.230212   3.843346   5.776900   5.953331   6.738667
    10  Cl   3.336943   3.924088   4.366475   4.531924   5.866546
    11  H    3.515166   2.560087   1.088981   2.090861   2.661491
    12  H    3.991319   4.412391   3.299046   2.140046   2.716805
    13  H    3.231650   3.630030   2.687896   2.175415   3.481128
    14  H    2.481220   3.267592   3.139835   2.118131   2.828609
    15  H    4.477374   4.405230   3.213955   2.128441   1.097825
    16  H    3.275496   3.413077   3.235327   2.150328   1.098215
    17  H    3.932756   3.448393   2.648839   2.170733   1.092192
    18  C    3.599805   3.055439   1.513417   2.536593   3.899423
    19  H    4.538123   4.064082   2.142374   2.896144   4.174055
    20  H    4.071560   3.287256   2.163724   3.424559   4.659751
    21  H    3.319541   3.115064   2.189126   2.861970   4.343298
    22  C    2.396143   1.508640   2.812536   3.711110   4.644401
    23  H    3.307678   2.176311   2.841063   3.988042   4.829403
    24  H    2.723852   2.084424   3.850859   4.620984   5.418400
    25  H    2.656932   2.170527   2.978049   3.863663   5.051101
    26  C    2.360992   1.511043   2.911108   3.169533   3.196238
    27  H    2.746258   2.093491   3.917618   4.201693   4.212137
    28  H    3.276587   2.182342   2.879176   3.417512   3.378955
    29  H    2.560501   2.163650   3.195683   2.993145   2.588777
                    6          7          8          9         10
     6  Fe   0.000000
     7  Cl   2.185038   0.000000
     8  C    3.765142   4.030039   0.000000
     9  Cl   2.190693   3.712086   5.812128   0.000000
    10  Cl   2.204416   3.655222   3.856044   3.651064   0.000000
    11  H    5.155918   6.438452   3.469112   6.322649   5.319586
    12  H    4.717699   4.596870   1.096447   6.813907   4.742441
    13  H    3.604604   4.135843   1.089395   5.672809   3.096517
    14  H    3.091367   3.019503   1.100197   5.154424   3.702833
    15  H    5.966428   6.065371   2.792311   7.690400   6.496347
    16  H    4.849417   4.887828   2.764696   6.367720   5.921339
    17  H    5.750118   6.315947   3.477676   7.079701   6.499069
    18  C    4.496092   5.958511   3.050245   5.897156   3.770051
    19  H    5.377637   6.635127   3.281944   6.917159   4.433879
    20  H    4.953292   6.666145   4.092923   5.997893   4.193937
    21  H    3.760469   5.244974   2.870356   5.268665   2.722523
    22  C    3.376040   5.351103   4.375407   3.726859   3.757993
    23  H    4.451361   6.382969   4.902334   4.742423   4.628591
    24  H    3.414281   5.432792   5.207423   3.096001   4.133470
    25  H    3.087682   5.158789   4.223274   3.654576   2.879569
    26  C    4.202655   5.406321   4.232102   4.754447   5.416633
    27  H    4.325845   5.576610   5.126774   4.366227   5.775769
    28  H    5.109168   6.414524   4.710397   5.626535   6.042252
    29  H    4.429267   5.191908   3.993074   5.223153   5.807068
                   11         12         13         14         15
    11  H    0.000000
    12  H    4.145056   0.000000
    13  H    3.758341   1.781575   0.000000
    14  H    4.048779   1.757936   1.769914   0.000000
    15  H    3.392841   2.539361   3.753745   3.250017   0.000000
    16  H    3.472397   2.972830   3.805690   2.629562   1.756368
    17  H    2.342728   3.749582   4.327750   3.801368   1.772414
    18  C    2.208288   3.834801   2.639488   3.787409   4.436318
    19  H    2.716635   3.794850   2.820450   4.219529   4.454210
    20  H    2.434180   4.912150   3.682902   4.741671   5.278583
    21  H    3.090209   3.741994   2.165411   3.448462   4.893876
    22  C    3.014981   5.440021   4.271309   4.400594   5.633086
    23  H    2.693388   5.900741   4.820165   5.109092   5.780325
    24  H    3.988729   6.286976   5.133643   5.045200   6.459522
    25  H    3.455311   5.295005   3.854847   4.310754   5.942551
    26  C    2.699513   5.080235   4.747167   4.086103   4.286404
    27  H    3.711841   6.012005   5.589829   4.823893   5.300184
    28  H    2.273059   5.496875   5.189552   4.787997   4.392072
    29  H    3.064870   4.684241   4.722103   3.747765   3.641624
                   16         17         18         19         20
    16  H    0.000000
    17  H    1.787990   0.000000
    18  C    4.618679   4.124617   0.000000
    19  H    5.026996   4.434540   1.097241   0.000000
    20  H    5.379991   4.675558   1.091973   1.759832   0.000000
    21  H    4.878035   4.761861   1.091632   1.766643   1.767360
    22  C    4.861790   4.618736   2.943170   4.032223   2.700718
    23  H    5.222089   4.591657   2.931636   3.923319   2.379228
    24  H    5.466005   5.361099   4.026005   5.117753   3.733155
    25  H    5.316177   5.200519   2.600434   3.659413   2.391992
    26  C    3.144096   2.891158   4.090701   4.981308   4.235682
    27  H    3.991014   3.903577   4.947971   5.911953   4.968826
    28  H    3.610013   2.765858   4.039228   4.838062   4.013470
    29  H    2.280418   2.364059   4.564155   5.335765   4.916330
                   21         22         23         24         25
    21  H    0.000000
    22  C    2.950613   0.000000
    23  H    3.273540   1.091076   0.000000
    24  H    3.922732   1.099274   1.777717   0.000000
    25  H    2.283402   1.089433   1.793345   1.762362   0.000000
    26  C    4.421908   2.559878   2.769834   2.846061   3.499514
    27  H    5.168723   2.803641   3.085436   2.647772   3.810667
    28  H    4.608622   2.814861   2.582756   3.229627   3.793402
    29  H    4.878266   3.496387   3.783537   3.810678   4.317764
                   26         27         28         29
    26  C    0.000000
    27  H    1.098475   0.000000
    28  H    1.091311   1.771868   0.000000
    29  H    1.088662   1.763263   1.794212   0.000000
 Framework group  C1[X(C8H16Cl3FeO)]
 Deg. of freedom    81
                         Standard orientation:                         
 ---------------------------------------------------------------------
 Center     Atomic      Atomic             Coordinates (Angstroms)
 Number     Number       Type             X           Y           Z
 ---------------------------------------------------------------------
      1          8           0       -0.253502   -0.268574   -0.780371
      2          6           0       -1.127184   -1.183656   -0.606859
      3          6           0       -2.813824   -0.299100    0.591184
      4          6           0       -2.696846    0.894403   -0.060960
      5          6           0       -3.414264    1.166472   -1.348356
      6         26           0        1.469800    0.155329   -0.025864
      7         17           0        1.997552    2.055897   -0.965922
      8          6           0       -1.792016    1.986293    0.403583
      9         17           0        2.696632   -1.570184   -0.588557
     10         17           0        1.214073    0.325600    2.157038
     11          1           0       -3.550861   -0.996690    0.196185
     12          1           0       -2.307472    2.953534    0.372821
     13          1           0       -1.385708    1.828765    1.402022
     14          1           0       -0.946769    2.064144   -0.296367
     15          1           0       -4.062445    2.043303   -1.220887
     16          1           0       -2.703566    1.423603   -2.145142
     17          1           0       -4.036652    0.329667   -1.672815
     18          6           0       -2.465000   -0.490812    2.051321
     19          1           0       -3.182131    0.062703    2.670418
     20          1           0       -2.536984   -1.541158    2.341142
     21          1           0       -1.464698   -0.136654    2.307501
     22          6           0       -0.830036   -2.282007    0.383759
     23          1           0       -1.697624   -2.911707    0.586777
     24          1           0       -0.056652   -2.897903   -0.096816
     25          1           0       -0.407554   -1.898828    1.311955
     26          6           0       -1.888905   -1.598176   -1.844278
     27          1           0       -1.216857   -2.271858   -2.393050
     28          1           0       -2.804967   -2.146187   -1.617401
     29          1           0       -2.097749   -0.747531   -2.490786
 ---------------------------------------------------------------------
 Rotational constants (GHZ):           0.5787500           0.3269292           0.3078310
   427 basis functions,  1056 primitive gaussians,   461 cartesian basis functions
    77 alpha electrons       72 beta electrons
       nuclear repulsion energy      1633.5349925037 Hartrees.
 NAtoms=   29 NActive=   29 NUniq=   29 SFac= 1.00D+00 NAtFMM=   60 NAOKFM=F Big=F
 Initial guess from the checkpoint file:  "checkpoint.chk"
 B after Tr=     0.000000    0.000000    0.000000
         Rot=    1.000000    0.000000    0.000000    0.000000 Ang=   0.00 deg.
 Initial guess <Sx>= 0.0000 <Sy>= 0.0000 <Sz>= 2.5000 <S**2>= 8.7626 S= 2.5021
 SCF Done:  E(UB3LYP) =  -3034.33840238     A.U. after   13 cycles
            NFock= 13  Conv=0.90D-08     -V/T= 2.0024
 <Sx>= 0.0000 <Sy>= 0.0000 <Sz>= 2.5000 <S**2>= 8.7619 S= 2.5020
 <L.S>= 0.000000000000E+00
 Annihilation of the first spin contaminant:
 S**2 before annihilation     8.7619,   after     8.7500
 1\1\GINC-HOLY7C04205\SP\UB3LYP\Jul-CC-pVDZ\C8H16Cl3Fe1O1(6)\EKWAN\11-F
 eb-2020\0\\#t pop=none jul-cc-pvdz guess=read ub3lyp\\theory_abbreviat
 ion b3lyp\\0,6\O,0,-0.253502,-0.268574,-0.780371\C,0,-1.127184,-1.1836
 56,-0.606859\C,0,-2.813824,-0.2991,0.591184\C,0,-2.696846,0.894403,-0.
 06096\C,0,-3.414264,1.166472,-1.348356\Fe,0,1.4698,0.155329,-0.025864\
 Cl,0,1.997552,2.055897,-0.965922\C,0,-1.792016,1.986293,0.403583\Cl,0,
 2.696632,-1.570184,-0.588557\Cl,0,1.214073,0.3256,2.157038\H,0,-3.5508
 61,-0.99669,0.196185\H,0,-2.307472,2.953534,0.372821\H,0,-1.385708,1.8
 28765,1.402022\H,0,-0.946769,2.064144,-0.296367\H,0,-4.062445,2.043303
 ,-1.220887\H,0,-2.703566,1.423603,-2.145142\H,0,-4.036652,0.329667,-1.
 672815\C,0,-2.465,-0.490812,2.051321\H,0,-3.182131,0.062703,2.670418\H
 ,0,-2.536984,-1.541158,2.341142\H,0,-1.464698,-0.136654,2.307501\C,0,-
 0.830036,-2.282007,0.383759\H,0,-1.697624,-2.911707,0.586777\H,0,-0.05
 6652,-2.897903,-0.096816\H,0,-0.407554,-1.898828,1.311955\C,0,-1.88890
 5,-1.598176,-1.844278\H,0,-1.216857,-2.271858,-2.39305\H,0,-2.804967,-
 2.146187,-1.617401\H,0,-2.097749,-0.747531,-2.490786\\Version=ES64L-G1
 6RevA.03\HF=-3034.3384024\S2=8.761858\S2-1=0.\S2A=8.750044\RMSD=8.976e
 -09\PG=C01 [X(C8H16Cl3Fe1O1)]\\@


 ABALONE: AN EXPRESSION OF DISBELIEF.
 Job cpu time:       0 days  0 hours 55 minutes 17.4 seconds.
 Elapsed time:       0 days  0 hours 13 minutes 52.0 seconds.
 File lengths (MBytes):  RWF=    174 Int=      0 D2E=      0 Chk=     13 Scr=      1
 Normal termination of Gaussian 16 at Tue Feb 11 14:13:44 2020.
 Initial command:
 /n/sw/g16_nehalem/g16/l1.exe "/scratch/Gau-12473.inp" -scrdir="/scratch/"
 Entering Link 1 = /n/sw/g16_nehalem/g16/l1.exe PID=     17046.
  
 Copyright (c) 1988,1990,1992,1993,1995,1998,2003,2009,2016,
            Gaussian, Inc.  All Rights Reserved.
  
 This is part of the Gaussian(R) 16 program.  It is based on
 the Gaussian(R) 09 system (copyright 2009, Gaussian, Inc.),
 the Gaussian(R) 03 system (copyright 2003, Gaussian, Inc.),
 the Gaussian(R) 98 system (copyright 1998, Gaussian, Inc.),
 the Gaussian(R) 94 system (copyright 1995, Gaussian, Inc.),
 the Gaussian 92(TM) system (copyright 1992, Gaussian, Inc.),
 the Gaussian 90(TM) system (copyright 1990, Gaussian, Inc.),
 the Gaussian 88(TM) system (copyright 1988, Gaussian, Inc.),
 the Gaussian 86(TM) system (copyright 1986, Carnegie Mellon
 University), and the Gaussian 82(TM) system (copyright 1983,
 Carnegie Mellon University). Gaussian is a federally registered
 trademark of Gaussian, Inc.
  
 This software contains proprietary and confidential information,
 including trade secrets, belonging to Gaussian, Inc.
  
 This software is provided under written license and may be
 used, copied, transmitted, or stored only in accord with that
 written license.
  
 The following legend is applicable only to US Government
 contracts under FAR:
  
                    RESTRICTED RIGHTS LEGEND
  
 Use, reproduction and disclosure by the US Government is
 subject to restrictions as set forth in subparagraphs (a)
 and (c) of the Commercial Computer Software - Restricted
 Rights clause in FAR 52.227-19.
  
 Gaussian, Inc.
 340 Quinnipiac St., Bldg. 40, Wallingford CT 06492
  
  
 ---------------------------------------------------------------
 Warning -- This program may not be used in any manner that
 competes with the business of Gaussian, Inc. or will provide
 assistance to any competitor of Gaussian, Inc.  The licensee
 of this program is prohibited from giving any competitor of
 Gaussian, Inc. access to this program.  By using this program,
 the user acknowledges that Gaussian, Inc. is engaged in the
 business of creating and licensing software in the field of
 computational chemistry and represents and warrants to the
 licensee that it is not a competitor of Gaussian, Inc. and that
 it will not use this program in any manner prohibited above.
 ---------------------------------------------------------------
  

 Cite this work as:
 Gaussian 16, Revision A.03,
 M. J. Frisch, G. W. Trucks, H. B. Schlegel, G. E. Scuseria, 
 M. A. Robb, J. R. Cheeseman, G. Scalmani, V. Barone, 
 G. A. Petersson, H. Nakatsuji, X. Li, M. Caricato, A. V. Marenich, 
 J. Bloino, B. G. Janesko, R. Gomperts, B. Mennucci, H. P. Hratchian, 
 J. V. Ortiz, A. F. Izmaylov, J. L. Sonnenberg, D. Williams-Young, 
 F. Ding, F. Lipparini, F. Egidi, J. Goings, B. Peng, A. Petrone, 
 T. Henderson, D. Ranasinghe, V. G. Zakrzewski, J. Gao, N. Rega, 
 G. Zheng, W. Liang, M. Hada, M. Ehara, K. Toyota, R. Fukuda, 
 J. Hasegawa, M. Ishida, T. Nakajima, Y. Honda, O. Kitao, H. Nakai, 
 T. Vreven, K. Throssell, J. A. Montgomery, Jr., J. E. Peralta, 
 F. Ogliaro, M. J. Bearpark, J. J. Heyd, E. N. Brothers, K. N. Kudin, 
 V. N. Staroverov, T. A. Keith, R. Kobayashi, J. Normand, 
 K. Raghavachari, A. P. Rendell, J. C. Burant, S. S. Iyengar, 
 J. Tomasi, M. Cossi, J. M. Millam, M. Klene, C. Adamo, R. Cammi, 
 J. W. Ochterski, R. L. Martin, K. Morokuma, O. Farkas, 
 J. B. Foresman, and D. J. Fox, Gaussian, Inc., Wallingford CT, 2016.
 
 ******************************************
 Gaussian 16:  ES64L-G16RevA.03 25-Dec-2016
                11-Feb-2020 
 ******************************************
 %chk=checkpoint.chk
 %mem=3GB
 %nprocshared=4
 Will use up to    4 processors via shared memory.
 -------------------------------------------------------------------
 #t pop=none jul-cc-pvdz guess=read ub3lyp empiricaldispersion=gd3bj
 -------------------------------------------------------------------
 ------------------------------
 theory_abbreviation b3lyp_d3bj
 ------------------------------
 Symbolic Z-matrix:
 Charge =  0 Multiplicity = 6
 O                    -0.2535   -0.26857  -0.78037 
 C                    -1.12718  -1.18366  -0.60686 
 C                    -2.81382  -0.2991    0.59118 
 C                    -2.69685   0.8944   -0.06096 
 C                    -3.41426   1.16647  -1.34836 
 Fe                    1.4698    0.15533  -0.02586 
 Cl                    1.99755   2.0559   -0.96592 
 C                    -1.79202   1.98629   0.40358 
 Cl                    2.69663  -1.57018  -0.58856 
 Cl                    1.21407   0.3256    2.15704 
 H                    -3.55086  -0.99669   0.19619 
 H                    -2.30747   2.95353   0.37282 
 H                    -1.38571   1.82877   1.40202 
 H                    -0.94677   2.06414  -0.29637 
 H                    -4.06245   2.0433   -1.22089 
 H                    -2.70357   1.4236   -2.14514 
 H                    -4.03665   0.32967  -1.67282 
 C                    -2.465    -0.49081   2.05132 
 H                    -3.18213   0.0627    2.67042 
 H                    -2.53698  -1.54116   2.34114 
 H                    -1.4647   -0.13665   2.3075 
 C                    -0.83004  -2.28201   0.38376 
 H                    -1.69762  -2.91171   0.58678 
 H                    -0.05665  -2.8979   -0.09682 
 H                    -0.40755  -1.89883   1.31196 
 C                    -1.88891  -1.59818  -1.84428 
 H                    -1.21686  -2.27186  -2.39305 
 H                    -2.80497  -2.14619  -1.6174 
 H                    -2.09775  -0.74753  -2.49079 
 
                    Distance matrix (angstroms):
                    1          2          3          4          5
     1  O    0.000000
     2  C    1.277028   0.000000
     3  C    2.904711   2.250000   0.000000
     4  C    2.800000   2.660860   1.365073   0.000000
     5  C    3.517439   3.362091   2.504046   1.498699   0.000000
     6  Fe   1.928405   2.979054   4.351631   4.231832   5.159988
     7  Cl   3.241117   4.515264   5.578524   4.919898   5.497735
     8  C    2.975432   3.392871   2.510440   1.492227   2.524497
     9  Cl   3.230212   3.843346   5.776900   5.953331   6.738667
    10  Cl   3.336943   3.924088   4.366475   4.531924   5.866546
    11  H    3.515166   2.560087   1.088981   2.090861   2.661491
    12  H    3.991319   4.412391   3.299046   2.140046   2.716805
    13  H    3.231650   3.630030   2.687896   2.175415   3.481128
    14  H    2.481220   3.267592   3.139835   2.118131   2.828609
    15  H    4.477374   4.405230   3.213955   2.128441   1.097825
    16  H    3.275496   3.413077   3.235327   2.150328   1.098215
    17  H    3.932756   3.448393   2.648839   2.170733   1.092192
    18  C    3.599805   3.055439   1.513417   2.536593   3.899423
    19  H    4.538123   4.064082   2.142374   2.896144   4.174055
    20  H    4.071560   3.287256   2.163724   3.424559   4.659751
    21  H    3.319541   3.115064   2.189126   2.861970   4.343298
    22  C    2.396143   1.508640   2.812536   3.711110   4.644401
    23  H    3.307678   2.176311   2.841063   3.988042   4.829403
    24  H    2.723852   2.084424   3.850859   4.620984   5.418400
    25  H    2.656932   2.170527   2.978049   3.863663   5.051101
    26  C    2.360992   1.511043   2.911108   3.169533   3.196238
    27  H    2.746258   2.093491   3.917618   4.201693   4.212137
    28  H    3.276587   2.182342   2.879176   3.417512   3.378955
    29  H    2.560501   2.163650   3.195683   2.993145   2.588777
                    6          7          8          9         10
     6  Fe   0.000000
     7  Cl   2.185038   0.000000
     8  C    3.765142   4.030039   0.000000
     9  Cl   2.190693   3.712086   5.812128   0.000000
    10  Cl   2.204416   3.655222   3.856044   3.651064   0.000000
    11  H    5.155918   6.438452   3.469112   6.322649   5.319586
    12  H    4.717699   4.596870   1.096447   6.813907   4.742441
    13  H    3.604604   4.135843   1.089395   5.672809   3.096517
    14  H    3.091367   3.019503   1.100197   5.154424   3.702833
    15  H    5.966428   6.065371   2.792311   7.690400   6.496347
    16  H    4.849417   4.887828   2.764696   6.367720   5.921339
    17  H    5.750118   6.315947   3.477676   7.079701   6.499069
    18  C    4.496092   5.958511   3.050245   5.897156   3.770051
    19  H    5.377637   6.635127   3.281944   6.917159   4.433879
    20  H    4.953292   6.666145   4.092923   5.997893   4.193937
    21  H    3.760469   5.244974   2.870356   5.268665   2.722523
    22  C    3.376040   5.351103   4.375407   3.726859   3.757993
    23  H    4.451361   6.382969   4.902334   4.742423   4.628591
    24  H    3.414281   5.432792   5.207423   3.096001   4.133470
    25  H    3.087682   5.158789   4.223274   3.654576   2.879569
    26  C    4.202655   5.406321   4.232102   4.754447   5.416633
    27  H    4.325845   5.576610   5.126774   4.366227   5.775769
    28  H    5.109168   6.414524   4.710397   5.626535   6.042252
    29  H    4.429267   5.191908   3.993074   5.223153   5.807068
                   11         12         13         14         15
    11  H    0.000000
    12  H    4.145056   0.000000
    13  H    3.758341   1.781575   0.000000
    14  H    4.048779   1.757936   1.769914   0.000000
    15  H    3.392841   2.539361   3.753745   3.250017   0.000000
    16  H    3.472397   2.972830   3.805690   2.629562   1.756368
    17  H    2.342728   3.749582   4.327750   3.801368   1.772414
    18  C    2.208288   3.834801   2.639488   3.787409   4.436318
    19  H    2.716635   3.794850   2.820450   4.219529   4.454210
    20  H    2.434180   4.912150   3.682902   4.741671   5.278583
    21  H    3.090209   3.741994   2.165411   3.448462   4.893876
    22  C    3.014981   5.440021   4.271309   4.400594   5.633086
    23  H    2.693388   5.900741   4.820165   5.109092   5.780325
    24  H    3.988729   6.286976   5.133643   5.045200   6.459522
    25  H    3.455311   5.295005   3.854847   4.310754   5.942551
    26  C    2.699513   5.080235   4.747167   4.086103   4.286404
    27  H    3.711841   6.012005   5.589829   4.823893   5.300184
    28  H    2.273059   5.496875   5.189552   4.787997   4.392072
    29  H    3.064870   4.684241   4.722103   3.747765   3.641624
                   16         17         18         19         20
    16  H    0.000000
    17  H    1.787990   0.000000
    18  C    4.618679   4.124617   0.000000
    19  H    5.026996   4.434540   1.097241   0.000000
    20  H    5.379991   4.675558   1.091973   1.759832   0.000000
    21  H    4.878035   4.761861   1.091632   1.766643   1.767360
    22  C    4.861790   4.618736   2.943170   4.032223   2.700718
    23  H    5.222089   4.591657   2.931636   3.923319   2.379228
    24  H    5.466005   5.361099   4.026005   5.117753   3.733155
    25  H    5.316177   5.200519   2.600434   3.659413   2.391992
    26  C    3.144096   2.891158   4.090701   4.981308   4.235682
    27  H    3.991014   3.903577   4.947971   5.911953   4.968826
    28  H    3.610013   2.765858   4.039228   4.838062   4.013470
    29  H    2.280418   2.364059   4.564155   5.335765   4.916330
                   21         22         23         24         25
    21  H    0.000000
    22  C    2.950613   0.000000
    23  H    3.273540   1.091076   0.000000
    24  H    3.922732   1.099274   1.777717   0.000000
    25  H    2.283402   1.089433   1.793345   1.762362   0.000000
    26  C    4.421908   2.559878   2.769834   2.846061   3.499514
    27  H    5.168723   2.803641   3.085436   2.647772   3.810667
    28  H    4.608622   2.814861   2.582756   3.229627   3.793402
    29  H    4.878266   3.496387   3.783537   3.810678   4.317764
                   26         27         28         29
    26  C    0.000000
    27  H    1.098475   0.000000
    28  H    1.091311   1.771868   0.000000
    29  H    1.088662   1.763263   1.794212   0.000000
 Framework group  C1[X(C8H16Cl3FeO)]
 Deg. of freedom    81
                         Standard orientation:                         
 ---------------------------------------------------------------------
 Center     Atomic      Atomic             Coordinates (Angstroms)
 Number     Number       Type             X           Y           Z
 ---------------------------------------------------------------------
      1          8           0       -0.253502   -0.268574   -0.780371
      2          6           0       -1.127184   -1.183656   -0.606859
      3          6           0       -2.813824   -0.299100    0.591184
      4          6           0       -2.696846    0.894403   -0.060960
      5          6           0       -3.414264    1.166472   -1.348356
      6         26           0        1.469800    0.155329   -0.025864
      7         17           0        1.997552    2.055897   -0.965922
      8          6           0       -1.792016    1.986293    0.403583
      9         17           0        2.696632   -1.570184   -0.588557
     10         17           0        1.214073    0.325600    2.157038
     11          1           0       -3.550861   -0.996690    0.196185
     12          1           0       -2.307472    2.953534    0.372821
     13          1           0       -1.385708    1.828765    1.402022
     14          1           0       -0.946769    2.064144   -0.296367
     15          1           0       -4.062445    2.043303   -1.220887
     16          1           0       -2.703566    1.423603   -2.145142
     17          1           0       -4.036652    0.329667   -1.672815
     18          6           0       -2.465000   -0.490812    2.051321
     19          1           0       -3.182131    0.062703    2.670418
     20          1           0       -2.536984   -1.541158    2.341142
     21          1           0       -1.464698   -0.136654    2.307501
     22          6           0       -0.830036   -2.282007    0.383759
     23          1           0       -1.697624   -2.911707    0.586777
     24          1           0       -0.056652   -2.897903   -0.096816
     25          1           0       -0.407554   -1.898828    1.311955
     26          6           0       -1.888905   -1.598176   -1.844278
     27          1           0       -1.216857   -2.271858   -2.393050
     28          1           0       -2.804967   -2.146187   -1.617401
     29          1           0       -2.097749   -0.747531   -2.490786
 ---------------------------------------------------------------------
 Rotational constants (GHZ):           0.5787500           0.3269292           0.3078310
   427 basis functions,  1056 primitive gaussians,   461 cartesian basis functions
    77 alpha electrons       72 beta electrons
       nuclear repulsion energy      1633.5349925037 Hartrees.
 NAtoms=   29 NActive=   29 NUniq=   29 SFac= 1.00D+00 NAtFMM=   60 NAOKFM=F Big=F
 Nuclear repulsion after empirical dispersion term =     1633.4657634033 Hartrees.
 Initial guess from the checkpoint file:  "checkpoint.chk"
 B after Tr=     0.000000    0.000000    0.000000
         Rot=    1.000000    0.000000    0.000000    0.000000 Ang=   0.00 deg.
 Initial guess <Sx>= 0.0000 <Sy>= 0.0000 <Sz>= 2.5000 <S**2>= 8.7619 S= 2.5020
 SCF Done:  E(UB3LYP) =  -3034.40763148     A.U. after    1 cycles
            NFock=  1  Conv=0.57D-08     -V/T= 2.0024
 <Sx>= 0.0000 <Sy>= 0.0000 <Sz>= 2.5000 <S**2>= 8.7619 S= 2.5020
 <L.S>= 0.000000000000E+00
 Annihilation of the first spin contaminant:
 S**2 before annihilation     8.7619,   after     8.7500
 1\1\GINC-HOLY7C04205\SP\UB3LYP\Jul-CC-pVDZ\C8H16Cl3Fe1O1(6)\EKWAN\11-F
 eb-2020\0\\#t pop=none jul-cc-pvdz guess=read ub3lyp empiricaldispersi
 on=gd3bj\\theory_abbreviation b3lyp_d3bj\\0,6\O,0,-0.253502,-0.268574,
 -0.780371\C,0,-1.127184,-1.183656,-0.606859\C,0,-2.813824,-0.2991,0.59
 1184\C,0,-2.696846,0.894403,-0.06096\C,0,-3.414264,1.166472,-1.348356\
 Fe,0,1.4698,0.155329,-0.025864\Cl,0,1.997552,2.055897,-0.965922\C,0,-1
 .792016,1.986293,0.403583\Cl,0,2.696632,-1.570184,-0.588557\Cl,0,1.214
 073,0.3256,2.157038\H,0,-3.550861,-0.99669,0.196185\H,0,-2.307472,2.95
 3534,0.372821\H,0,-1.385708,1.828765,1.402022\H,0,-0.946769,2.064144,-
 0.296367\H,0,-4.062445,2.043303,-1.220887\H,0,-2.703566,1.423603,-2.14
 5142\H,0,-4.036652,0.329667,-1.672815\C,0,-2.465,-0.490812,2.051321\H,
 0,-3.182131,0.062703,2.670418\H,0,-2.536984,-1.541158,2.341142\H,0,-1.
 464698,-0.136654,2.307501\C,0,-0.830036,-2.282007,0.383759\H,0,-1.6976
 24,-2.911707,0.586777\H,0,-0.056652,-2.897903,-0.096816\H,0,-0.407554,
 -1.898828,1.311955\C,0,-1.888905,-1.598176,-1.844278\H,0,-1.216857,-2.
 271858,-2.39305\H,0,-2.804967,-2.146187,-1.617401\H,0,-2.097749,-0.747
 531,-2.490786\\Version=ES64L-G16RevA.03\HF=-3034.4076315\S2=8.761858\S
 2-1=0.\S2A=8.750044\RMSD=5.656e-09\PG=C01 [X(C8H16Cl3Fe1O1)]\\@


 KNOWLEDGE IS EXPERIMENT'S DAUGHTER.
 -- LEONARDO DA VINCI, IN "PENSIERI" CA. 1492
 Job cpu time:       0 days  0 hours  4 minutes 39.1 seconds.
 Elapsed time:       0 days  0 hours  1 minutes 10.2 seconds.
 File lengths (MBytes):  RWF=    170 Int=      0 D2E=      0 Chk=     13 Scr=      1
 Normal termination of Gaussian 16 at Tue Feb 11 14:14:55 2020.
 Initial command:
 /n/sw/g16_nehalem/g16/l1.exe "/scratch/Gau-12473.inp" -scrdir="/scratch/"
 Entering Link 1 = /n/sw/g16_nehalem/g16/l1.exe PID=     17383.
  
 Copyright (c) 1988,1990,1992,1993,1995,1998,2003,2009,2016,
            Gaussian, Inc.  All Rights Reserved.
  
 This is part of the Gaussian(R) 16 program.  It is based on
 the Gaussian(R) 09 system (copyright 2009, Gaussian, Inc.),
 the Gaussian(R) 03 system (copyright 2003, Gaussian, Inc.),
 the Gaussian(R) 98 system (copyright 1998, Gaussian, Inc.),
 the Gaussian(R) 94 system (copyright 1995, Gaussian, Inc.),
 the Gaussian 92(TM) system (copyright 1992, Gaussian, Inc.),
 the Gaussian 90(TM) system (copyright 1990, Gaussian, Inc.),
 the Gaussian 88(TM) system (copyright 1988, Gaussian, Inc.),
 the Gaussian 86(TM) system (copyright 1986, Carnegie Mellon
 University), and the Gaussian 82(TM) system (copyright 1983,
 Carnegie Mellon University). Gaussian is a federally registered
 trademark of Gaussian, Inc.
  
 This software contains proprietary and confidential information,
 including trade secrets, belonging to Gaussian, Inc.
  
 This software is provided under written license and may be
 used, copied, transmitted, or stored only in accord with that
 written license.
  
 The following legend is applicable only to US Government
 contracts under FAR:
  
                    RESTRICTED RIGHTS LEGEND
  
 Use, reproduction and disclosure by the US Government is
 subject to restrictions as set forth in subparagraphs (a)
 and (c) of the Commercial Computer Software - Restricted
 Rights clause in FAR 52.227-19.
  
 Gaussian, Inc.
 340 Quinnipiac St., Bldg. 40, Wallingford CT 06492
  
  
 ---------------------------------------------------------------
 Warning -- This program may not be used in any manner that
 competes with the business of Gaussian, Inc. or will provide
 assistance to any competitor of Gaussian, Inc.  The licensee
 of this program is prohibited from giving any competitor of
 Gaussian, Inc. access to this program.  By using this program,
 the user acknowledges that Gaussian, Inc. is engaged in the
 business of creating and licensing software in the field of
 computational chemistry and represents and warrants to the
 licensee that it is not a competitor of Gaussian, Inc. and that
 it will not use this program in any manner prohibited above.
 ---------------------------------------------------------------
  

 Cite this work as:
 Gaussian 16, Revision A.03,
 M. J. Frisch, G. W. Trucks, H. B. Schlegel, G. E. Scuseria, 
 M. A. Robb, J. R. Cheeseman, G. Scalmani, V. Barone, 
 G. A. Petersson, H. Nakatsuji, X. Li, M. Caricato, A. V. Marenich, 
 J. Bloino, B. G. Janesko, R. Gomperts, B. Mennucci, H. P. Hratchian, 
 J. V. Ortiz, A. F. Izmaylov, J. L. Sonnenberg, D. Williams-Young, 
 F. Ding, F. Lipparini, F. Egidi, J. Goings, B. Peng, A. Petrone, 
 T. Henderson, D. Ranasinghe, V. G. Zakrzewski, J. Gao, N. Rega, 
 G. Zheng, W. Liang, M. Hada, M. Ehara, K. Toyota, R. Fukuda, 
 J. Hasegawa, M. Ishida, T. Nakajima, Y. Honda, O. Kitao, H. Nakai, 
 T. Vreven, K. Throssell, J. A. Montgomery, Jr., J. E. Peralta, 
 F. Ogliaro, M. J. Bearpark, J. J. Heyd, E. N. Brothers, K. N. Kudin, 
 V. N. Staroverov, T. A. Keith, R. Kobayashi, J. Normand, 
 K. Raghavachari, A. P. Rendell, J. C. Burant, S. S. Iyengar, 
 J. Tomasi, M. Cossi, J. M. Millam, M. Klene, C. Adamo, R. Cammi, 
 J. W. Ochterski, R. L. Martin, K. Morokuma, O. Farkas, 
 J. B. Foresman, and D. J. Fox, Gaussian, Inc., Wallingford CT, 2016.
 
 ******************************************
 Gaussian 16:  ES64L-G16RevA.03 25-Dec-2016
                11-Feb-2020 
 ******************************************
 %chk=checkpoint.chk
 %mem=3GB
 %nprocshared=4
 Will use up to    4 processors via shared memory.
 ----------------------------------------
 #t pop=none jul-cc-pvdz guess=read ub97d
 ----------------------------------------
 ------------------------
 theory_abbreviation b97d
 ------------------------
 Symbolic Z-matrix:
 Charge =  0 Multiplicity = 6
 O                    -0.2535   -0.26857  -0.78037 
 C                    -1.12718  -1.18366  -0.60686 
 C                    -2.81382  -0.2991    0.59118 
 C                    -2.69685   0.8944   -0.06096 
 C                    -3.41426   1.16647  -1.34836 
 Fe                    1.4698    0.15533  -0.02586 
 Cl                    1.99755   2.0559   -0.96592 
 C                    -1.79202   1.98629   0.40358 
 Cl                    2.69663  -1.57018  -0.58856 
 Cl                    1.21407   0.3256    2.15704 
 H                    -3.55086  -0.99669   0.19619 
 H                    -2.30747   2.95353   0.37282 
 H                    -1.38571   1.82877   1.40202 
 H                    -0.94677   2.06414  -0.29637 
 H                    -4.06245   2.0433   -1.22089 
 H                    -2.70357   1.4236   -2.14514 
 H                    -4.03665   0.32967  -1.67282 
 C                    -2.465    -0.49081   2.05132 
 H                    -3.18213   0.0627    2.67042 
 H                    -2.53698  -1.54116   2.34114 
 H                    -1.4647   -0.13665   2.3075 
 C                    -0.83004  -2.28201   0.38376 
 H                    -1.69762  -2.91171   0.58678 
 H                    -0.05665  -2.8979   -0.09682 
 H                    -0.40755  -1.89883   1.31196 
 C                    -1.88891  -1.59818  -1.84428 
 H                    -1.21686  -2.27186  -2.39305 
 H                    -2.80497  -2.14619  -1.6174 
 H                    -2.09775  -0.74753  -2.49079 
 
                    Distance matrix (angstroms):
                    1          2          3          4          5
     1  O    0.000000
     2  C    1.277028   0.000000
     3  C    2.904711   2.250000   0.000000
     4  C    2.800000   2.660860   1.365073   0.000000
     5  C    3.517439   3.362091   2.504046   1.498699   0.000000
     6  Fe   1.928405   2.979054   4.351631   4.231832   5.159988
     7  Cl   3.241117   4.515264   5.578524   4.919898   5.497735
     8  C    2.975432   3.392871   2.510440   1.492227   2.524497
     9  Cl   3.230212   3.843346   5.776900   5.953331   6.738667
    10  Cl   3.336943   3.924088   4.366475   4.531924   5.866546
    11  H    3.515166   2.560087   1.088981   2.090861   2.661491
    12  H    3.991319   4.412391   3.299046   2.140046   2.716805
    13  H    3.231650   3.630030   2.687896   2.175415   3.481128
    14  H    2.481220   3.267592   3.139835   2.118131   2.828609
    15  H    4.477374   4.405230   3.213955   2.128441   1.097825
    16  H    3.275496   3.413077   3.235327   2.150328   1.098215
    17  H    3.932756   3.448393   2.648839   2.170733   1.092192
    18  C    3.599805   3.055439   1.513417   2.536593   3.899423
    19  H    4.538123   4.064082   2.142374   2.896144   4.174055
    20  H    4.071560   3.287256   2.163724   3.424559   4.659751
    21  H    3.319541   3.115064   2.189126   2.861970   4.343298
    22  C    2.396143   1.508640   2.812536   3.711110   4.644401
    23  H    3.307678   2.176311   2.841063   3.988042   4.829403
    24  H    2.723852   2.084424   3.850859   4.620984   5.418400
    25  H    2.656932   2.170527   2.978049   3.863663   5.051101
    26  C    2.360992   1.511043   2.911108   3.169533   3.196238
    27  H    2.746258   2.093491   3.917618   4.201693   4.212137
    28  H    3.276587   2.182342   2.879176   3.417512   3.378955
    29  H    2.560501   2.163650   3.195683   2.993145   2.588777
                    6          7          8          9         10
     6  Fe   0.000000
     7  Cl   2.185038   0.000000
     8  C    3.765142   4.030039   0.000000
     9  Cl   2.190693   3.712086   5.812128   0.000000
    10  Cl   2.204416   3.655222   3.856044   3.651064   0.000000
    11  H    5.155918   6.438452   3.469112   6.322649   5.319586
    12  H    4.717699   4.596870   1.096447   6.813907   4.742441
    13  H    3.604604   4.135843   1.089395   5.672809   3.096517
    14  H    3.091367   3.019503   1.100197   5.154424   3.702833
    15  H    5.966428   6.065371   2.792311   7.690400   6.496347
    16  H    4.849417   4.887828   2.764696   6.367720   5.921339
    17  H    5.750118   6.315947   3.477676   7.079701   6.499069
    18  C    4.496092   5.958511   3.050245   5.897156   3.770051
    19  H    5.377637   6.635127   3.281944   6.917159   4.433879
    20  H    4.953292   6.666145   4.092923   5.997893   4.193937
    21  H    3.760469   5.244974   2.870356   5.268665   2.722523
    22  C    3.376040   5.351103   4.375407   3.726859   3.757993
    23  H    4.451361   6.382969   4.902334   4.742423   4.628591
    24  H    3.414281   5.432792   5.207423   3.096001   4.133470
    25  H    3.087682   5.158789   4.223274   3.654576   2.879569
    26  C    4.202655   5.406321   4.232102   4.754447   5.416633
    27  H    4.325845   5.576610   5.126774   4.366227   5.775769
    28  H    5.109168   6.414524   4.710397   5.626535   6.042252
    29  H    4.429267   5.191908   3.993074   5.223153   5.807068
                   11         12         13         14         15
    11  H    0.000000
    12  H    4.145056   0.000000
    13  H    3.758341   1.781575   0.000000
    14  H    4.048779   1.757936   1.769914   0.000000
    15  H    3.392841   2.539361   3.753745   3.250017   0.000000
    16  H    3.472397   2.972830   3.805690   2.629562   1.756368
    17  H    2.342728   3.749582   4.327750   3.801368   1.772414
    18  C    2.208288   3.834801   2.639488   3.787409   4.436318
    19  H    2.716635   3.794850   2.820450   4.219529   4.454210
    20  H    2.434180   4.912150   3.682902   4.741671   5.278583
    21  H    3.090209   3.741994   2.165411   3.448462   4.893876
    22  C    3.014981   5.440021   4.271309   4.400594   5.633086
    23  H    2.693388   5.900741   4.820165   5.109092   5.780325
    24  H    3.988729   6.286976   5.133643   5.045200   6.459522
    25  H    3.455311   5.295005   3.854847   4.310754   5.942551
    26  C    2.699513   5.080235   4.747167   4.086103   4.286404
    27  H    3.711841   6.012005   5.589829   4.823893   5.300184
    28  H    2.273059   5.496875   5.189552   4.787997   4.392072
    29  H    3.064870   4.684241   4.722103   3.747765   3.641624
                   16         17         18         19         20
    16  H    0.000000
    17  H    1.787990   0.000000
    18  C    4.618679   4.124617   0.000000
    19  H    5.026996   4.434540   1.097241   0.000000
    20  H    5.379991   4.675558   1.091973   1.759832   0.000000
    21  H    4.878035   4.761861   1.091632   1.766643   1.767360
    22  C    4.861790   4.618736   2.943170   4.032223   2.700718
    23  H    5.222089   4.591657   2.931636   3.923319   2.379228
    24  H    5.466005   5.361099   4.026005   5.117753   3.733155
    25  H    5.316177   5.200519   2.600434   3.659413   2.391992
    26  C    3.144096   2.891158   4.090701   4.981308   4.235682
[...]
 NAtoms=   29 NActive=   29 NUniq=   29 SFac= 1.00D+00 NAtFMM=   60 NAOKFM=F Big=F
 Nuclear repulsion after empirical dispersion term =     1633.5325391285 Hartrees.
 Initial guess from the checkpoint file:  "checkpoint.chk"
 B after Tr=     0.000000    0.000000    0.000000
         Rot=    1.000000    0.000000    0.000000    0.000000 Ang=   0.00 deg.
 Initial guess <Sx>= 0.0000 <Sy>= 0.0000 <Sz>= 2.5000 <S**2>= 8.7616 S= 2.5019
 SCF Done:  E(UM06L) =  -3034.20557842     A.U. after   18 cycles
            NFock= 18  Conv=0.31D-08     -V/T= 2.0020
 <Sx>= 0.0000 <Sy>= 0.0000 <Sz>= 2.5000 <S**2>= 8.7617 S= 2.5019
 <L.S>= 0.000000000000E+00
 Annihilation of the first spin contaminant:
 S**2 before annihilation     8.7617,   after     8.7500
 1\1\GINC-HOLY7C04205\SP\UM06L\Jul-CC-pVDZ\C8H16Cl3Fe1O1(6)\EKWAN\11-Fe
 b-2020\0\\#t pop=none jul-cc-pvdz guess=read um06l empiricaldispersion
 =gd3\\theory_abbreviation m06l_d3\\0,6\O,0,-0.253502,-0.268574,-0.7803
 71\C,0,-1.127184,-1.183656,-0.606859\C,0,-2.813824,-0.2991,0.591184\C,
 0,-2.696846,0.894403,-0.06096\C,0,-3.414264,1.166472,-1.348356\Fe,0,1.
 4698,0.155329,-0.025864\Cl,0,1.997552,2.055897,-0.965922\C,0,-1.792016
 ,1.986293,0.403583\Cl,0,2.696632,-1.570184,-0.588557\Cl,0,1.214073,0.3
 256,2.157038\H,0,-3.550861,-0.99669,0.196185\H,0,-2.307472,2.953534,0.
 372821\H,0,-1.385708,1.828765,1.402022\H,0,-0.946769,2.064144,-0.29636
 7\H,0,-4.062445,2.043303,-1.220887\H,0,-2.703566,1.423603,-2.145142\H,
 0,-4.036652,0.329667,-1.672815\C,0,-2.465,-0.490812,2.051321\H,0,-3.18
 2131,0.062703,2.670418\H,0,-2.536984,-1.541158,2.341142\H,0,-1.464698,
 -0.136654,2.307501\C,0,-0.830036,-2.282007,0.383759\H,0,-1.697624,-2.9
 11707,0.586777\H,0,-0.056652,-2.897903,-0.096816\H,0,-0.407554,-1.8988
 28,1.311955\C,0,-1.888905,-1.598176,-1.844278\H,0,-1.216857,-2.271858,
 -2.39305\H,0,-2.804967,-2.146187,-1.617401\H,0,-2.097749,-0.747531,-2.
 490786\\Version=ES64L-G16RevA.03\HF=-3034.2055784\S2=8.761656\S2-1=0.\
 S2A=8.750044\RMSD=3.123e-09\PG=C01 [X(C8H16Cl3Fe1O1)]\\@


 The number of Unix installations has grown to 10,
  with more expected.
                  -- The Unix Programmer's Manual,
                     2nd Edition, June, 1972.
 Job cpu time:       0 days  1 hours 18 minutes 34.2 seconds.
 Elapsed time:       0 days  0 hours 19 minutes 42.7 seconds.
 File lengths (MBytes):  RWF=    174 Int=      0 D2E=      0 Chk=     13 Scr=      1
 Normal termination of Gaussian 16 at Tue Feb 11 23:45:50 2020.
 Initial command:
 /n/sw/g16_nehalem/g16/l1.exe "/scratch/Gau-12473.inp" -scrdir="/scratch/"
 Entering Link 1 = /n/sw/g16_nehalem/g16/l1.exe PID=     76516.
  
 Copyright (c) 1988,1990,1992,1993,1995,1998,2003,2009,2016,
            Gaussian, Inc.  All Rights Reserved.
  
 This is part of the Gaussian(R) 16 program.  It is based on
 the Gaussian(R) 09 system (copyright 2009, Gaussian, Inc.),
 the Gaussian(R) 03 system (copyright 2003, Gaussian, Inc.),
 the Gaussian(R) 98 system (copyright 1998, Gaussian, Inc.),
 the Gaussian(R) 94 system (copyright 1995, Gaussian, Inc.),
 the Gaussian 92(TM) system (copyright 1992, Gaussian, Inc.),
 the Gaussian 90(TM) system (copyright 1990, Gaussian, Inc.),
 the Gaussian 88(TM) system (copyright 1988, Gaussian, Inc.),
 the Gaussian 86(TM) system (copyright 1986, Carnegie Mellon
 University), and the Gaussian 82(TM) system (copyright 1983,
 Carnegie Mellon University). Gaussian is a federally registered
 trademark of Gaussian, Inc.
  
 This software contains proprietary and confidential information,
 including trade secrets, belonging to Gaussian, Inc.
  
 This software is provided under written license and may be
 used, copied, transmitted, or stored only in accord with that
 written license.
  
 The following legend is applicable only to US Government
 contracts under FAR:
  
                    RESTRICTED RIGHTS LEGEND
  
 Use, reproduction and disclosure by the US Government is
 subject to restrictions as set forth in subparagraphs (a)
 and (c) of the Commercial Computer Software - Restricted
 Rights clause in FAR 52.227-19.
  
 Gaussian, Inc.
 340 Quinnipiac St., Bldg. 40, Wallingford CT 06492
  
  
 ---------------------------------------------------------------
 Warning -- This program may not be used in any manner that
 competes with the business of Gaussian, Inc. or will provide
 assistance to any competitor of Gaussian, Inc.  The licensee
 of this program is prohibited from giving any competitor of
 Gaussian, Inc. access to this program.  By using this program,
 the user acknowledges that Gaussian, Inc. is engaged in the
 business of creating and licensing software in the field of
 computational chemistry and represents and warrants to the
 licensee that it is not a competitor of Gaussian, Inc. and that
 it will not use this program in any manner prohibited above.
 ---------------------------------------------------------------
  

 Cite this work as:
 Gaussian 16, Revision A.03,
 M. J. Frisch, G. W. Trucks, H. B. Schlegel, G. E. Scuseria, 
 M. A. Robb, J. R. Cheeseman, G. Scalmani, V. Barone, 
 G. A. Petersson, H. Nakatsuji, X. Li, M. Caricato, A. V. Marenich, 
 J. Bloino, B. G. Janesko, R. Gomperts, B. Mennucci, H. P. Hratchian, 
 J. V. Ortiz, A. F. Izmaylov, J. L. Sonnenberg, D. Williams-Young, 
 F. Ding, F. Lipparini, F. Egidi, J. Goings, B. Peng, A. Petrone, 
 T. Henderson, D. Ranasinghe, V. G. Zakrzewski, J. Gao, N. Rega, 
 G. Zheng, W. Liang, M. Hada, M. Ehara, K. Toyota, R. Fukuda, 
 J. Hasegawa, M. Ishida, T. Nakajima, Y. Honda, O. Kitao, H. Nakai, 
 T. Vreven, K. Throssell, J. A. Montgomery, Jr., J. E. Peralta, 
 F. Ogliaro, M. J. Bearpark, J. J. Heyd, E. N. Brothers, K. N. Kudin, 
 V. N. Staroverov, T. A. Keith, R. Kobayashi, J. Normand, 
 K. Raghavachari, A. P. Rendell, J. C. Burant, S. S. Iyengar, 
 J. Tomasi, M. Cossi, J. M. Millam, M. Klene, C. Adamo, R. Cammi, 
 J. W. Ochterski, R. L. Martin, K. Morokuma, O. Farkas, 
 J. B. Foresman, and D. J. Fox, Gaussian, Inc., Wallingford CT, 2016.
 
 ******************************************
 Gaussian 16:  ES64L-G16RevA.03 25-Dec-2016
                11-Feb-2020 
 ******************************************
 %chk=checkpoint.chk
 %mem=3GB
 %nprocshared=4
 Will use up to    4 processors via shared memory.
 -------------------------------------------------------------------
 #t pop=none jul-cc-pvdz guess=read ub97d3 empiricaldispersion=gd3bj
 -------------------------------------------------------------------
 ------------------------------
 theory_abbreviation b97d3_d3bj
 ------------------------------
 Symbolic Z-matrix:
 Charge =  0 Multiplicity = 6
 O                    -0.2535   -0.26857  -0.78037 
 C                    -1.12718  -1.18366  -0.60686 
 C                    -2.81382  -0.2991    0.59118 
 C                    -2.69685   0.8944   -0.06096 
 C                    -3.41426   1.16647  -1.34836 
 Fe                    1.4698    0.15533  -0.02586 
 Cl                    1.99755   2.0559   -0.96592 
 C                    -1.79202   1.98629   0.40358 
 Cl                    2.69663  -1.57018  -0.58856 
 Cl                    1.21407   0.3256    2.15704 
 H                    -3.55086  -0.99669   0.19619 
 H                    -2.30747   2.95353   0.37282 
 H                    -1.38571   1.82877   1.40202 
 H                    -0.94677   2.06414  -0.29637 
 H                    -4.06245   2.0433   -1.22089 
 H                    -2.70357   1.4236   -2.14514 
 H                    -4.03665   0.32967  -1.67282 
 C                    -2.465    -0.49081   2.05132 
 H                    -3.18213   0.0627    2.67042 
 H                    -2.53698  -1.54116   2.34114 
 H                    -1.4647   -0.13665   2.3075 
 C                    -0.83004  -2.28201   0.38376 
 H                    -1.69762  -2.91171   0.58678 
 H                    -0.05665  -2.8979   -0.09682 
 H                    -0.40755  -1.89883   1.31196 
 C                    -1.88891  -1.59818  -1.84428 
 H                    -1.21686  -2.27186  -2.39305 
 H                    -2.80497  -2.14619  -1.6174 
 H                    -2.09775  -0.74753  -2.49079 
 
                    Distance matrix (angstroms):
                    1          2          3          4          5
     1  O    0.000000
     2  C    1.277028   0.000000
     3  C    2.904711   2.250000   0.000000
     4  C    2.800000   2.660860   1.365073   0.000000
     5  C    3.517439   3.362091   2.504046   1.498699   0.000000
     6  Fe   1.928405   2.979054   4.351631   4.231832   5.159988
     7  Cl   3.241117   4.515264   5.578524   4.919898   5.497735
     8  C    2.975432   3.392871   2.510440   1.492227   2.524497
     9  Cl   3.230212   3.843346   5.776900   5.953331   6.738667
    10  Cl   3.336943   3.924088   4.366475   4.531924   5.866546
    11  H    3.515166   2.560087   1.088981   2.090861   2.661491
    12  H    3.991319   4.412391   3.299046   2.140046   2.716805
    13  H    3.231650   3.630030   2.687896   2.175415   3.481128
    14  H    2.481220   3.267592   3.139835   2.118131   2.828609
    15  H    4.477374   4.405230   3.213955   2.128441   1.097825
    16  H    3.275496   3.413077   3.235327   2.150328   1.098215
    17  H    3.932756   3.448393   2.648839   2.170733   1.092192
    18  C    3.599805   3.055439   1.513417   2.536593   3.899423
    19  H    4.538123   4.064082   2.142374   2.896144   4.174055
    20  H    4.071560   3.287256   2.163724   3.424559   4.659751
    21  H    3.319541   3.115064   2.189126   2.861970   4.343298
    22  C    2.396143   1.508640   2.812536   3.711110   4.644401
    23  H    3.307678   2.176311   2.841063   3.988042   4.829403
    24  H    2.723852   2.084424   3.850859   4.620984   5.418400
    25  H    2.656932   2.170527   2.978049   3.863663   5.051101
    26  C    2.360992   1.511043   2.911108   3.169533   3.196238
    27  H    2.746258   2.093491   3.917618   4.201693   4.212137
    28  H    3.276587   2.182342   2.879176   3.417512   3.378955
    29  H    2.560501   2.163650   3.195683   2.993145   2.588777
                    6          7          8          9         10
     6  Fe   0.000000
     7  Cl   2.185038   0.000000
     8  C    3.765142   4.030039   0.000000
     9  Cl   2.190693   3.712086   5.812128   0.000000
    10  Cl   2.204416   3.655222   3.856044   3.651064   0.000000
    11  H    5.155918   6.438452   3.469112   6.322649   5.319586
    12  H    4.717699   4.596870   1.096447   6.813907   4.742441
    13  H    3.604604   4.135843   1.089395   5.672809   3.096517
    14  H    3.091367   3.019503   1.100197   5.154424   3.702833
    15  H    5.966428   6.065371   2.792311   7.690400   6.496347
    16  H    4.849417   4.887828   2.764696   6.367720   5.921339
    17  H    5.750118   6.315947   3.477676   7.079701   6.499069
    18  C    4.496092   5.958511   3.050245   5.897156   3.770051
    19  H    5.377637   6.635127   3.281944   6.917159   4.433879
    20  H    4.953292   6.666145   4.092923   5.997893   4.193937
    21  H    3.760469   5.244974   2.870356   5.268665   2.722523
    22  C    3.376040   5.351103   4.375407   3.726859   3.757993
    23  H    4.451361   6.382969   4.902334   4.742423   4.628591
    24  H    3.414281   5.432792   5.207423   3.096001   4.133470
    25  H    3.087682   5.158789   4.223274   3.654576   2.879569
    26  C    4.202655   5.406321   4.232102   4.754447   5.416633
    27  H    4.325845   5.576610   5.126774   4.366227   5.775769
    28  H    5.109168   6.414524   4.710397   5.626535   6.042252
    29  H    4.429267   5.191908   3.993074   5.223153   5.807068
                   11         12         13         14         15
    11  H    0.000000
    12  H    4.145056   0.000000
    13  H    3.758341   1.781575   0.000000
    14  H    4.048779   1.757936   1.769914   0.000000
    15  H    3.392841   2.539361   3.753745   3.250017   0.000000
    16  H    3.472397   2.972830   3.805690   2.629562   1.756368
    17  H    2.342728   3.749582   4.327750   3.801368   1.772414
    18  C    2.208288   3.834801   2.639488   3.787409   4.436318
    19  H    2.716635   3.794850   2.820450   4.219529   4.454210
    20  H    2.434180   4.912150   3.682902   4.741671   5.278583
    21  H    3.090209   3.741994   2.165411   3.448462   4.893876
    22  C    3.014981   5.440021   4.271309   4.400594   5.633086
    23  H    2.693388   5.900741   4.820165   5.109092   5.780325
    24  H    3.988729   6.286976   5.133643   5.045200   6.459522
    25  H    3.455311   5.295005   3.854847   4.310754   5.942551
    26  C    2.699513   5.080235   4.747167   4.086103   4.286404
    27  H    3.711841   6.012005   5.589829   4.823893   5.300184
    28  H    2.273059   5.496875   5.189552   4.787997   4.392072
    29  H    3.064870   4.684241   4.722103   3.747765   3.641624
                   16         17         18         19         20
    16  H    0.000000
    17  H    1.787990   0.000000
    18  C    4.618679   4.124617   0.000000
    19  H    5.026996   4.434540   1.097241   0.000000
    20  H    5.379991   4.675558   1.091973   1.759832   0.000000
    21  H    4.878035   4.761861   1.091632   1.766643   1.767360
    22  C    4.861790   4.618736   2.943170   4.032223   2.700718
    23  H    5.222089   4.591657   2.931636   3.923319   2.379228
    24  H    5.466005   5.361099   4.026005   5.117753   3.733155
    25  H    5.316177   5.200519   2.600434   3.659413   2.391992
    26  C    3.144096   2.891158   4.090701   4.981308   4.235682
    27  H    3.991014   3.903577   4.947971   5.911953   4.968826
    28  H    3.610013   2.765858   4.039228   4.838062   4.013470
    29  H    2.280418   2.364059   4.564155   5.335765   4.916330
                   21         22         23         24         25
    21  H    0.000000
    22  C    2.950613   0.000000
    23  H    3.273540   1.091076   0.000000
    24  H    3.922732   1.099274   1.777717   0.000000
    25  H    2.283402   1.089433   1.793345   1.762362   0.000000
    26  C    4.421908   2.559878   2.769834   2.846061   3.499514
    27  H    5.168723   2.803641   3.085436   2.647772   3.810667
    28  H    4.608622   2.814861   2.582756   3.229627   3.793402
    29  H    4.878266   3.496387   3.783537   3.810678   4.317764
                   26         27         28         29
    26  C    0.000000
    27  H    1.098475   0.000000
    28  H    1.091311   1.771868   0.000000
    29  H    1.088662   1.763263   1.794212   0.000000
 Framework group  C1[X(C8H16Cl3FeO)]
 Deg. of freedom    81
                         Standard orientation:                         
 ---------------------------------------------------------------------
 Center     Atomic      Atomic             Coordinates (Angstroms)
 Number     Number       Type             X           Y           Z
 ---------------------------------------------------------------------
      1          8           0       -0.253502   -0.268574   -0.780371
      2          6           0       -1.127184   -1.183656   -0.606859
      3          6           0       -2.813824   -0.299100    0.591184
      4          6           0       -2.696846    0.894403   -0.060960
      5          6           0       -3.414264    1.166472   -1.348356
      6         26           0        1.469800    0.155329   -0.025864
      7         17           0        1.997552    2.055897   -0.965922
      8          6           0       -1.792016    1.986293    0.403583
      9         17           0        2.696632   -1.570184   -0.588557
     10         17           0        1.214073    0.325600    2.157038
     11          1           0       -3.550861   -0.996690    0.196185
     12          1           0       -2.307472    2.953534    0.372821
     13          1           0       -1.385708    1.828765    1.402022
     14          1           0       -0.946769    2.064144   -0.296367
     15          1           0       -4.062445    2.043303   -1.220887
     16          1           0       -2.703566    1.423603   -2.145142
     17          1           0       -4.036652    0.329667   -1.672815
     18          6           0       -2.465000   -0.490812    2.051321
     19          1           0       -3.182131    0.062703    2.670418
     20          1           0       -2.536984   -1.541158    2.341142
     21          1           0       -1.464698   -0.136654    2.307501
     22          6           0       -0.830036   -2.282007    0.383759
     23          1           0       -1.697624   -2.911707    0.586777
     24          1           0       -0.056652   -2.897903   -0.096816
     25          1           0       -0.407554   -1.898828    1.311955
     26          6           0       -1.888905   -1.598176   -1.844278
     27          1           0       -1.216857   -2.271858   -2.393050
     28          1           0       -2.804967   -2.146187   -1.617401
     29          1           0       -2.097749   -0.747531   -2.490786
 ---------------------------------------------------------------------
 Rotational constants (GHZ):           0.5787500           0.3269292           0.3078310
   427 basis functions,  1056 primitive gaussians,   461 cartesian basis functions
    77 alpha electrons       72 beta electrons
       nuclear repulsion energy      1633.5349925037 Hartrees.
 NAtoms=   29 NActive=   29 NUniq=   29 SFac= 1.00D+00 NAtFMM=   60 NAOKFM=F Big=F
 Nuclear repulsion after empirical dispersion term =     1633.4331271161 Hartrees.
 Initial guess from the checkpoint file:  "checkpoint.chk"
 B after Tr=     0.000000    0.000000    0.000000
         Rot=    1.000000    0.000000    0.000000    0.000000 Ang=   0.00 deg.
 Initial guess <Sx>= 0.0000 <Sy>= 0.0000 <Sz>= 2.5000 <S**2>= 8.7617 S= 2.5019
 EnCoef did     1 forward-backward iterations
 SCF Done:  E(UB97D3) =  -3034.62828220     A.U. after   15 cycles
            NFock= 15  Conv=0.78D-08     -V/T= 2.0019
 <Sx>= 0.0000 <Sy>= 0.0000 <Sz>= 2.5000 <S**2>= 8.7597 S= 2.5016
 <L.S>= 0.000000000000E+00
 Annihilation of the first spin contaminant:
 S**2 before annihilation     8.7597,   after     8.7500
 1\1\GINC-HOLY7C04205\SP\UB97D3\Jul-CC-pVDZ\C8H16Cl3Fe1O1(6)\EKWAN\11-F
 eb-2020\0\\#t pop=none jul-cc-pvdz guess=read ub97d3 empiricaldispersi
 on=gd3bj\\theory_abbreviation b97d3_d3bj\\0,6\O,0,-0.253502,-0.268574,
 -0.780371\C,0,-1.127184,-1.183656,-0.606859\C,0,-2.813824,-0.2991,0.59
 1184\C,0,-2.696846,0.894403,-0.06096\C,0,-3.414264,1.166472,-1.348356\
 Fe,0,1.4698,0.155329,-0.025864\Cl,0,1.997552,2.055897,-0.965922\C,0,-1
 .792016,1.986293,0.403583\Cl,0,2.696632,-1.570184,-0.588557\Cl,0,1.214
 073,0.3256,2.157038\H,0,-3.550861,-0.99669,0.196185\H,0,-2.307472,2.95
 3534,0.372821\H,0,-1.385708,1.828765,1.402022\H,0,-0.946769,2.064144,-
 0.296367\H,0,-4.062445,2.043303,-1.220887\H,0,-2.703566,1.423603,-2.14
 5142\H,0,-4.036652,0.329667,-1.672815\C,0,-2.465,-0.490812,2.051321\H,
 0,-3.182131,0.062703,2.670418\H,0,-2.536984,-1.541158,2.341142\H,0,-1.
 464698,-0.136654,2.307501\C,0,-0.830036,-2.282007,0.383759\H,0,-1.6976
 24,-2.911707,0.586777\H,0,-0.056652,-2.897903,-0.096816\H,0,-0.407554,
 -1.898828,1.311955\C,0,-1.888905,-1.598176,-1.844278\H,0,-1.216857,-2.
 271858,-2.39305\H,0,-2.804967,-2.146187,-1.617401\H,0,-2.097749,-0.747
 531,-2.490786\\Version=ES64L-G16RevA.03\HF=-3034.6282822\S2=8.759666\S
 2-1=0.\S2A=8.75003\RMSD=7.839e-09\PG=C01 [X(C8H16Cl3Fe1O1)]\\@


 AND HERE I AM, FOR ALL MY LORE,
 THE WRETCHED FOOL I WAS BEFORE.
 CALLED MASTER OF ARTS, AND DOCTOR TO BOOT,
 FOR TEN YEARS ALMOST I CONFUTE
 AND UP AND DOWN, WHEREVER IT GOES
 I DRAG MY STUDENTS BY THE NOSE --
 AND SEE THAT FOR ALL OUR SCIENCE AND ART
 WE CAN KNOW NOTHING.  IT BURNS MY HEART.

                                       -- FAUST
 Job cpu time:       0 days  0 hours 47 minutes 12.5 seconds.
 Elapsed time:       0 days  0 hours 11 minutes 51.1 seconds.
 File lengths (MBytes):  RWF=    174 Int=      0 D2E=      0 Chk=     13 Scr=      1
 Normal termination of Gaussian 16 at Tue Feb 11 23:57:42 2020.
