 Entering Gaussian System, Link 0=g16
 Input=simple-grid-270-285-b3lyp_d3bj-631gd-gas-singlepoint-DFT-juldz2-gas.gjf
 Output=simple-grid-270-285-b3lyp_d3bj-631gd-gas-singlepoint-DFT-juldz2-gas.out
 Initial command:
 /n/sw/g16_nehalem/g16/l1.exe "/scratch/Gau-308610.inp" -scrdir="/scratch/"
 Entering Link 1 = /n/sw/g16_nehalem/g16/l1.exe PID=    308613.
  
 Copyright (c) 1988,1990,1992,1993,1995,1998,2003,2009,2016,
            Gaussian, Inc.  All Rights Reserved.
  
 This is part of the Gaussian(R) 16 program.  It is based on
 the Gaussian(R) 09 system (copyright 2009, Gaussian, Inc.),
 the Gaussian(R) 03 system (copyright 2003, Gaussian, Inc.),
 the Gaussian(R) 98 system (copyright 1998, Gaussian, Inc.),
 the Gaussian(R) 94 system (copyright 1995, Gaussian, Inc.),
 the Gaussian 92(TM) system (copyright 1992, Gaussian, Inc.),
 the Gaussian 90(TM) system (copyright 1990, Gaussian, Inc.),
 the Gaussian 88(TM) system (copyright 1988, Gaussian, Inc.),
 the Gaussian 86(TM) system (copyright 1986, Carnegie Mellon
 University), and the Gaussian 82(TM) system (copyright 1983,
 Carnegie Mellon University). Gaussian is a federally registered
 trademark of Gaussian, Inc.
  
 This software contains proprietary and confidential information,
 including trade secrets, belonging to Gaussian, Inc.
  
 This software is provided under written license and may be
 used, copied, transmitted, or stored only in accord with that
 written license.
  
 The following legend is applicable only to US Government
 contracts under FAR:
  
                    RESTRICTED RIGHTS LEGEND
  
 Use, reproduction and disclosure by the US Government is
 subject to restrictions as set forth in subparagraphs (a)
 and (c) of the Commercial Computer Software - Restricted
 Rights clause in FAR 52.227-19.
  
 Gaussian, Inc.
 340 Quinnipiac St., Bldg. 40, Wallingford CT 06492
  
  
 ---------------------------------------------------------------
 Warning -- This program may not be used in any manner that
 competes with the business of Gaussian, Inc. or will provide
 assistance to any competitor of Gaussian, Inc.  The licensee
 of this program is prohibited from giving any competitor of
 Gaussian, Inc. access to this program.  By using this program,
 the user acknowledges that Gaussian, Inc. is engaged in the
 business of creating and licensing software in the field of
 computational chemistry and represents and warrants to the
 licensee that it is not a competitor of Gaussian, Inc. and that
 it will not use this program in any manner prohibited above.
 ---------------------------------------------------------------
  

 Cite this work as:
 Gaussian 16, Revision A.03,
 M. J. Frisch, G. W. Trucks, H. B. Schlegel, G. E. Scuseria, 
 M. A. Robb, J. R. Cheeseman, G. Scalmani, V. Barone, 
 G. A. Petersson, H. Nakatsuji, X. Li, M. Caricato, A. V. Marenich, 
 J. Bloino, B. G. Janesko, R. Gomperts, B. Mennucci, H. P. Hratchian, 
 J. V. Ortiz, A. F. Izmaylov, J. L. Sonnenberg, D. Williams-Young, 
 F. Ding, F. Lipparini, F. Egidi, J. Goings, B. Peng, A. Petrone, 
 T. Henderson, D. Ranasinghe, V. G. Zakrzewski, J. Gao, N. Rega, 
 G. Zheng, W. Liang, M. Hada, M. Ehara, K. Toyota, R. Fukuda, 
 J. Hasegawa, M. Ishida, T. Nakajima, Y. Honda, O. Kitao, H. Nakai, 
 T. Vreven, K. Throssell, J. A. Montgomery, Jr., J. E. Peralta, 
 F. Ogliaro, M. J. Bearpark, J. J. Heyd, E. N. Brothers, K. N. Kudin, 
 V. N. Staroverov, T. A. Keith, R. Kobayashi, J. Normand, 
 K. Raghavachari, A. P. Rendell, J. C. Burant, S. S. Iyengar, 
 J. Tomasi, M. Cossi, J. M. Millam, M. Klene, C. Adamo, R. Cammi, 
 J. W. Ochterski, R. L. Martin, K. Morokuma, O. Farkas, 
 J. B. Foresman, and D. J. Fox, Gaussian, Inc., Wallingford CT, 2016.
 
 ******************************************
 Gaussian 16:  ES64L-G16RevA.03 25-Dec-2016
                12-Feb-2020 
 ******************************************
 %chk=checkpoint.chk
 %mem=3GB
 %nprocshared=4
 Will use up to    4 processors via shared memory.
 --------------------------------
 #t pop=none jul-cc-pvdz upbe1pbe
 --------------------------------
 ------------------------
 theory_abbreviation pbe0
 ------------------------
 Symbolic Z-matrix:
 Charge =  0 Multiplicity = 6
 O                     0.20517   0.37101  -0.86671 
 C                     0.98888   1.33048  -0.67102 
 C                     3.07289   0.10792   0.53408 
 C                     2.63713  -0.94822  -0.18283 
 C                     3.09701  -1.18357  -1.59575 
 Fe                   -1.47795  -0.15997   0.01469 
 Cl                   -2.06757  -1.99129  -0.99827 
 C                     1.7078   -2.001     0.34544 
 Cl                   -2.71281   1.5999   -0.39458 
 Cl                   -1.08493  -0.405     2.1605 
 H                     3.79743   0.76873   0.05717 
 H                     2.22839  -2.9673    0.38703 
 H                     1.31609  -1.78395   1.33868 
 H                     0.85975  -2.14154  -0.33661 
 H                     3.60048  -2.15642  -1.66825 
 H                     2.24094  -1.22911  -2.28218 
 H                     3.79576  -0.41734  -1.94344 
 C                     2.86166   0.33997   2.00685 
 H                     3.66852  -0.13425   2.58219 
 H                     2.88869   1.40606   2.25322 
 H                     1.91571  -0.06667   2.37298 
 C                     0.82436   2.22995   0.51339 
 H                     1.71171   2.83732   0.69468 
 H                    -0.01454   2.89941   0.27032 
 H                     0.54539   1.6747    1.40914 
 C                     1.80972   1.81585  -1.82712 
 H                     1.22016   2.61407  -2.30212 
 H                     2.75824   2.24941  -1.50743 
 H                     1.96598   1.02817  -2.56194 
 
                    Distance matrix (angstroms):
                    1          2          3          4          5
     1  O    0.000000
     2  C    1.254232   0.000000
     3  C    3.202387   2.700002   0.000000
     4  C    2.849999   2.854385   1.348801   0.000000
     5  C    3.363177   3.408779   2.490915   1.504403   0.000000
     6  Fe   1.972729   2.962576   4.588210   4.194543   4.956964
     7  Cl   3.280709   4.525827   5.760131   4.887445   5.261395
     8  C    3.058374   3.556516   2.519248   1.500356   2.523155
     9  Cl   3.201198   3.721763   6.046716   5.929552   6.553207
    10  Cl   3.380907   3.915361   4.493978   4.431702   5.674874
    11  H    3.730429   2.955294   1.090441   2.086097   2.652200
    12  H    4.099946   4.596382   3.192456   2.137401   2.804922
    13  H    3.277455   3.720966   2.704238   2.181415   3.484683
    14  H    2.649977   3.490477   3.273554   2.146329   2.740155
    15  H    4.307958   4.469159   3.202468   2.143427   1.097805
    16  H    2.950985   3.273379   3.226620   2.154797   1.098233
    17  H    3.830559   3.542949   2.633726   2.173481   1.093728
    18  C    3.913473   3.414582   1.505836   2.550400   3.918582
    19  H    4.913756   4.461974   2.146666   3.061309   4.345437
    20  H    4.243417   3.487996   2.162074   3.397092   4.643718
    21  H    3.689593   3.475188   2.179710   2.798164   4.288792
    22  C    2.396612   1.496305   3.091822   3.724461   4.611454
    23  H    3.284864   2.158281   3.054221   3.994589   4.830391
    24  H    2.780994   2.086746   4.170639   4.694776   5.462111
    25  H    2.644783   2.154586   3.099816   3.713417   4.869277
    26  C    2.363167   1.498647   3.176148   3.320906   3.272183
    27  H    2.849904   2.088443   4.213959   4.380542   4.294606
    28  H    3.233742   2.162091   2.975358   3.463247   3.450783
    29  H    2.531034   2.149818   3.414302   3.164924   2.665435
                    6          7          8          9         10
     6  Fe   0.000000
     7  Cl   2.174275   0.000000
     8  C    3.694293   4.007379   0.000000
     9  Cl   2.188497   3.698296   5.749429   0.000000
    10  Cl   2.195225   3.668752   3.693377   3.632910   0.000000
    11  H    5.356666   6.567332   3.481530   6.578613   5.444179
    12  H    4.664404   4.618106   1.098393   6.773895   4.548482
    13  H    3.492405   4.117461   1.089534   5.539550   2.888212
    14  H    3.084622   3.004928   1.097330   5.173486   3.610119
    15  H    5.710387   5.709898   2.767912   7.455857   6.299197
    16  H    4.499867   4.559892   2.790062   6.008827   5.610526
    17  H    5.631381   6.144041   3.479443   6.987823   6.376801
    18  C    4.801126   6.225979   3.093839   6.199110   4.019220
    19  H    5.751419   7.012203   3.511726   7.251880   4.779791
    20  H    5.150821   6.832178   4.079487   6.198804   4.367857
    21  H    4.133656   5.562011   2.809944   5.644465   3.027115
    22  C    3.355743   5.335466   4.325465   3.705796   3.647095
    23  H    4.429448   6.361169   4.850915   4.721657   4.525752
    24  H    3.400979   5.453725   5.194817   3.067810   3.954438
    25  H    3.066654   5.105156   3.999184   3.724894   2.747288
    26  C    4.254979   5.496784   4.393040   4.748901   5.404839
    27  H    4.510280   5.806761   5.342874   4.487254   5.860303
    28  H    5.105601   6.444465   4.754215   5.620732   5.938814
    29  H    4.462208   5.275572   4.206591   5.188005   5.802023
                   11         12         13         14         15
    11  H    0.000000
    12  H    4.065537   0.000000
    13  H    3.783579   1.771517   0.000000
    14  H    4.153874   1.754619   1.772776   0.000000
    15  H    3.401811   2.600832   3.794579   3.047141   0.000000
    16  H    3.447687   3.185297   3.778074   2.554495   1.756461
    17  H    2.325767   3.793416   4.334593   3.764954   1.771511
    18  C    2.204716   3.736698   2.710398   3.956938   4.503798
    19  H    2.684718   3.862498   3.130772   4.520817   4.707442
    20  H    2.460620   4.800518   3.672274   4.838316   5.345637
    21  H    3.098671   3.529226   2.092450   3.572397   4.851500
    22  C    3.344021   5.385041   4.127258   4.453504   5.630864
    23  H    3.005953   5.835686   4.682665   5.155431   5.838523
    24  H    4.372227   6.281925   4.984550   5.152079   6.510592
    25  H    3.636542   5.042358   3.544174   4.208348   5.786314
    26  C    2.932240   5.287369   4.819183   4.334168   4.360161
    27  H    3.951441   6.276922   5.710271   5.158389   5.368924
    28  H    2.391720   5.575281   5.142772   4.924987   4.488492
    29  H    3.206442   4.972829   4.852341   4.027763   3.689427
                   16         17         18         19         20
    16  H    0.000000
    17  H    1.786382   0.000000
    18  C    4.609024   4.129271   0.000000
    19  H    5.186401   4.536258   1.098600   0.000000
    20  H    5.285219   4.664710   1.094522   1.757533   0.000000
    21  H    4.809112   4.721128   1.092809   1.766548   1.769175
    22  C    4.667656   4.676897   3.154844   4.237761   2.822632
    23  H    5.067313   4.679293   3.046462   4.027657   2.421325
    24  H    5.352301   5.515427   4.223595   5.302143   3.819775
    25  H    4.993285   5.116774   2.739320   3.795036   2.505135
    26  C    3.108830   2.990825   4.240775   5.167210   4.240435
    27  H    3.976490   3.993978   5.141331   6.115897   4.999436
    28  H    3.601101   2.894497   4.000856   4.820315   3.856260
    29  H    2.291107   2.412495   4.706352   5.541835   4.917314
                   21         22         23         24         25
    21  H    0.000000
    22  C    3.150171   0.000000
    23  H    3.360277   1.090484   0.000000
    24  H    4.116385   1.100457   1.778727   0.000000
    25  H    2.416428   1.090187   1.795120   1.763615   0.000000
    26  C    4.603910   2.573015   2.722592   2.983503   3.477339
    27  H    5.433848   2.869020   3.045039   2.867635   3.887312
    28  H    4.596920   2.797136   2.508020   3.357260   3.705862
    29  H    5.055162   3.493601   3.734073   3.930105   4.266805
                   26         27         28         29
    26  C    0.000000
    27  H    1.100164   0.000000
    28  H    1.090808   1.769235   0.000000
    29  H    1.088497   1.771685   1.797526   0.000000
 Framework group  C1[X(C8H16Cl3FeO)]
 Deg. of freedom    81
                         Standard orientation:                         
 ---------------------------------------------------------------------
 Center     Atomic      Atomic             Coordinates (Angstroms)
 Number     Number       Type             X           Y           Z
 ---------------------------------------------------------------------
      1          8           0        0.205167    0.371005   -0.866710
      2          6           0        0.988883    1.330479   -0.671015
      3          6           0        3.072895    0.107917    0.534076
      4          6           0        2.637129   -0.948220   -0.182825
      5          6           0        3.097012   -1.183569   -1.595746
      6         26           0       -1.477945   -0.159966    0.014688
      7         17           0       -2.067569   -1.991285   -0.998272
      8          6           0        1.707802   -2.001004    0.345441
      9         17           0       -2.712808    1.599901   -0.394579
     10         17           0       -1.084929   -0.404996    2.160501
     11          1           0        3.797432    0.768725    0.057168
     12          1           0        2.228388   -2.967300    0.387026
     13          1           0        1.316088   -1.783945    1.338683
     14          1           0        0.859754   -2.141542   -0.336613
     15          1           0        3.600482   -2.156419   -1.668249
     16          1           0        2.240944   -1.229111   -2.282179
     17          1           0        3.795758   -0.417342   -1.943440
     18          6           0        2.861658    0.339971    2.006853
     19          1           0        3.668520   -0.134250    2.582188
     20          1           0        2.888689    1.406063    2.253218
     21          1           0        1.915706   -0.066670    2.372980
     22          6           0        0.824360    2.229950    0.513389
     23          1           0        1.711709    2.837321    0.694682
     24          1           0       -0.014540    2.899406    0.270323
     25          1           0        0.545385    1.674699    1.409144
     26          6           0        1.809718    1.815851   -1.827123
     27          1           0        1.220156    2.614074   -2.302116
     28          1           0        2.758236    2.249409   -1.507432
     29          1           0        1.965979    1.028166   -2.561943
 ---------------------------------------------------------------------
 Rotational constants (GHZ):           0.5680114           0.3237223           0.3048337
   427 basis functions,  1056 primitive gaussians,   461 cartesian basis functions
    77 alpha electrons       72 beta electrons
       nuclear repulsion energy      1623.9292227965 Hartrees.
 NAtoms=   29 NActive=   29 NUniq=   29 SFac= 1.00D+00 NAtFMM=   60 NAOKFM=F Big=F
 ExpMin= 1.40D-02 ExpMax= 4.32D+06 ExpMxC= 4.91D+03 IAcc=3 IRadAn=         5 AccDes= 0.00D+00
 Harris functional with IExCor= 1009 and IRadAn=       5 diagonalized for initial guess.
 HarFok:  IExCor= 1009 AccDes= 0.00D+00 IRadAn=         5 IDoV= 1 UseB2=F ITyADJ=14
 ICtDFT=  3500011 ScaDFX=  1.000000  1.000000  1.000000  1.000000
 FoFCou: FMM=F IPFlag=           0 FMFlag=      100000 FMFlg1=           0
         NFxFlg=           0 DoJE=T BraDBF=F KetDBF=T FulRan=T
         wScrn=  0.000000 ICntrl=       500 IOpCl=  0 I1Cent=   200000004 NGrid=           0
         NMat0=    1 NMatS0=      1 NMatT0=    0 NMatD0=    1 NMtDS0=    0 NMtDT0=    0
 Petite list used in FoFCou.
 Initial guess <Sx>= 0.0000 <Sy>= 0.0000 <Sz>= 2.5000 <S**2>= 8.7500 S= 2.5000
 EnCoef did     3 forward-backward iterations
 SCF Done:  E(UPBE1PBE) =  -3033.13561691     A.U. after   20 cycles
            NFock= 20  Conv=0.46D-08     -V/T= 2.0021
 <Sx>= 0.0000 <Sy>= 0.0000 <Sz>= 2.5000 <S**2>= 8.7629 S= 2.5021
 <L.S>= 0.000000000000E+00
 Annihilation of the first spin contaminant:
 S**2 before annihilation     8.7629,   after     8.7501
 1\1\GINC-HOLY7C04511\SP\UPBE1PBE\Jul-CC-pVDZ\C8H16Cl3Fe1O1(6)\EKWAN\12
 -Feb-2020\0\\#t pop=none jul-cc-pvdz upbe1pbe\\theory_abbreviation pbe
 0\\0,6\O,0,0.205167,0.371005,-0.86671\C,0,0.988883,1.330479,-0.671015\
 C,0,3.072895,0.107917,0.534076\C,0,2.637129,-0.94822,-0.182825\C,0,3.0
 97012,-1.183569,-1.595746\Fe,0,-1.477945,-0.159966,0.014688\Cl,0,-2.06
 7569,-1.991285,-0.998272\C,0,1.707802,-2.001004,0.345441\Cl,0,-2.71280
 8,1.599901,-0.394579\Cl,0,-1.084929,-0.404996,2.160501\H,0,3.797432,0.
 768725,0.057168\H,0,2.228388,-2.9673,0.387026\H,0,1.316088,-1.783945,1
 .338683\H,0,0.859754,-2.141542,-0.336613\H,0,3.600482,-2.156419,-1.668
 249\H,0,2.240944,-1.229111,-2.282179\H,0,3.795758,-0.417342,-1.94344\C
 ,0,2.861658,0.339971,2.006853\H,0,3.66852,-0.13425,2.582188\H,0,2.8886
 89,1.406063,2.253218\H,0,1.915706,-0.06667,2.37298\C,0,0.82436,2.22995
 ,0.513389\H,0,1.711709,2.837321,0.694682\H,0,-0.01454,2.899406,0.27032
 3\H,0,0.545385,1.674699,1.409144\C,0,1.809718,1.815851,-1.827123\H,0,1
 .220156,2.614074,-2.302116\H,0,2.758236,2.249409,-1.507432\H,0,1.96597
 9,1.028166,-2.561943\\Version=ES64L-G16RevA.03\HF=-3033.1356169\S2=8.7
 62866\S2-1=0.\S2A=8.750051\RMSD=4.602e-09\PG=C01 [X(C8H16Cl3Fe1O1)]\\@


 Boundary, n.  In political geography, an imaginary
 line between two nations, separating the imaginary
 rights of one from the imaginary rights of another.
                               -- Ambrose Bierce
 Job cpu time:       0 days  1 hours 23 minutes  9.3 seconds.
 Elapsed time:       0 days  0 hours 20 minutes 50.6 seconds.
 File lengths (MBytes):  RWF=    173 Int=      0 D2E=      0 Chk=     13 Scr=      1
 Normal termination of Gaussian 16 at Wed Feb 12 14:11:26 2020.
 Initial command:
 /n/sw/g16_nehalem/g16/l1.exe "/scratch/Gau-308610.inp" -scrdir="/scratch/"
 Entering Link 1 = /n/sw/g16_nehalem/g16/l1.exe PID=    310083.
  
 Copyright (c) 1988,1990,1992,1993,1995,1998,2003,2009,2016,
            Gaussian, Inc.  All Rights Reserved.
  
 This is part of the Gaussian(R) 16 program.  It is based on
 the Gaussian(R) 09 system (copyright 2009, Gaussian, Inc.),
 the Gaussian(R) 03 system (copyright 2003, Gaussian, Inc.),
 the Gaussian(R) 98 system (copyright 1998, Gaussian, Inc.),
 the Gaussian(R) 94 system (copyright 1995, Gaussian, Inc.),
 the Gaussian 92(TM) system (copyright 1992, Gaussian, Inc.),
 the Gaussian 90(TM) system (copyright 1990, Gaussian, Inc.),
 the Gaussian 88(TM) system (copyright 1988, Gaussian, Inc.),
 the Gaussian 86(TM) system (copyright 1986, Carnegie Mellon
 University), and the Gaussian 82(TM) system (copyright 1983,
 Carnegie Mellon University). Gaussian is a federally registered
 trademark of Gaussian, Inc.
  
 This software contains proprietary and confidential information,
 including trade secrets, belonging to Gaussian, Inc.
  
 This software is provided under written license and may be
 used, copied, transmitted, or stored only in accord with that
 written license.
  
 The following legend is applicable only to US Government
 contracts under FAR:
  
                    RESTRICTED RIGHTS LEGEND
  
 Use, reproduction and disclosure by the US Government is
 subject to restrictions as set forth in subparagraphs (a)
 and (c) of the Commercial Computer Software - Restricted
 Rights clause in FAR 52.227-19.
  
 Gaussian, Inc.
 340 Quinnipiac St., Bldg. 40, Wallingford CT 06492
  
  
 ---------------------------------------------------------------
 Warning -- This program may not be used in any manner that
 competes with the business of Gaussian, Inc. or will provide
 assistance to any competitor of Gaussian, Inc.  The licensee
 of this program is prohibited from giving any competitor of
 Gaussian, Inc. access to this program.  By using this program,
 the user acknowledges that Gaussian, Inc. is engaged in the
 business of creating and licensing software in the field of
 computational chemistry and represents and warrants to the
 licensee that it is not a competitor of Gaussian, Inc. and that
 it will not use this program in any manner prohibited above.
 ---------------------------------------------------------------
  

 Cite this work as:
 Gaussian 16, Revision A.03,
 M. J. Frisch, G. W. Trucks, H. B. Schlegel, G. E. Scuseria, 
 M. A. Robb, J. R. Cheeseman, G. Scalmani, V. Barone, 
 G. A. Petersson, H. Nakatsuji, X. Li, M. Caricato, A. V. Marenich, 
 J. Bloino, B. G. Janesko, R. Gomperts, B. Mennucci, H. P. Hratchian, 
 J. V. Ortiz, A. F. Izmaylov, J. L. Sonnenberg, D. Williams-Young, 
 F. Ding, F. Lipparini, F. Egidi, J. Goings, B. Peng, A. Petrone, 
 T. Henderson, D. Ranasinghe, V. G. Zakrzewski, J. Gao, N. Rega, 
 G. Zheng, W. Liang, M. Hada, M. Ehara, K. Toyota, R. Fukuda, 
 J. Hasegawa, M. Ishida, T. Nakajima, Y. Honda, O. Kitao, H. Nakai, 
 T. Vreven, K. Throssell, J. A. Montgomery, Jr., J. E. Peralta, 
 F. Ogliaro, M. J. Bearpark, J. J. Heyd, E. N. Brothers, K. N. Kudin, 
 V. N. Staroverov, T. A. Keith, R. Kobayashi, J. Normand, 
 K. Raghavachari, A. P. Rendell, J. C. Burant, S. S. Iyengar, 
 J. Tomasi, M. Cossi, J. M. Millam, M. Klene, C. Adamo, R. Cammi, 
 J. W. Ochterski, R. L. Martin, K. Morokuma, O. Farkas, 
 J. B. Foresman, and D. J. Fox, Gaussian, Inc., Wallingford CT, 2016.
 
 ******************************************
 Gaussian 16:  ES64L-G16RevA.03 25-Dec-2016
                12-Feb-2020 
 ******************************************
 %chk=checkpoint.chk
 %mem=3GB
 %nprocshared=4
 Will use up to    4 processors via shared memory.
 ---------------------------------------------------------------------
 #t pop=none jul-cc-pvdz guess=read upbe1pbe empiricaldispersion=gd3bj
 ---------------------------------------------------------------------
 -----------------------------
 theory_abbreviation pbe0_d3bj
 -----------------------------
 Symbolic Z-matrix:
 Charge =  0 Multiplicity = 6
 O                     0.20517   0.37101  -0.86671 
 C                     0.98888   1.33048  -0.67102 
 C                     3.07289   0.10792   0.53408 
 C                     2.63713  -0.94822  -0.18283 
 C                     3.09701  -1.18357  -1.59575 
 Fe                   -1.47795  -0.15997   0.01469 
 Cl                   -2.06757  -1.99129  -0.99827 
 C                     1.7078   -2.001     0.34544 
 Cl                   -2.71281   1.5999   -0.39458 
 Cl                   -1.08493  -0.405     2.1605 
 H                     3.79743   0.76873   0.05717 
 H                     2.22839  -2.9673    0.38703 
 H                     1.31609  -1.78395   1.33868 
 H                     0.85975  -2.14154  -0.33661 
 H                     3.60048  -2.15642  -1.66825 
 H                     2.24094  -1.22911  -2.28218 
 H                     3.79576  -0.41734  -1.94344 
 C                     2.86166   0.33997   2.00685 
 H                     3.66852  -0.13425   2.58219 
 H                     2.88869   1.40606   2.25322 
 H                     1.91571  -0.06667   2.37298 
 C                     0.82436   2.22995   0.51339 
 H                     1.71171   2.83732   0.69468 
 H                    -0.01454   2.89941   0.27032 
 H                     0.54539   1.6747    1.40914 
 C                     1.80972   1.81585  -1.82712 
 H                     1.22016   2.61407  -2.30212 
 H                     2.75824   2.24941  -1.50743 
 H                     1.96598   1.02817  -2.56194 
 
                    Distance matrix (angstroms):
                    1          2          3          4          5
     1  O    0.000000
     2  C    1.254232   0.000000
     3  C    3.202387   2.700002   0.000000
     4  C    2.849999   2.854385   1.348801   0.000000
     5  C    3.363177   3.408779   2.490915   1.504403   0.000000
     6  Fe   1.972729   2.962576   4.588210   4.194543   4.956964
     7  Cl   3.280709   4.525827   5.760131   4.887445   5.261395
     8  C    3.058374   3.556516   2.519248   1.500356   2.523155
     9  Cl   3.201198   3.721763   6.046716   5.929552   6.553207
    10  Cl   3.380907   3.915361   4.493978   4.431702   5.674874
    11  H    3.730429   2.955294   1.090441   2.086097   2.652200
    12  H    4.099946   4.596382   3.192456   2.137401   2.804922
    13  H    3.277455   3.720966   2.704238   2.181415   3.484683
    14  H    2.649977   3.490477   3.273554   2.146329   2.740155
    15  H    4.307958   4.469159   3.202468   2.143427   1.097805
    16  H    2.950985   3.273379   3.226620   2.154797   1.098233
    17  H    3.830559   3.542949   2.633726   2.173481   1.093728
    18  C    3.913473   3.414582   1.505836   2.550400   3.918582
    19  H    4.913756   4.461974   2.146666   3.061309   4.345437
    20  H    4.243417   3.487996   2.162074   3.397092   4.643718
    21  H    3.689593   3.475188   2.179710   2.798164   4.288792
    22  C    2.396612   1.496305   3.091822   3.724461   4.611454
    23  H    3.284864   2.158281   3.054221   3.994589   4.830391
    24  H    2.780994   2.086746   4.170639   4.694776   5.462111
    25  H    2.644783   2.154586   3.099816   3.713417   4.869277
    26  C    2.363167   1.498647   3.176148   3.320906   3.272183
    27  H    2.849904   2.088443   4.213959   4.380542   4.294606
    28  H    3.233742   2.162091   2.975358   3.463247   3.450783
    29  H    2.531034   2.149818   3.414302   3.164924   2.665435
                    6          7          8          9         10
     6  Fe   0.000000
     7  Cl   2.174275   0.000000
     8  C    3.694293   4.007379   0.000000
     9  Cl   2.188497   3.698296   5.749429   0.000000
    10  Cl   2.195225   3.668752   3.693377   3.632910   0.000000
    11  H    5.356666   6.567332   3.481530   6.578613   5.444179
    12  H    4.664404   4.618106   1.098393   6.773895   4.548482
    13  H    3.492405   4.117461   1.089534   5.539550   2.888212
    14  H    3.084622   3.004928   1.097330   5.173486   3.610119
    15  H    5.710387   5.709898   2.767912   7.455857   6.299197
    16  H    4.499867   4.559892   2.790062   6.008827   5.610526
    17  H    5.631381   6.144041   3.479443   6.987823   6.376801
    18  C    4.801126   6.225979   3.093839   6.199110   4.019220
    19  H    5.751419   7.012203   3.511726   7.251880   4.779791
    20  H    5.150821   6.832178   4.079487   6.198804   4.367857
    21  H    4.133656   5.562011   2.809944   5.644465   3.027115
    22  C    3.355743   5.335466   4.325465   3.705796   3.647095
    23  H    4.429448   6.361169   4.850915   4.721657   4.525752
    24  H    3.400979   5.453725   5.194817   3.067810   3.954438
    25  H    3.066654   5.105156   3.999184   3.724894   2.747288
    26  C    4.254979   5.496784   4.393040   4.748901   5.404839
    27  H    4.510280   5.806761   5.342874   4.487254   5.860303
    28  H    5.105601   6.444465   4.754215   5.620732   5.938814
    29  H    4.462208   5.275572   4.206591   5.188005   5.802023
                   11         12         13         14         15
    11  H    0.000000
    12  H    4.065537   0.000000
    13  H    3.783579   1.771517   0.000000
    14  H    4.153874   1.754619   1.772776   0.000000
    15  H    3.401811   2.600832   3.794579   3.047141   0.000000
    16  H    3.447687   3.185297   3.778074   2.554495   1.756461
    17  H    2.325767   3.793416   4.334593   3.764954   1.771511
    18  C    2.204716   3.736698   2.710398   3.956938   4.503798
    19  H    2.684718   3.862498   3.130772   4.520817   4.707442
    20  H    2.460620   4.800518   3.672274   4.838316   5.345637
    21  H    3.098671   3.529226   2.092450   3.572397   4.851500
    22  C    3.344021   5.385041   4.127258   4.453504   5.630864
    23  H    3.005953   5.835686   4.682665   5.155431   5.838523
    24  H    4.372227   6.281925   4.984550   5.152079   6.510592
    25  H    3.636542   5.042358   3.544174   4.208348   5.786314
    26  C    2.932240   5.287369   4.819183   4.334168   4.360161
    27  H    3.951441   6.276922   5.710271   5.158389   5.368924
    28  H    2.391720   5.575281   5.142772   4.924987   4.488492
    29  H    3.206442   4.972829   4.852341   4.027763   3.689427
                   16         17         18         19         20
    16  H    0.000000
    17  H    1.786382   0.000000
    18  C    4.609024   4.129271   0.000000
    19  H    5.186401   4.536258   1.098600   0.000000
    20  H    5.285219   4.664710   1.094522   1.757533   0.000000
    21  H    4.809112   4.721128   1.092809   1.766548   1.769175
    22  C    4.667656   4.676897   3.154844   4.237761   2.822632
    23  H    5.067313   4.679293   3.046462   4.027657   2.421325
    24  H    5.352301   5.515427   4.223595   5.302143   3.819775
    25  H    4.993285   5.116774   2.739320   3.795036   2.505135
    26  C    3.108830   2.990825   4.240775   5.167210   4.240435
    27  H    3.976490   3.993978   5.141331   6.115897   4.999436
    28  H    3.601101   2.894497   4.000856   4.820315   3.856260
    29  H    2.291107   2.412495   4.706352   5.541835   4.917314
                   21         22         23         24         25
    21  H    0.000000
    22  C    3.150171   0.000000
    23  H    3.360277   1.090484   0.000000
    24  H    4.116385   1.100457   1.778727   0.000000
    25  H    2.416428   1.090187   1.795120   1.763615   0.000000
    26  C    4.603910   2.573015   2.722592   2.983503   3.477339
    27  H    5.433848   2.869020   3.045039   2.867635   3.887312
    28  H    4.596920   2.797136   2.508020   3.357260   3.705862
    29  H    5.055162   3.493601   3.734073   3.930105   4.266805
                   26         27         28         29
    26  C    0.000000
    27  H    1.100164   0.000000
    28  H    1.090808   1.769235   0.000000
    29  H    1.088497   1.771685   1.797526   0.000000
 Framework group  C1[X(C8H16Cl3FeO)]
 Deg. of freedom    81
                         Standard orientation:                         
 ---------------------------------------------------------------------
 Center     Atomic      Atomic             Coordinates (Angstroms)
 Number     Number       Type             X           Y           Z
 ---------------------------------------------------------------------
      1          8           0        0.205167    0.371005   -0.866710
      2          6           0        0.988883    1.330479   -0.671015
      3          6           0        3.072895    0.107917    0.534076
      4          6           0        2.637129   -0.948220   -0.182825
      5          6           0        3.097012   -1.183569   -1.595746
      6         26           0       -1.477945   -0.159966    0.014688
      7         17           0       -2.067569   -1.991285   -0.998272
      8          6           0        1.707802   -2.001004    0.345441
      9         17           0       -2.712808    1.599901   -0.394579
     10         17           0       -1.084929   -0.404996    2.160501
     11          1           0        3.797432    0.768725    0.057168
     12          1           0        2.228388   -2.967300    0.387026
     13          1           0        1.316088   -1.783945    1.338683
     14          1           0        0.859754   -2.141542   -0.336613
     15          1           0        3.600482   -2.156419   -1.668249
     16          1           0        2.240944   -1.229111   -2.282179
     17          1           0        3.795758   -0.417342   -1.943440
     18          6           0        2.861658    0.339971    2.006853
     19          1           0        3.668520   -0.134250    2.582188
     20          1           0        2.888689    1.406063    2.253218
     21          1           0        1.915706   -0.066670    2.372980
     22          6           0        0.824360    2.229950    0.513389
     23          1           0        1.711709    2.837321    0.694682
     24          1           0       -0.014540    2.899406    0.270323
     25          1           0        0.545385    1.674699    1.409144
     26          6           0        1.809718    1.815851   -1.827123
     27          1           0        1.220156    2.614074   -2.302116
     28          1           0        2.758236    2.249409   -1.507432
     29          1           0        1.965979    1.028166   -2.561943
 ---------------------------------------------------------------------
 Rotational constants (GHZ):           0.5680114           0.3237223           0.3048337
   427 basis functions,  1056 primitive gaussians,   461 cartesian basis functions
    77 alpha electrons       72 beta electrons
       nuclear repulsion energy      1623.9292227965 Hartrees.
 NAtoms=   29 NActive=   29 NUniq=   29 SFac= 1.00D+00 NAtFMM=   60 NAOKFM=F Big=F
 Nuclear repulsion after empirical dispersion term =     1623.8926686564 Hartrees.
 Initial guess from the checkpoint file:  "checkpoint.chk"
 B after Tr=     0.000000    0.000000    0.000000
         Rot=    1.000000    0.000000    0.000000    0.000000 Ang=   0.00 deg.
 Initial guess <Sx>= 0.0000 <Sy>= 0.0000 <Sz>= 2.5000 <S**2>= 8.7629 S= 2.5021
 SCF Done:  E(UPBE1PBE) =  -3033.17217105     A.U. after    1 cycles
            NFock=  1  Conv=0.27D-08     -V/T= 2.0021
 <Sx>= 0.0000 <Sy>= 0.0000 <Sz>= 2.5000 <S**2>= 8.7629 S= 2.5021
 <L.S>= 0.000000000000E+00
 Annihilation of the first spin contaminant:
 S**2 before annihilation     8.7629,   after     8.7501
 1\1\GINC-HOLY7C04511\SP\UPBE1PBE\Jul-CC-pVDZ\C8H16Cl3Fe1O1(6)\EKWAN\12
 -Feb-2020\0\\#t pop=none jul-cc-pvdz guess=read upbe1pbe empiricaldisp
 ersion=gd3bj\\theory_abbreviation pbe0_d3bj\\0,6\O,0,0.205167,0.371005
 ,-0.86671\C,0,0.988883,1.330479,-0.671015\C,0,3.072895,0.107917,0.5340
 76\C,0,2.637129,-0.94822,-0.182825\C,0,3.097012,-1.183569,-1.595746\Fe
 ,0,-1.477945,-0.159966,0.014688\Cl,0,-2.067569,-1.991285,-0.998272\C,0
 ,1.707802,-2.001004,0.345441\Cl,0,-2.712808,1.599901,-0.394579\Cl,0,-1
 .084929,-0.404996,2.160501\H,0,3.797432,0.768725,0.057168\H,0,2.228388
 ,-2.9673,0.387026\H,0,1.316088,-1.783945,1.338683\H,0,0.859754,-2.1415
 42,-0.336613\H,0,3.600482,-2.156419,-1.668249\H,0,2.240944,-1.229111,-
 2.282179\H,0,3.795758,-0.417342,-1.94344\C,0,2.861658,0.339971,2.00685
 3\H,0,3.66852,-0.13425,2.582188\H,0,2.888689,1.406063,2.253218\H,0,1.9
 15706,-0.06667,2.37298\C,0,0.82436,2.22995,0.513389\H,0,1.711709,2.837
 321,0.694682\H,0,-0.01454,2.899406,0.270323\H,0,0.545385,1.674699,1.40
 9144\C,0,1.809718,1.815851,-1.827123\H,0,1.220156,2.614074,-2.302116\H
 ,0,2.758236,2.249409,-1.507432\H,0,1.965979,1.028166,-2.561943\\Versio
 n=ES64L-G16RevA.03\HF=-3033.172171\S2=8.762866\S2-1=0.\S2A=8.750051\RM
 SD=2.679e-09\PG=C01 [X(C8H16Cl3Fe1O1)]\\@


 THE ... SCIENTISTS WERE WRONG ... THE MOST PERSISTENT PRINCIPLES 
 OF THE UNIVERSE WERE ACCIDENT AND ERROR.

                          -- FRANK HERBERT IN DUNE
 Job cpu time:       0 days  0 hours  4 minutes 25.7 seconds.
 Elapsed time:       0 days  0 hours  1 minutes  6.8 seconds.
 File lengths (MBytes):  RWF=    170 Int=      0 D2E=      0 Chk=     13 Scr=      1
 Normal termination of Gaussian 16 at Wed Feb 12 14:12:33 2020.
 Initial command:
 /n/sw/g16_nehalem/g16/l1.exe "/scratch/Gau-308610.inp" -scrdir="/scratch/"
 Entering Link 1 = /n/sw/g16_nehalem/g16/l1.exe PID=    310221.
  
 Copyright (c) 1988,1990,1992,1993,1995,1998,2003,2009,2016,
            Gaussian, Inc.  All Rights Reserved.
  
 This is part of the Gaussian(R) 16 program.  It is based on
 the Gaussian(R) 09 system (copyright 2009, Gaussian, Inc.),
 the Gaussian(R) 03 system (copyright 2003, Gaussian, Inc.),
 the Gaussian(R) 98 system (copyright 1998, Gaussian, Inc.),
 the Gaussian(R) 94 system (copyright 1995, Gaussian, Inc.),
 the Gaussian 92(TM) system (copyright 1992, Gaussian, Inc.),
 the Gaussian 90(TM) system (copyright 1990, Gaussian, Inc.),
 the Gaussian 88(TM) system (copyright 1988, Gaussian, Inc.),
 the Gaussian 86(TM) system (copyright 1986, Carnegie Mellon
 University), and the Gaussian 82(TM) system (copyright 1983,
 Carnegie Mellon University). Gaussian is a federally registered
 trademark of Gaussian, Inc.
  
 This software contains proprietary and confidential information,
 including trade secrets, belonging to Gaussian, Inc.
  
 This software is provided under written license and may be
 used, copied, transmitted, or stored only in accord with that
 written license.
  
 The following legend is applicable only to US Government
 contracts under FAR:
  
                    RESTRICTED RIGHTS LEGEND
  
 Use, reproduction and disclosure by the US Government is
 subject to restrictions as set forth in subparagraphs (a)
 and (c) of the Commercial Computer Software - Restricted
 Rights clause in FAR 52.227-19.
  
 Gaussian, Inc.
 340 Quinnipiac St., Bldg. 40, Wallingford CT 06492
  
  
 ---------------------------------------------------------------
 Warning -- This program may not be used in any manner that
 competes with the business of Gaussian, Inc. or will provide
 assistance to any competitor of Gaussian, Inc.  The licensee
 of this program is prohibited from giving any competitor of
 Gaussian, Inc. access to this program.  By using this program,
 the user acknowledges that Gaussian, Inc. is engaged in the
 business of creating and licensing software in the field of
 computational chemistry and represents and warrants to the
 licensee that it is not a competitor of Gaussian, Inc. and that
 it will not use this program in any manner prohibited above.
 ---------------------------------------------------------------
  

 Cite this work as:
 Gaussian 16, Revision A.03,
 M. J. Frisch, G. W. Trucks, H. B. Schlegel, G. E. Scuseria, 
 M. A. Robb, J. R. Cheeseman, G. Scalmani, V. Barone, 
 G. A. Petersson, H. Nakatsuji, X. Li, M. Caricato, A. V. Marenich, 
 J. Bloino, B. G. Janesko, R. Gomperts, B. Mennucci, H. P. Hratchian, 
 J. V. Ortiz, A. F. Izmaylov, J. L. Sonnenberg, D. Williams-Young, 
 F. Ding, F. Lipparini, F. Egidi, J. Goings, B. Peng, A. Petrone, 
 T. Henderson, D. Ranasinghe, V. G. Zakrzewski, J. Gao, N. Rega, 
 G. Zheng, W. Liang, M. Hada, M. Ehara, K. Toyota, R. Fukuda, 
 J. Hasegawa, M. Ishida, T. Nakajima, Y. Honda, O. Kitao, H. Nakai, 
 T. Vreven, K. Throssell, J. A. Montgomery, Jr., J. E. Peralta, 
 F. Ogliaro, M. J. Bearpark, J. J. Heyd, E. N. Brothers, K. N. Kudin, 
 V. N. Staroverov, T. A. Keith, R. Kobayashi, J. Normand, 
 K. Raghavachari, A. P. Rendell, J. C. Burant, S. S. Iyengar, 
 J. Tomasi, M. Cossi, J. M. Millam, M. Klene, C. Adamo, R. Cammi, 
 J. W. Ochterski, R. L. Martin, K. Morokuma, O. Farkas, 
 J. B. Foresman, and D. J. Fox, Gaussian, Inc., Wallingford CT, 2016.
 
 ******************************************
 Gaussian 16:  ES64L-G16RevA.03 25-Dec-2016
                12-Feb-2020 
 ******************************************
 %chk=checkpoint.chk
 %mem=3GB
 %nprocshared=4
 Will use up to    4 processors via shared memory.
 -----------------------------------------
 #t pop=none jul-cc-pvdz guess=read ub3lyp
 -----------------------------------------
 -------------------------
 theory_abbreviation b3lyp
 -------------------------
 Symbolic Z-matrix:
 Charge =  0 Multiplicity = 6
 O                     0.20517   0.37101  -0.86671 
 C                     0.98888   1.33048  -0.67102 
 C                     3.07289   0.10792   0.53408 
 C                     2.63713  -0.94822  -0.18283 
 C                     3.09701  -1.18357  -1.59575 
 Fe                   -1.47795  -0.15997   0.01469 
 Cl                   -2.06757  -1.99129  -0.99827 
 C                     1.7078   -2.001     0.34544 
 Cl                   -2.71281   1.5999   -0.39458 
 Cl                   -1.08493  -0.405     2.1605 
 H                     3.79743   0.76873   0.05717 
 H                     2.22839  -2.9673    0.38703 
 H                     1.31609  -1.78395   1.33868 
 H                     0.85975  -2.14154  -0.33661 
 H                     3.60048  -2.15642  -1.66825 
 H                     2.24094  -1.22911  -2.28218 
 H                     3.79576  -0.41734  -1.94344 
 C                     2.86166   0.33997   2.00685 
 H                     3.66852  -0.13425   2.58219 
 H                     2.88869   1.40606   2.25322 
 H                     1.91571  -0.06667   2.37298 
 C                     0.82436   2.22995   0.51339 
 H                     1.71171   2.83732   0.69468 
 H                    -0.01454   2.89941   0.27032 
 H                     0.54539   1.6747    1.40914 
 C                     1.80972   1.81585  -1.82712 
 H                     1.22016   2.61407  -2.30212 
 H                     2.75824   2.24941  -1.50743 
 H                     1.96598   1.02817  -2.56194 
 
                    Distance matrix (angstroms):
                    1          2          3          4          5
     1  O    0.000000
     2  C    1.254232   0.000000
     3  C    3.202387   2.700002   0.000000
     4  C    2.849999   2.854385   1.348801   0.000000
     5  C    3.363177   3.408779   2.490915   1.504403   0.000000
     6  Fe   1.972729   2.962576   4.588210   4.194543   4.956964
     7  Cl   3.280709   4.525827   5.760131   4.887445   5.261395
     8  C    3.058374   3.556516   2.519248   1.500356   2.523155
     9  Cl   3.201198   3.721763   6.046716   5.929552   6.553207
    10  Cl   3.380907   3.915361   4.493978   4.431702   5.674874
    11  H    3.730429   2.955294   1.090441   2.086097   2.652200
    12  H    4.099946   4.596382   3.192456   2.137401   2.804922
    13  H    3.277455   3.720966   2.704238   2.181415   3.484683
    14  H    2.649977   3.490477   3.273554   2.146329   2.740155
    15  H    4.307958   4.469159   3.202468   2.143427   1.097805
    16  H    2.950985   3.273379   3.226620   2.154797   1.098233
    17  H    3.830559   3.542949   2.633726   2.173481   1.093728
    18  C    3.913473   3.414582   1.505836   2.550400   3.918582
    19  H    4.913756   4.461974   2.146666   3.061309   4.345437
    20  H    4.243417   3.487996   2.162074   3.397092   4.643718
    21  H    3.689593   3.475188   2.179710   2.798164   4.288792
    22  C    2.396612   1.496305   3.091822   3.724461   4.611454
    23  H    3.284864   2.158281   3.054221   3.994589   4.830391
    24  H    2.780994   2.086746   4.170639   4.694776   5.462111
    25  H    2.644783   2.154586   3.099816   3.713417   4.869277
    26  C    2.363167   1.498647   3.176148   3.320906   3.272183
    27  H    2.849904   2.088443   4.213959   4.380542   4.294606
    28  H    3.233742   2.162091   2.975358   3.463247   3.450783
    29  H    2.531034   2.149818   3.414302   3.164924   2.665435
                    6          7          8          9         10
     6  Fe   0.000000
     7  Cl   2.174275   0.000000
     8  C    3.694293   4.007379   0.000000
     9  Cl   2.188497   3.698296   5.749429   0.000000
    10  Cl   2.195225   3.668752   3.693377   3.632910   0.000000
    11  H    5.356666   6.567332   3.481530   6.578613   5.444179
    12  H    4.664404   4.618106   1.098393   6.773895   4.548482
    13  H    3.492405   4.117461   1.089534   5.539550   2.888212
    14  H    3.084622   3.004928   1.097330   5.173486   3.610119
    15  H    5.710387   5.709898   2.767912   7.455857   6.299197
    16  H    4.499867   4.559892   2.790062   6.008827   5.610526
    17  H    5.631381   6.144041   3.479443   6.987823   6.376801
    18  C    4.801126   6.225979   3.093839   6.199110   4.019220
    19  H    5.751419   7.012203   3.511726   7.251880   4.779791
    20  H    5.150821   6.832178   4.079487   6.198804   4.367857
    21  H    4.133656   5.562011   2.809944   5.644465   3.027115
    22  C    3.355743   5.335466   4.325465   3.705796   3.647095
    23  H    4.429448   6.361169   4.850915   4.721657   4.525752
    24  H    3.400979   5.453725   5.194817   3.067810   3.954438
    25  H    3.066654   5.105156   3.999184   3.724894   2.747288
    26  C    4.254979   5.496784   4.393040   4.748901   5.404839
    27  H    4.510280   5.806761   5.342874   4.487254   5.860303
    28  H    5.105601   6.444465   4.754215   5.620732   5.938814
    29  H    4.462208   5.275572   4.206591   5.188005   5.802023
                   11         12         13         14         15
    11  H    0.000000
    12  H    4.065537   0.000000
    13  H    3.783579   1.771517   0.000000
    14  H    4.153874   1.754619   1.772776   0.000000
    15  H    3.401811   2.600832   3.794579   3.047141   0.000000
    16  H    3.447687   3.185297   3.778074   2.554495   1.756461
    17  H    2.325767   3.793416   4.334593   3.764954   1.771511
    18  C    2.204716   3.736698   2.710398   3.956938   4.503798
    19  H    2.684718   3.862498   3.130772   4.520817   4.707442
    20  H    2.460620   4.800518   3.672274   4.838316   5.345637
    21  H    3.098671   3.529226   2.092450   3.572397   4.851500
    22  C    3.344021   5.385041   4.127258   4.453504   5.630864
    23  H    3.005953   5.835686   4.682665   5.155431   5.838523
    24  H    4.372227   6.281925   4.984550   5.152079   6.510592
    25  H    3.636542   5.042358   3.544174   4.208348   5.786314
    26  C    2.932240   5.287369   4.819183   4.334168   4.360161
    27  H    3.951441   6.276922   5.710271   5.158389   5.368924
    28  H    2.391720   5.575281   5.142772   4.924987   4.488492
    29  H    3.206442   4.972829   4.852341   4.027763   3.689427
                   16         17         18         19         20
    16  H    0.000000
    17  H    1.786382   0.000000
    18  C    4.609024   4.129271   0.000000
    19  H    5.186401   4.536258   1.098600   0.000000
    20  H    5.285219   4.664710   1.094522   1.757533   0.000000
    21  H    4.809112   4.721128   1.092809   1.766548   1.769175
    22  C    4.667656   4.676897   3.154844   4.237761   2.822632
    23  H    5.067313   4.679293   3.046462   4.027657   2.421325
    24  H    5.352301   5.515427   4.223595   5.302143   3.819775
    25  H    4.993285   5.116774   2.739320   3.795036   2.505135
    26  C    3.108830   2.990825   4.240775   5.167210   4.240435
    27  H    3.976490   3.993978   5.141331   6.115897   4.999436
    28  H    3.601101   2.894497   4.000856   4.820315   3.856260
    29  H    2.291107   2.412495   4.706352   5.541835   4.917314
                   21         22         23         24         25
    21  H    0.000000
    22  C    3.150171   0.000000
    23  H    3.360277   1.090484   0.000000
    24  H    4.116385   1.100457   1.778727   0.000000
    25  H    2.416428   1.090187   1.795120   1.763615   0.000000
    26  C    4.603910   2.573015   2.722592   2.983503   3.477339
    27  H    5.433848   2.869020   3.045039   2.867635   3.887312
    28  H    4.596920   2.797136   2.508020   3.357260   3.705862
    29  H    5.055162   3.493601   3.734073   3.930105   4.266805
                   26         27         28         29
    26  C    0.000000
    27  H    1.100164   0.000000
    28  H    1.090808   1.769235   0.000000
    29  H    1.088497   1.771685   1.797526   0.000000
 Framework group  C1[X(C8H16Cl3FeO)]
 Deg. of freedom    81
                         Standard orientation:                         
 ---------------------------------------------------------------------
 Center     Atomic      Atomic             Coordinates (Angstroms)
 Number     Number       Type             X           Y           Z
 ---------------------------------------------------------------------
      1          8           0        0.205167    0.371005   -0.866710
      2          6           0        0.988883    1.330479   -0.671015
      3          6           0        3.072895    0.107917    0.534076
      4          6           0        2.637129   -0.948220   -0.182825
      5          6           0        3.097012   -1.183569   -1.595746
      6         26           0       -1.477945   -0.159966    0.014688
      7         17           0       -2.067569   -1.991285   -0.998272
      8          6           0        1.707802   -2.001004    0.345441
      9         17           0       -2.712808    1.599901   -0.394579
     10         17           0       -1.084929   -0.404996    2.160501
     11          1           0        3.797432    0.768725    0.057168
     12          1           0        2.228388   -2.967300    0.387026
     13          1           0        1.316088   -1.783945    1.338683
     14          1           0        0.859754   -2.141542   -0.336613
     15          1           0        3.600482   -2.156419   -1.668249
     16          1           0        2.240944   -1.229111   -2.282179
     17          1           0        3.795758   -0.417342   -1.943440
     18          6           0        2.861658    0.339971    2.006853
     19          1           0        3.668520   -0.134250    2.582188
     20          1           0        2.888689    1.406063    2.253218
     21          1           0        1.915706   -0.066670    2.372980
     22          6           0        0.824360    2.229950    0.513389
     23          1           0        1.711709    2.837321    0.694682
     24          1           0       -0.014540    2.899406    0.270323
     25          1           0        0.545385    1.674699    1.409144
     26          6           0        1.809718    1.815851   -1.827123
     27          1           0        1.220156    2.614074   -2.302116
     28          1           0        2.758236    2.249409   -1.507432
     29          1           0        1.965979    1.028166   -2.561943
 ---------------------------------------------------------------------
 Rotational constants (GHZ):           0.5680114           0.3237223           0.3048337
   427 basis functions,  1056 primitive gaussians,   461 cartesian basis functions
    77 alpha electrons       72 beta electrons
       nuclear repulsion energy      1623.9292227965 Hartrees.
 NAtoms=   29 NActive=   29 NUniq=   29 SFac= 1.00D+00 NAtFMM=   60 NAOKFM=F Big=F
 Initial guess from the checkpoint file:  "checkpoint.chk"
 B after Tr=     0.000000    0.000000    0.000000
         Rot=    1.000000    0.000000    0.000000    0.000000 Ang=   0.00 deg.
 Initial guess <Sx>= 0.0000 <Sy>= 0.0000 <Sz>= 2.5000 <S**2>= 8.7629 S= 2.5021
 SCF Done:  E(UB3LYP) =  -3034.35372883     A.U. after   13 cycles
            NFock= 13  Conv=0.73D-08     -V/T= 2.0024
 <Sx>= 0.0000 <Sy>= 0.0000 <Sz>= 2.5000 <S**2>= 8.7621 S= 2.5020
 <L.S>= 0.000000000000E+00
 Annihilation of the first spin contaminant:
 S**2 before annihilation     8.7621,   after     8.7500
 1\1\GINC-HOLY7C04511\SP\UB3LYP\Jul-CC-pVDZ\C8H16Cl3Fe1O1(6)\EKWAN\12-F
 eb-2020\0\\#t pop=none jul-cc-pvdz guess=read ub3lyp\\theory_abbreviat
 ion b3lyp\\0,6\O,0,0.205167,0.371005,-0.86671\C,0,0.988883,1.330479,-0
 .671015\C,0,3.072895,0.107917,0.534076\C,0,2.637129,-0.94822,-0.182825
 \C,0,3.097012,-1.183569,-1.595746\Fe,0,-1.477945,-0.159966,0.014688\Cl
 ,0,-2.067569,-1.991285,-0.998272\C,0,1.707802,-2.001004,0.345441\Cl,0,
 -2.712808,1.599901,-0.394579\Cl,0,-1.084929,-0.404996,2.160501\H,0,3.7
 97432,0.768725,0.057168\H,0,2.228388,-2.9673,0.387026\H,0,1.316088,-1.
 783945,1.338683\H,0,0.859754,-2.141542,-0.336613\H,0,3.600482,-2.15641
 9,-1.668249\H,0,2.240944,-1.229111,-2.282179\H,0,3.795758,-0.417342,-1
 .94344\C,0,2.861658,0.339971,2.006853\H,0,3.66852,-0.13425,2.582188\H,
 0,2.888689,1.406063,2.253218\H,0,1.915706,-0.06667,2.37298\C,0,0.82436
 ,2.22995,0.513389\H,0,1.711709,2.837321,0.694682\H,0,-0.01454,2.899406
 ,0.270323\H,0,0.545385,1.674699,1.409144\C,0,1.809718,1.815851,-1.8271
 23\H,0,1.220156,2.614074,-2.302116\H,0,2.758236,2.249409,-1.507432\H,0
 ,1.965979,1.028166,-2.561943\\Version=ES64L-G16RevA.03\HF=-3034.353728
 8\S2=8.762149\S2-1=0.\S2A=8.750046\RMSD=7.255e-09\PG=C01 [X(C8H16Cl3Fe
 1O1)]\\@


 BULLDOZER: SOMEONE WHO SLEEPS THROUGH SPEECHES.
 Job cpu time:       0 days  0 hours 53 minutes 13.6 seconds.
 Elapsed time:       0 days  0 hours 13 minutes 20.5 seconds.
 File lengths (MBytes):  RWF=    174 Int=      0 D2E=      0 Chk=     13 Scr=      1
 Normal termination of Gaussian 16 at Wed Feb 12 14:25:54 2020.
 Initial command:
 /n/sw/g16_nehalem/g16/l1.exe "/scratch/Gau-308610.inp" -scrdir="/scratch/"
 Entering Link 1 = /n/sw/g16_nehalem/g16/l1.exe PID=    311058.
  
 Copyright (c) 1988,1990,1992,1993,1995,1998,2003,2009,2016,
            Gaussian, Inc.  All Rights Reserved.
  
 This is part of the Gaussian(R) 16 program.  It is based on
 the Gaussian(R) 09 system (copyright 2009, Gaussian, Inc.),
 the Gaussian(R) 03 system (copyright 2003, Gaussian, Inc.),
 the Gaussian(R) 98 system (copyright 1998, Gaussian, Inc.),
 the Gaussian(R) 94 system (copyright 1995, Gaussian, Inc.),
 the Gaussian 92(TM) system (copyright 1992, Gaussian, Inc.),
 the Gaussian 90(TM) system (copyright 1990, Gaussian, Inc.),
 the Gaussian 88(TM) system (copyright 1988, Gaussian, Inc.),
 the Gaussian 86(TM) system (copyright 1986, Carnegie Mellon
 University), and the Gaussian 82(TM) system (copyright 1983,
 Carnegie Mellon University). Gaussian is a federally registered
 trademark of Gaussian, Inc.
  
 This software contains proprietary and confidential information,
 including trade secrets, belonging to Gaussian, Inc.
  
 This software is provided under written license and may be
 used, copied, transmitted, or stored only in accord with that
 written license.
  
 The following legend is applicable only to US Government
 contracts under FAR:
  
                    RESTRICTED RIGHTS LEGEND
  
 Use, reproduction and disclosure by the US Government is
 subject to restrictions as set forth in subparagraphs (a)
 and (c) of the Commercial Computer Software - Restricted
 Rights clause in FAR 52.227-19.
  
 Gaussian, Inc.
 340 Quinnipiac St., Bldg. 40, Wallingford CT 06492
  
  
 ---------------------------------------------------------------
 Warning -- This program may not be used in any manner that
 competes with the business of Gaussian, Inc. or will provide
 assistance to any competitor of Gaussian, Inc.  The licensee
 of this program is prohibited from giving any competitor of
 Gaussian, Inc. access to this program.  By using this program,
 the user acknowledges that Gaussian, Inc. is engaged in the
 business of creating and licensing software in the field of
 computational chemistry and represents and warrants to the
 licensee that it is not a competitor of Gaussian, Inc. and that
 it will not use this program in any manner prohibited above.
 ---------------------------------------------------------------
  

 Cite this work as:
 Gaussian 16, Revision A.03,
 M. J. Frisch, G. W. Trucks, H. B. Schlegel, G. E. Scuseria, 
 M. A. Robb, J. R. Cheeseman, G. Scalmani, V. Barone, 
 G. A. Petersson, H. Nakatsuji, X. Li, M. Caricato, A. V. Marenich, 
 J. Bloino, B. G. Janesko, R. Gomperts, B. Mennucci, H. P. Hratchian, 
 J. V. Ortiz, A. F. Izmaylov, J. L. Sonnenberg, D. Williams-Young, 
 F. Ding, F. Lipparini, F. Egidi, J. Goings, B. Peng, A. Petrone, 
 T. Henderson, D. Ranasinghe, V. G. Zakrzewski, J. Gao, N. Rega, 
 G. Zheng, W. Liang, M. Hada, M. Ehara, K. Toyota, R. Fukuda, 
 J. Hasegawa, M. Ishida, T. Nakajima, Y. Honda, O. Kitao, H. Nakai, 
 T. Vreven, K. Throssell, J. A. Montgomery, Jr., J. E. Peralta, 
 F. Ogliaro, M. J. Bearpark, J. J. Heyd, E. N. Brothers, K. N. Kudin, 
 V. N. Staroverov, T. A. Keith, R. Kobayashi, J. Normand, 
 K. Raghavachari, A. P. Rendell, J. C. Burant, S. S. Iyengar, 
 J. Tomasi, M. Cossi, J. M. Millam, M. Klene, C. Adamo, R. Cammi, 
 J. W. Ochterski, R. L. Martin, K. Morokuma, O. Farkas, 
 J. B. Foresman, and D. J. Fox, Gaussian, Inc., Wallingford CT, 2016.
 
 ******************************************
 Gaussian 16:  ES64L-G16RevA.03 25-Dec-2016
                12-Feb-2020 
 ******************************************
 %chk=checkpoint.chk
 %mem=3GB
 %nprocshared=4
 Will use up to    4 processors via shared memory.
 -------------------------------------------------------------------
 #t pop=none jul-cc-pvdz guess=read ub3lyp empiricaldispersion=gd3bj
 -------------------------------------------------------------------
 ------------------------------
 theory_abbreviation b3lyp_d3bj
 ------------------------------
 Symbolic Z-matrix:
 Charge =  0 Multiplicity = 6
 O                     0.20517   0.37101  -0.86671 
 C                     0.98888   1.33048  -0.67102 
 C                     3.07289   0.10792   0.53408 
 C                     2.63713  -0.94822  -0.18283 
 C                     3.09701  -1.18357  -1.59575 
 Fe                   -1.47795  -0.15997   0.01469 
 Cl                   -2.06757  -1.99129  -0.99827 
 C                     1.7078   -2.001     0.34544 
 Cl                   -2.71281   1.5999   -0.39458 
 Cl                   -1.08493  -0.405     2.1605 
 H                     3.79743   0.76873   0.05717 
 H                     2.22839  -2.9673    0.38703 
 H                     1.31609  -1.78395   1.33868 
 H                     0.85975  -2.14154  -0.33661 
 H                     3.60048  -2.15642  -1.66825 
 H                     2.24094  -1.22911  -2.28218 
 H                     3.79576  -0.41734  -1.94344 
 C                     2.86166   0.33997   2.00685 
 H                     3.66852  -0.13425   2.58219 
 H                     2.88869   1.40606   2.25322 
 H                     1.91571  -0.06667   2.37298 
 C                     0.82436   2.22995   0.51339 
 H                     1.71171   2.83732   0.69468 
 H                    -0.01454   2.89941   0.27032 
 H                     0.54539   1.6747    1.40914 
 C                     1.80972   1.81585  -1.82712 
 H                     1.22016   2.61407  -2.30212 
 H                     2.75824   2.24941  -1.50743 
 H                     1.96598   1.02817  -2.56194 
 
                    Distance matrix (angstroms):
                    1          2          3          4          5
     1  O    0.000000
     2  C    1.254232   0.000000
     3  C    3.202387   2.700002   0.000000
     4  C    2.849999   2.854385   1.348801   0.000000
     5  C    3.363177   3.408779   2.490915   1.504403   0.000000
     6  Fe   1.972729   2.962576   4.588210   4.194543   4.956964
     7  Cl   3.280709   4.525827   5.760131   4.887445   5.261395
     8  C    3.058374   3.556516   2.519248   1.500356   2.523155
     9  Cl   3.201198   3.721763   6.046716   5.929552   6.553207
    10  Cl   3.380907   3.915361   4.493978   4.431702   5.674874
    11  H    3.730429   2.955294   1.090441   2.086097   2.652200
    12  H    4.099946   4.596382   3.192456   2.137401   2.804922
    13  H    3.277455   3.720966   2.704238   2.181415   3.484683
    14  H    2.649977   3.490477   3.273554   2.146329   2.740155
    15  H    4.307958   4.469159   3.202468   2.143427   1.097805
    16  H    2.950985   3.273379   3.226620   2.154797   1.098233
    17  H    3.830559   3.542949   2.633726   2.173481   1.093728
    18  C    3.913473   3.414582   1.505836   2.550400   3.918582
    19  H    4.913756   4.461974   2.146666   3.061309   4.345437
    20  H    4.243417   3.487996   2.162074   3.397092   4.643718
    21  H    3.689593   3.475188   2.179710   2.798164   4.288792
    22  C    2.396612   1.496305   3.091822   3.724461   4.611454
    23  H    3.284864   2.158281   3.054221   3.994589   4.830391
    24  H    2.780994   2.086746   4.170639   4.694776   5.462111
    25  H    2.644783   2.154586   3.099816   3.713417   4.869277
    26  C    2.363167   1.498647   3.176148   3.320906   3.272183
    27  H    2.849904   2.088443   4.213959   4.380542   4.294606
    28  H    3.233742   2.162091   2.975358   3.463247   3.450783
    29  H    2.531034   2.149818   3.414302   3.164924   2.665435
                    6          7          8          9         10
     6  Fe   0.000000
     7  Cl   2.174275   0.000000
     8  C    3.694293   4.007379   0.000000
     9  Cl   2.188497   3.698296   5.749429   0.000000
    10  Cl   2.195225   3.668752   3.693377   3.632910   0.000000
    11  H    5.356666   6.567332   3.481530   6.578613   5.444179
    12  H    4.664404   4.618106   1.098393   6.773895   4.548482
    13  H    3.492405   4.117461   1.089534   5.539550   2.888212
    14  H    3.084622   3.004928   1.097330   5.173486   3.610119
    15  H    5.710387   5.709898   2.767912   7.455857   6.299197
    16  H    4.499867   4.559892   2.790062   6.008827   5.610526
    17  H    5.631381   6.144041   3.479443   6.987823   6.376801
    18  C    4.801126   6.225979   3.093839   6.199110   4.019220
    19  H    5.751419   7.012203   3.511726   7.251880   4.779791
    20  H    5.150821   6.832178   4.079487   6.198804   4.367857
    21  H    4.133656   5.562011   2.809944   5.644465   3.027115
    22  C    3.355743   5.335466   4.325465   3.705796   3.647095
    23  H    4.429448   6.361169   4.850915   4.721657   4.525752
    24  H    3.400979   5.453725   5.194817   3.067810   3.954438
    25  H    3.066654   5.105156   3.999184   3.724894   2.747288
    26  C    4.254979   5.496784   4.393040   4.748901   5.404839
    27  H    4.510280   5.806761   5.342874   4.487254   5.860303
    28  H    5.105601   6.444465   4.754215   5.620732   5.938814
    29  H    4.462208   5.275572   4.206591   5.188005   5.802023
                   11         12         13         14         15
    11  H    0.000000
    12  H    4.065537   0.000000
    13  H    3.783579   1.771517   0.000000
    14  H    4.153874   1.754619   1.772776   0.000000
    15  H    3.401811   2.600832   3.794579   3.047141   0.000000
    16  H    3.447687   3.185297   3.778074   2.554495   1.756461
    17  H    2.325767   3.793416   4.334593   3.764954   1.771511
    18  C    2.204716   3.736698   2.710398   3.956938   4.503798
    19  H    2.684718   3.862498   3.130772   4.520817   4.707442
    20  H    2.460620   4.800518   3.672274   4.838316   5.345637
    21  H    3.098671   3.529226   2.092450   3.572397   4.851500
    22  C    3.344021   5.385041   4.127258   4.453504   5.630864
    23  H    3.005953   5.835686   4.682665   5.155431   5.838523
    24  H    4.372227   6.281925   4.984550   5.152079   6.510592
    25  H    3.636542   5.042358   3.544174   4.208348   5.786314
    26  C    2.932240   5.287369   4.819183   4.334168   4.360161
    27  H    3.951441   6.276922   5.710271   5.158389   5.368924
    28  H    2.391720   5.575281   5.142772   4.924987   4.488492
    29  H    3.206442   4.972829   4.852341   4.027763   3.689427
                   16         17         18         19         20
    16  H    0.000000
    17  H    1.786382   0.000000
    18  C    4.609024   4.129271   0.000000
    19  H    5.186401   4.536258   1.098600   0.000000
    20  H    5.285219   4.664710   1.094522   1.757533   0.000000
    21  H    4.809112   4.721128   1.092809   1.766548   1.769175
    22  C    4.667656   4.676897   3.154844   4.237761   2.822632
    23  H    5.067313   4.679293   3.046462   4.027657   2.421325
    24  H    5.352301   5.515427   4.223595   5.302143   3.819775
    25  H    4.993285   5.116774   2.739320   3.795036   2.505135
    26  C    3.108830   2.990825   4.240775   5.167210   4.240435
    27  H    3.976490   3.993978   5.141331   6.115897   4.999436
    28  H    3.601101   2.894497   4.000856   4.820315   3.856260
    29  H    2.291107   2.412495   4.706352   5.541835   4.917314
                   21         22         23         24         25
    21  H    0.000000
    22  C    3.150171   0.000000
    23  H    3.360277   1.090484   0.000000
    24  H    4.116385   1.100457   1.778727   0.000000
    25  H    2.416428   1.090187   1.795120   1.763615   0.000000
    26  C    4.603910   2.573015   2.722592   2.983503   3.477339
    27  H    5.433848   2.869020   3.045039   2.867635   3.887312
    28  H    4.596920   2.797136   2.508020   3.357260   3.705862
    29  H    5.055162   3.493601   3.734073   3.930105   4.266805
                   26         27         28         29
    26  C    0.000000
    27  H    1.100164   0.000000
    28  H    1.090808   1.769235   0.000000
    29  H    1.088497   1.771685   1.797526   0.000000
 Framework group  C1[X(C8H16Cl3FeO)]
 Deg. of freedom    81
                         Standard orientation:                         
 ---------------------------------------------------------------------
 Center     Atomic      Atomic             Coordinates (Angstroms)
 Number     Number       Type             X           Y           Z
 ---------------------------------------------------------------------
      1          8           0        0.205167    0.371005   -0.866710
      2          6           0        0.988883    1.330479   -0.671015
      3          6           0        3.072895    0.107917    0.534076
      4          6           0        2.637129   -0.948220   -0.182825
      5          6           0        3.097012   -1.183569   -1.595746
      6         26           0       -1.477945   -0.159966    0.014688
      7         17           0       -2.067569   -1.991285   -0.998272
      8          6           0        1.707802   -2.001004    0.345441
      9         17           0       -2.712808    1.599901   -0.394579
     10         17           0       -1.084929   -0.404996    2.160501
     11          1           0        3.797432    0.768725    0.057168
     12          1           0        2.228388   -2.967300    0.387026
     13          1           0        1.316088   -1.783945    1.338683
     14          1           0        0.859754   -2.141542   -0.336613
     15          1           0        3.600482   -2.156419   -1.668249
     16          1           0        2.240944   -1.229111   -2.282179
     17          1           0        3.795758   -0.417342   -1.943440
     18          6           0        2.861658    0.339971    2.006853
     19          1           0        3.668520   -0.134250    2.582188
     20          1           0        2.888689    1.406063    2.253218
     21          1           0        1.915706   -0.066670    2.372980
     22          6           0        0.824360    2.229950    0.513389
     23          1           0        1.711709    2.837321    0.694682
     24          1           0       -0.014540    2.899406    0.270323
     25          1           0        0.545385    1.674699    1.409144
     26          6           0        1.809718    1.815851   -1.827123
     27          1           0        1.220156    2.614074   -2.302116
     28          1           0        2.758236    2.249409   -1.507432
     29          1           0        1.965979    1.028166   -2.561943
 ---------------------------------------------------------------------
 Rotational constants (GHZ):           0.5680114           0.3237223           0.3048337
   427 basis functions,  1056 primitive gaussians,   461 cartesian basis functions
    77 alpha electrons       72 beta electrons
       nuclear repulsion energy      1623.9292227965 Hartrees.
 NAtoms=   29 NActive=   29 NUniq=   29 SFac= 1.00D+00 NAtFMM=   60 NAOKFM=F Big=F
 Nuclear repulsion after empirical dispersion term =     1623.8614960261 Hartrees.
 Initial guess from the checkpoint file:  "checkpoint.chk"
 B after Tr=     0.000000    0.000000    0.000000
         Rot=    1.000000    0.000000    0.000000    0.000000 Ang=   0.00 deg.
 Initial guess <Sx>= 0.0000 <Sy>= 0.0000 <Sz>= 2.5000 <S**2>= 8.7621 S= 2.5020
 SCF Done:  E(UB3LYP) =  -3034.42145560     A.U. after    1 cycles
            NFock=  1  Conv=0.53D-08     -V/T= 2.0024
 <Sx>= 0.0000 <Sy>= 0.0000 <Sz>= 2.5000 <S**2>= 8.7621 S= 2.5020
 <L.S>= 0.000000000000E+00
 Annihilation of the first spin contaminant:
 S**2 before annihilation     8.7621,   after     8.7500
 1\1\GINC-HOLY7C04511\SP\UB3LYP\Jul-CC-pVDZ\C8H16Cl3Fe1O1(6)\EKWAN\12-F
 eb-2020\0\\#t pop=none jul-cc-pvdz guess=read ub3lyp empiricaldispersi
 on=gd3bj\\theory_abbreviation b3lyp_d3bj\\0,6\O,0,0.205167,0.371005,-0
 .86671\C,0,0.988883,1.330479,-0.671015\C,0,3.072895,0.107917,0.534076\
 C,0,2.637129,-0.94822,-0.182825\C,0,3.097012,-1.183569,-1.595746\Fe,0,
 -1.477945,-0.159966,0.014688\Cl,0,-2.067569,-1.991285,-0.998272\C,0,1.
 707802,-2.001004,0.345441\Cl,0,-2.712808,1.599901,-0.394579\Cl,0,-1.08
 4929,-0.404996,2.160501\H,0,3.797432,0.768725,0.057168\H,0,2.228388,-2
 .9673,0.387026\H,0,1.316088,-1.783945,1.338683\H,0,0.859754,-2.141542,
 -0.336613\H,0,3.600482,-2.156419,-1.668249\H,0,2.240944,-1.229111,-2.2
 82179\H,0,3.795758,-0.417342,-1.94344\C,0,2.861658,0.339971,2.006853\H
 ,0,3.66852,-0.13425,2.582188\H,0,2.888689,1.406063,2.253218\H,0,1.9157
 06,-0.06667,2.37298\C,0,0.82436,2.22995,0.513389\H,0,1.711709,2.837321
 ,0.694682\H,0,-0.01454,2.899406,0.270323\H,0,0.545385,1.674699,1.40914
 4\C,0,1.809718,1.815851,-1.827123\H,0,1.220156,2.614074,-2.302116\H,0,
 2.758236,2.249409,-1.507432\H,0,1.965979,1.028166,-2.561943\\Version=E
 S64L-G16RevA.03\HF=-3034.4214556\S2=8.762149\S2-1=0.\S2A=8.750046\RMSD
 =5.339e-09\PG=C01 [X(C8H16Cl3Fe1O1)]\\@


 DEFINE YOUR TERMS, YOU WILL PERMIT ME AGAIN TO SAY, 
 OR WE SHALL NEVER UNDERSTAND ONE ANOTHER.

                                    -- VOLTAIRE
 Job cpu time:       0 days  0 hours  4 minutes 30.1 seconds.
 Elapsed time:       0 days  0 hours  1 minutes  7.9 seconds.
 File lengths (MBytes):  RWF=    170 Int=      0 D2E=      0 Chk=     13 Scr=      1
 Normal termination of Gaussian 16 at Wed Feb 12 14:27:03 2020.
 Initial command:
 /n/sw/g16_nehalem/g16/l1.exe "/scratch/Gau-308610.inp" -scrdir="/scratch/"
 Entering Link 1 = /n/sw/g16_nehalem/g16/l1.exe PID=    311201.
  
 Copyright (c) 1988,1990,1992,1993,1995,1998,2003,2009,2016,
            Gaussian, Inc.  All Rights Reserved.
  
 This is part of the Gaussian(R) 16 program.  It is based on
 the Gaussian(R) 09 system (copyright 2009, Gaussian, Inc.),
 the Gaussian(R) 03 system (copyright 2003, Gaussian, Inc.),
 the Gaussian(R) 98 system (copyright 1998, Gaussian, Inc.),
 the Gaussian(R) 94 system (copyright 1995, Gaussian, Inc.),
 the Gaussian 92(TM) system (copyright 1992, Gaussian, Inc.),
 the Gaussian 90(TM) system (copyright 1990, Gaussian, Inc.),
 the Gaussian 88(TM) system (copyright 1988, Gaussian, Inc.),
 the Gaussian 86(TM) system (copyright 1986, Carnegie Mellon
 University), and the Gaussian 82(TM) system (copyright 1983,
 Carnegie Mellon University). Gaussian is a federally registered
 trademark of Gaussian, Inc.
  
 This software contains proprietary and confidential information,
 including trade secrets, belonging to Gaussian, Inc.
  
 This software is provided under written license and may be
 used, copied, transmitted, or stored only in accord with that
 written license.
  
 The following legend is applicable only to US Government
 contracts under FAR:
  
                    RESTRICTED RIGHTS LEGEND
  
 Use, reproduction and disclosure by the US Government is
 subject to restrictions as set forth in subparagraphs (a)
 and (c) of the Commercial Computer Software - Restricted
 Rights clause in FAR 52.227-19.
  
 Gaussian, Inc.
 340 Quinnipiac St., Bldg. 40, Wallingford CT 06492
  
  
 ---------------------------------------------------------------
 Warning -- This program may not be used in any manner that
 competes with the business of Gaussian, Inc. or will provide
 assistance to any competitor of Gaussian, Inc.  The licensee
 of this program is prohibited from giving any competitor of
 Gaussian, Inc. access to this program.  By using this program,
 the user acknowledges that Gaussian, Inc. is engaged in the
 business of creating and licensing software in the field of
 computational chemistry and represents and warrants to the
 licensee that it is not a competitor of Gaussian, Inc. and that
 it will not use this program in any manner prohibited above.
 ---------------------------------------------------------------
  

 Cite this work as:
 Gaussian 16, Revision A.03,
 M. J. Frisch, G. W. Trucks, H. B. Schlegel, G. E. Scuseria, 
 M. A. Robb, J. R. Cheeseman, G. Scalmani, V. Barone, 
 G. A. Petersson, H. Nakatsuji, X. Li, M. Caricato, A. V. Marenich, 
 J. Bloino, B. G. Janesko, R. Gomperts, B. Mennucci, H. P. Hratchian, 
 J. V. Ortiz, A. F. Izmaylov, J. L. Sonnenberg, D. Williams-Young, 
 F. Ding, F. Lipparini, F. Egidi, J. Goings, B. Peng, A. Petrone, 
 T. Henderson, D. Ranasinghe, V. G. Zakrzewski, J. Gao, N. Rega, 
 G. Zheng, W. Liang, M. Hada, M. Ehara, K. Toyota, R. Fukuda, 
 J. Hasegawa, M. Ishida, T. Nakajima, Y. Honda, O. Kitao, H. Nakai, 
 T. Vreven, K. Throssell, J. A. Montgomery, Jr., J. E. Peralta, 
 F. Ogliaro, M. J. Bearpark, J. J. Heyd, E. N. Brothers, K. N. Kudin, 
 V. N. Staroverov, T. A. Keith, R. Kobayashi, J. Normand, 
 K. Raghavachari, A. P. Rendell, J. C. Burant, S. S. Iyengar, 
 J. Tomasi, M. Cossi, J. M. Millam, M. Klene, C. Adamo, R. Cammi, 
 J. W. Ochterski, R. L. Martin, K. Morokuma, O. Farkas, 
 J. B. Foresman, and D. J. Fox, Gaussian, Inc., Wallingford CT, 2016.
 
 ******************************************
 Gaussian 16:  ES64L-G16RevA.03 25-Dec-2016
                12-Feb-2020 
 ******************************************
 %chk=checkpoint.chk
 %mem=3GB
 %nprocshared=4
 Will use up to    4 processors via shared memory.
 ----------------------------------------
 #t pop=none jul-cc-pvdz guess=read ub97d
 ----------------------------------------
 ------------------------
 theory_abbreviation b97d
 ------------------------
 Symbolic Z-matrix:
 Charge =  0 Multiplicity = 6
 O                     0.20517   0.37101  -0.86671 
 C                     0.98888   1.33048  -0.67102 
 C                     3.07289   0.10792   0.53408 
 C                     2.63713  -0.94822  -0.18283 
 C                     3.09701  -1.18357  -1.59575 
 Fe                   -1.47795  -0.15997   0.01469 
 Cl                   -2.06757  -1.99129  -0.99827 
 C                     1.7078   -2.001     0.34544 
 Cl                   -2.71281   1.5999   -0.39458 
 Cl                   -1.08493  -0.405     2.1605 
 H                     3.79743   0.76873   0.05717 
 H                     2.22839  -2.9673    0.38703 
 H                     1.31609  -1.78395   1.33868 
 H                     0.85975  -2.14154  -0.33661 
 H                     3.60048  -2.15642  -1.66825 
 H                     2.24094  -1.22911  -2.28218 
 H                     3.79576  -0.41734  -1.94344 
 C                     2.86166   0.33997   2.00685 
 H                     3.66852  -0.13425   2.58219 
 H                     2.88869   1.40606   2.25322 
 H                     1.91571  -0.06667   2.37298 
 C                     0.82436   2.22995   0.51339 
 H                     1.71171   2.83732   0.69468 
 H                    -0.01454   2.89941   0.27032 
 H                     0.54539   1.6747    1.40914 
 C                     1.80972   1.81585  -1.82712 
 H                     1.22016   2.61407  -2.30212 
 H                     2.75824   2.24941  -1.50743 
 H                     1.96598   1.02817  -2.56194 
 
                    Distance matrix (angstroms):
                    1          2          3          4          5
     1  O    0.000000
     2  C    1.254232   0.000000
     3  C    3.202387   2.700002   0.000000
     4  C    2.849999   2.854385   1.348801   0.000000
     5  C    3.363177   3.408779   2.490915   1.504403   0.000000
     6  Fe   1.972729   2.962576   4.588210   4.194543   4.956964
     7  Cl   3.280709   4.525827   5.760131   4.887445   5.261395
     8  C    3.058374   3.556516   2.519248   1.500356   2.523155
     9  Cl   3.201198   3.721763   6.046716   5.929552   6.553207
    10  Cl   3.380907   3.915361   4.493978   4.431702   5.674874
    11  H    3.730429   2.955294   1.090441   2.086097   2.652200
    12  H    4.099946   4.596382   3.192456   2.137401   2.804922
    13  H    3.277455   3.720966   2.704238   2.181415   3.484683
    14  H    2.649977   3.490477   3.273554   2.146329   2.740155
    15  H    4.307958   4.469159   3.202468   2.143427   1.097805
    16  H    2.950985   3.273379   3.226620   2.154797   1.098233
    17  H    3.830559   3.542949   2.633726   2.173481   1.093728
    18  C    3.913473   3.414582   1.505836   2.550400   3.918582
    19  H    4.913756   4.461974   2.146666   3.061309   4.345437
    20  H    4.243417   3.487996   2.162074   3.397092   4.643718
    21  H    3.689593   3.475188   2.179710   2.798164   4.288792
    22  C    2.396612   1.496305   3.091822   3.724461   4.611454
    23  H    3.284864   2.158281   3.054221   3.994589   4.830391
    24  H    2.780994   2.086746   4.170639   4.694776   5.462111
    25  H    2.644783   2.154586   3.099816   3.713417   4.869277
    26  C    2.363167   1.498647   3.176148   3.320906   3.272183
    27  H    2.849904   2.088443   4.213959   4.380542   4.294606
    28  H    3.233742   2.162091   2.975358   3.463247   3.450783
    29  H    2.531034   2.149818   3.414302   3.164924   2.665435
                    6          7          8          9         10
     6  Fe   0.000000
     7  Cl   2.174275   0.000000
     8  C    3.694293   4.007379   0.000000
     9  Cl   2.188497   3.698296   5.749429   0.000000
    10  Cl   2.195225   3.668752   3.693377   3.632910   0.000000
    11  H    5.356666   6.567332   3.481530   6.578613   5.444179
    12  H    4.664404   4.618106   1.098393   6.773895   4.548482
    13  H    3.492405   4.117461   1.089534   5.539550   2.888212
    14  H    3.084622   3.004928   1.097330   5.173486   3.610119
    15  H    5.710387   5.709898   2.767912   7.455857   6.299197
    16  H    4.499867   4.559892   2.790062   6.008827   5.610526
    17  H    5.631381   6.144041   3.479443   6.987823   6.376801
    18  C    4.801126   6.225979   3.093839   6.199110   4.019220
    19  H    5.751419   7.012203   3.511726   7.251880   4.779791
    20  H    5.150821   6.832178   4.079487   6.198804   4.367857
    21  H    4.133656   5.562011   2.809944   5.644465   3.027115
    22  C    3.355743   5.335466   4.325465   3.705796   3.647095
    23  H    4.429448   6.361169   4.850915   4.721657   4.525752
    24  H    3.400979   5.453725   5.194817   3.067810   3.954438
    25  H    3.066654   5.105156   3.999184   3.724894   2.747288
    26  C    4.254979   5.496784   4.393040   4.748901   5.404839
    27  H    4.510280   5.806761   5.342874   4.487254   5.860303
    28  H    5.105601   6.444465   4.754215   5.620732   5.938814
    29  H    4.462208   5.275572   4.206591   5.188005   5.802023
                   11         12         13         14         15
    11  H    0.000000
    12  H    4.065537   0.000000
    13  H    3.783579   1.771517   0.000000
    14  H    4.153874   1.754619   1.772776   0.000000
    15  H    3.401811   2.600832   3.794579   3.047141   0.000000
    16  H    3.447687   3.185297   3.778074   2.554495   1.756461
    17  H    2.325767   3.793416   4.334593   3.764954   1.771511
    18  C    2.204716   3.736698   2.710398   3.956938   4.503798
    19  H    2.684718   3.862498   3.130772   4.520817   4.707442
    20  H    2.460620   4.800518   3.672274   4.838316   5.345637
    21  H    3.098671   3.529226   2.092450   3.572397   4.851500
    22  C    3.344021   5.385041   4.127258   4.453504   5.630864
    23  H    3.005953   5.835686   4.682665   5.155431   5.838523
    24  H    4.372227   6.281925   4.984550   5.152079   6.510592
    25  H    3.636542   5.042358   3.544174   4.208348   5.786314
    26  C    2.932240   5.287369   4.819183   4.334168   4.360161
    27  H    3.951441   6.276922   5.710271   5.158389   5.368924
    28  H    2.391720   5.575281   5.142772   4.924987   4.488492
    29  H    3.206442   4.972829   4.852341   4.027763   3.689427
                   16         17         18         19         20
    16  H    0.000000
    17  H    1.786382   0.000000
    18  C    4.609024   4.129271   0.000000
    19  H    5.186401   4.536258   1.098600   0.000000
    20  H    5.285219   4.664710   1.094522   1.757533   0.000000
    21  H    4.809112   4.721128   1.092809   1.766548   1.769175
    22  C    4.667656   4.676897   3.154844   4.237761   2.822632
    23  H    5.067313   4.679293   3.046462   4.027657   2.421325
    24  H    5.352301   5.515427   4.223595   5.302143   3.819775
    25  H    4.993285   5.116774   2.739320   3.795036   2.505135
    26  C    3.108830   2.990825   4.240775   5.167210   4.240435
[...]
     29          1           0        1.965979    1.028166   -2.561943
 ---------------------------------------------------------------------
 Rotational constants (GHZ):           0.5680114           0.3237223           0.3048337
   427 basis functions,  1056 primitive gaussians,   461 cartesian basis functions
    77 alpha electrons       72 beta electrons
       nuclear repulsion energy      1623.9292227965 Hartrees.
 NAtoms=   29 NActive=   29 NUniq=   29 SFac= 1.00D+00 NAtFMM=   60 NAOKFM=F Big=F
 Nuclear repulsion after empirical dispersion term =     1623.9267363553 Hartrees.
 Initial guess from the checkpoint file:  "checkpoint.chk"
 B after Tr=     0.000000    0.000000    0.000000
         Rot=    1.000000    0.000000    0.000000    0.000000 Ang=   0.00 deg.
 Initial guess <Sx>= 0.0000 <Sy>= 0.0000 <Sz>= 2.5000 <S**2>= 8.7618 S= 2.5020
 SCF Done:  E(UM06L) =  -3034.22160485     A.U. after   17 cycles
            NFock= 17  Conv=0.76D-08     -V/T= 2.0020
 <Sx>= 0.0000 <Sy>= 0.0000 <Sz>= 2.5000 <S**2>= 8.7617 S= 2.5020
 <L.S>= 0.000000000000E+00
 Annihilation of the first spin contaminant:
 S**2 before annihilation     8.7617,   after     8.7500
 1\1\GINC-HOLY7C04511\SP\UM06L\Jul-CC-pVDZ\C8H16Cl3Fe1O1(6)\EKWAN\12-Fe
 b-2020\0\\#t pop=none jul-cc-pvdz guess=read um06l empiricaldispersion
 =gd3\\theory_abbreviation m06l_d3\\0,6\O,0,0.205167,0.371005,-0.86671\
 C,0,0.988883,1.330479,-0.671015\C,0,3.072895,0.107917,0.534076\C,0,2.6
 37129,-0.94822,-0.182825\C,0,3.097012,-1.183569,-1.595746\Fe,0,-1.4779
 45,-0.159966,0.014688\Cl,0,-2.067569,-1.991285,-0.998272\C,0,1.707802,
 -2.001004,0.345441\Cl,0,-2.712808,1.599901,-0.394579\Cl,0,-1.084929,-0
 .404996,2.160501\H,0,3.797432,0.768725,0.057168\H,0,2.228388,-2.9673,0
 .387026\H,0,1.316088,-1.783945,1.338683\H,0,0.859754,-2.141542,-0.3366
 13\H,0,3.600482,-2.156419,-1.668249\H,0,2.240944,-1.229111,-2.282179\H
 ,0,3.795758,-0.417342,-1.94344\C,0,2.861658,0.339971,2.006853\H,0,3.66
 852,-0.13425,2.582188\H,0,2.888689,1.406063,2.253218\H,0,1.915706,-0.0
 6667,2.37298\C,0,0.82436,2.22995,0.513389\H,0,1.711709,2.837321,0.6946
 82\H,0,-0.01454,2.899406,0.270323\H,0,0.545385,1.674699,1.409144\C,0,1
 .809718,1.815851,-1.827123\H,0,1.220156,2.614074,-2.302116\H,0,2.75823
 6,2.249409,-1.507432\H,0,1.965979,1.028166,-2.561943\\Version=ES64L-G1
 6RevA.03\HF=-3034.2216048\S2=8.761717\S2-1=0.\S2A=8.750044\RMSD=7.607e
 -09\PG=C01 [X(C8H16Cl3Fe1O1)]\\@


 ONLY A FOOL KNOWS EVERYTHING.

               -- THE CHEMIST ANALYST, SEPTEMBER 1946
 Job cpu time:       0 days  1 hours 12 minutes 20.9 seconds.
 Elapsed time:       0 days  0 hours 18 minutes  8.1 seconds.
 File lengths (MBytes):  RWF=    174 Int=      0 D2E=      0 Chk=     13 Scr=      1
 Normal termination of Gaussian 16 at Wed Feb 12 22:28:49 2020.
 Initial command:
 /n/sw/g16_nehalem/g16/l1.exe "/scratch/Gau-308610.inp" -scrdir="/scratch/"
 Entering Link 1 = /n/sw/g16_nehalem/g16/l1.exe PID=    348751.
  
 Copyright (c) 1988,1990,1992,1993,1995,1998,2003,2009,2016,
            Gaussian, Inc.  All Rights Reserved.
  
 This is part of the Gaussian(R) 16 program.  It is based on
 the Gaussian(R) 09 system (copyright 2009, Gaussian, Inc.),
 the Gaussian(R) 03 system (copyright 2003, Gaussian, Inc.),
 the Gaussian(R) 98 system (copyright 1998, Gaussian, Inc.),
 the Gaussian(R) 94 system (copyright 1995, Gaussian, Inc.),
 the Gaussian 92(TM) system (copyright 1992, Gaussian, Inc.),
 the Gaussian 90(TM) system (copyright 1990, Gaussian, Inc.),
 the Gaussian 88(TM) system (copyright 1988, Gaussian, Inc.),
 the Gaussian 86(TM) system (copyright 1986, Carnegie Mellon
 University), and the Gaussian 82(TM) system (copyright 1983,
 Carnegie Mellon University). Gaussian is a federally registered
 trademark of Gaussian, Inc.
  
 This software contains proprietary and confidential information,
 including trade secrets, belonging to Gaussian, Inc.
  
 This software is provided under written license and may be
 used, copied, transmitted, or stored only in accord with that
 written license.
  
 The following legend is applicable only to US Government
 contracts under FAR:
  
                    RESTRICTED RIGHTS LEGEND
  
 Use, reproduction and disclosure by the US Government is
 subject to restrictions as set forth in subparagraphs (a)
 and (c) of the Commercial Computer Software - Restricted
 Rights clause in FAR 52.227-19.
  
 Gaussian, Inc.
 340 Quinnipiac St., Bldg. 40, Wallingford CT 06492
  
  
 ---------------------------------------------------------------
 Warning -- This program may not be used in any manner that
 competes with the business of Gaussian, Inc. or will provide
 assistance to any competitor of Gaussian, Inc.  The licensee
 of this program is prohibited from giving any competitor of
 Gaussian, Inc. access to this program.  By using this program,
 the user acknowledges that Gaussian, Inc. is engaged in the
 business of creating and licensing software in the field of
 computational chemistry and represents and warrants to the
 licensee that it is not a competitor of Gaussian, Inc. and that
 it will not use this program in any manner prohibited above.
 ---------------------------------------------------------------
  

 Cite this work as:
 Gaussian 16, Revision A.03,
 M. J. Frisch, G. W. Trucks, H. B. Schlegel, G. E. Scuseria, 
 M. A. Robb, J. R. Cheeseman, G. Scalmani, V. Barone, 
 G. A. Petersson, H. Nakatsuji, X. Li, M. Caricato, A. V. Marenich, 
 J. Bloino, B. G. Janesko, R. Gomperts, B. Mennucci, H. P. Hratchian, 
 J. V. Ortiz, A. F. Izmaylov, J. L. Sonnenberg, D. Williams-Young, 
 F. Ding, F. Lipparini, F. Egidi, J. Goings, B. Peng, A. Petrone, 
 T. Henderson, D. Ranasinghe, V. G. Zakrzewski, J. Gao, N. Rega, 
 G. Zheng, W. Liang, M. Hada, M. Ehara, K. Toyota, R. Fukuda, 
 J. Hasegawa, M. Ishida, T. Nakajima, Y. Honda, O. Kitao, H. Nakai, 
 T. Vreven, K. Throssell, J. A. Montgomery, Jr., J. E. Peralta, 
 F. Ogliaro, M. J. Bearpark, J. J. Heyd, E. N. Brothers, K. N. Kudin, 
 V. N. Staroverov, T. A. Keith, R. Kobayashi, J. Normand, 
 K. Raghavachari, A. P. Rendell, J. C. Burant, S. S. Iyengar, 
 J. Tomasi, M. Cossi, J. M. Millam, M. Klene, C. Adamo, R. Cammi, 
 J. W. Ochterski, R. L. Martin, K. Morokuma, O. Farkas, 
 J. B. Foresman, and D. J. Fox, Gaussian, Inc., Wallingford CT, 2016.
 
 ******************************************
 Gaussian 16:  ES64L-G16RevA.03 25-Dec-2016
                12-Feb-2020 
 ******************************************
 %chk=checkpoint.chk
 %mem=3GB
 %nprocshared=4
 Will use up to    4 processors via shared memory.
 -------------------------------------------------------------------
 #t pop=none jul-cc-pvdz guess=read ub97d3 empiricaldispersion=gd3bj
 -------------------------------------------------------------------
 ------------------------------
 theory_abbreviation b97d3_d3bj
 ------------------------------
 Symbolic Z-matrix:
 Charge =  0 Multiplicity = 6
 O                     0.20517   0.37101  -0.86671 
 C                     0.98888   1.33048  -0.67102 
 C                     3.07289   0.10792   0.53408 
 C                     2.63713  -0.94822  -0.18283 
 C                     3.09701  -1.18357  -1.59575 
 Fe                   -1.47795  -0.15997   0.01469 
 Cl                   -2.06757  -1.99129  -0.99827 
 C                     1.7078   -2.001     0.34544 
 Cl                   -2.71281   1.5999   -0.39458 
 Cl                   -1.08493  -0.405     2.1605 
 H                     3.79743   0.76873   0.05717 
 H                     2.22839  -2.9673    0.38703 
 H                     1.31609  -1.78395   1.33868 
 H                     0.85975  -2.14154  -0.33661 
 H                     3.60048  -2.15642  -1.66825 
 H                     2.24094  -1.22911  -2.28218 
 H                     3.79576  -0.41734  -1.94344 
 C                     2.86166   0.33997   2.00685 
 H                     3.66852  -0.13425   2.58219 
 H                     2.88869   1.40606   2.25322 
 H                     1.91571  -0.06667   2.37298 
 C                     0.82436   2.22995   0.51339 
 H                     1.71171   2.83732   0.69468 
 H                    -0.01454   2.89941   0.27032 
 H                     0.54539   1.6747    1.40914 
 C                     1.80972   1.81585  -1.82712 
 H                     1.22016   2.61407  -2.30212 
 H                     2.75824   2.24941  -1.50743 
 H                     1.96598   1.02817  -2.56194 
 
                    Distance matrix (angstroms):
                    1          2          3          4          5
     1  O    0.000000
     2  C    1.254232   0.000000
     3  C    3.202387   2.700002   0.000000
     4  C    2.849999   2.854385   1.348801   0.000000
     5  C    3.363177   3.408779   2.490915   1.504403   0.000000
     6  Fe   1.972729   2.962576   4.588210   4.194543   4.956964
     7  Cl   3.280709   4.525827   5.760131   4.887445   5.261395
     8  C    3.058374   3.556516   2.519248   1.500356   2.523155
     9  Cl   3.201198   3.721763   6.046716   5.929552   6.553207
    10  Cl   3.380907   3.915361   4.493978   4.431702   5.674874
    11  H    3.730429   2.955294   1.090441   2.086097   2.652200
    12  H    4.099946   4.596382   3.192456   2.137401   2.804922
    13  H    3.277455   3.720966   2.704238   2.181415   3.484683
    14  H    2.649977   3.490477   3.273554   2.146329   2.740155
    15  H    4.307958   4.469159   3.202468   2.143427   1.097805
    16  H    2.950985   3.273379   3.226620   2.154797   1.098233
    17  H    3.830559   3.542949   2.633726   2.173481   1.093728
    18  C    3.913473   3.414582   1.505836   2.550400   3.918582
    19  H    4.913756   4.461974   2.146666   3.061309   4.345437
    20  H    4.243417   3.487996   2.162074   3.397092   4.643718
    21  H    3.689593   3.475188   2.179710   2.798164   4.288792
    22  C    2.396612   1.496305   3.091822   3.724461   4.611454
    23  H    3.284864   2.158281   3.054221   3.994589   4.830391
    24  H    2.780994   2.086746   4.170639   4.694776   5.462111
    25  H    2.644783   2.154586   3.099816   3.713417   4.869277
    26  C    2.363167   1.498647   3.176148   3.320906   3.272183
    27  H    2.849904   2.088443   4.213959   4.380542   4.294606
    28  H    3.233742   2.162091   2.975358   3.463247   3.450783
    29  H    2.531034   2.149818   3.414302   3.164924   2.665435
                    6          7          8          9         10
     6  Fe   0.000000
     7  Cl   2.174275   0.000000
     8  C    3.694293   4.007379   0.000000
     9  Cl   2.188497   3.698296   5.749429   0.000000
    10  Cl   2.195225   3.668752   3.693377   3.632910   0.000000
    11  H    5.356666   6.567332   3.481530   6.578613   5.444179
    12  H    4.664404   4.618106   1.098393   6.773895   4.548482
    13  H    3.492405   4.117461   1.089534   5.539550   2.888212
    14  H    3.084622   3.004928   1.097330   5.173486   3.610119
    15  H    5.710387   5.709898   2.767912   7.455857   6.299197
    16  H    4.499867   4.559892   2.790062   6.008827   5.610526
    17  H    5.631381   6.144041   3.479443   6.987823   6.376801
    18  C    4.801126   6.225979   3.093839   6.199110   4.019220
    19  H    5.751419   7.012203   3.511726   7.251880   4.779791
    20  H    5.150821   6.832178   4.079487   6.198804   4.367857
    21  H    4.133656   5.562011   2.809944   5.644465   3.027115
    22  C    3.355743   5.335466   4.325465   3.705796   3.647095
    23  H    4.429448   6.361169   4.850915   4.721657   4.525752
    24  H    3.400979   5.453725   5.194817   3.067810   3.954438
    25  H    3.066654   5.105156   3.999184   3.724894   2.747288
    26  C    4.254979   5.496784   4.393040   4.748901   5.404839
    27  H    4.510280   5.806761   5.342874   4.487254   5.860303
    28  H    5.105601   6.444465   4.754215   5.620732   5.938814
    29  H    4.462208   5.275572   4.206591   5.188005   5.802023
                   11         12         13         14         15
    11  H    0.000000
    12  H    4.065537   0.000000
    13  H    3.783579   1.771517   0.000000
    14  H    4.153874   1.754619   1.772776   0.000000
    15  H    3.401811   2.600832   3.794579   3.047141   0.000000
    16  H    3.447687   3.185297   3.778074   2.554495   1.756461
    17  H    2.325767   3.793416   4.334593   3.764954   1.771511
    18  C    2.204716   3.736698   2.710398   3.956938   4.503798
    19  H    2.684718   3.862498   3.130772   4.520817   4.707442
    20  H    2.460620   4.800518   3.672274   4.838316   5.345637
    21  H    3.098671   3.529226   2.092450   3.572397   4.851500
    22  C    3.344021   5.385041   4.127258   4.453504   5.630864
    23  H    3.005953   5.835686   4.682665   5.155431   5.838523
    24  H    4.372227   6.281925   4.984550   5.152079   6.510592
    25  H    3.636542   5.042358   3.544174   4.208348   5.786314
    26  C    2.932240   5.287369   4.819183   4.334168   4.360161
    27  H    3.951441   6.276922   5.710271   5.158389   5.368924
    28  H    2.391720   5.575281   5.142772   4.924987   4.488492
    29  H    3.206442   4.972829   4.852341   4.027763   3.689427
                   16         17         18         19         20
    16  H    0.000000
    17  H    1.786382   0.000000
    18  C    4.609024   4.129271   0.000000
    19  H    5.186401   4.536258   1.098600   0.000000
    20  H    5.285219   4.664710   1.094522   1.757533   0.000000
    21  H    4.809112   4.721128   1.092809   1.766548   1.769175
    22  C    4.667656   4.676897   3.154844   4.237761   2.822632
    23  H    5.067313   4.679293   3.046462   4.027657   2.421325
    24  H    5.352301   5.515427   4.223595   5.302143   3.819775
    25  H    4.993285   5.116774   2.739320   3.795036   2.505135
    26  C    3.108830   2.990825   4.240775   5.167210   4.240435
    27  H    3.976490   3.993978   5.141331   6.115897   4.999436
    28  H    3.601101   2.894497   4.000856   4.820315   3.856260
    29  H    2.291107   2.412495   4.706352   5.541835   4.917314
                   21         22         23         24         25
    21  H    0.000000
    22  C    3.150171   0.000000
    23  H    3.360277   1.090484   0.000000
    24  H    4.116385   1.100457   1.778727   0.000000
    25  H    2.416428   1.090187   1.795120   1.763615   0.000000
    26  C    4.603910   2.573015   2.722592   2.983503   3.477339
    27  H    5.433848   2.869020   3.045039   2.867635   3.887312
    28  H    4.596920   2.797136   2.508020   3.357260   3.705862
    29  H    5.055162   3.493601   3.734073   3.930105   4.266805
                   26         27         28         29
    26  C    0.000000
    27  H    1.100164   0.000000
    28  H    1.090808   1.769235   0.000000
    29  H    1.088497   1.771685   1.797526   0.000000
 Framework group  C1[X(C8H16Cl3FeO)]
 Deg. of freedom    81
                         Standard orientation:                         
 ---------------------------------------------------------------------
 Center     Atomic      Atomic             Coordinates (Angstroms)
 Number     Number       Type             X           Y           Z
 ---------------------------------------------------------------------
      1          8           0        0.205167    0.371005   -0.866710
      2          6           0        0.988883    1.330479   -0.671015
      3          6           0        3.072895    0.107917    0.534076
      4          6           0        2.637129   -0.948220   -0.182825
      5          6           0        3.097012   -1.183569   -1.595746
      6         26           0       -1.477945   -0.159966    0.014688
      7         17           0       -2.067569   -1.991285   -0.998272
      8          6           0        1.707802   -2.001004    0.345441
      9         17           0       -2.712808    1.599901   -0.394579
     10         17           0       -1.084929   -0.404996    2.160501
     11          1           0        3.797432    0.768725    0.057168
     12          1           0        2.228388   -2.967300    0.387026
     13          1           0        1.316088   -1.783945    1.338683
     14          1           0        0.859754   -2.141542   -0.336613
     15          1           0        3.600482   -2.156419   -1.668249
     16          1           0        2.240944   -1.229111   -2.282179
     17          1           0        3.795758   -0.417342   -1.943440
     18          6           0        2.861658    0.339971    2.006853
     19          1           0        3.668520   -0.134250    2.582188
     20          1           0        2.888689    1.406063    2.253218
     21          1           0        1.915706   -0.066670    2.372980
     22          6           0        0.824360    2.229950    0.513389
     23          1           0        1.711709    2.837321    0.694682
     24          1           0       -0.014540    2.899406    0.270323
     25          1           0        0.545385    1.674699    1.409144
     26          6           0        1.809718    1.815851   -1.827123
     27          1           0        1.220156    2.614074   -2.302116
     28          1           0        2.758236    2.249409   -1.507432
     29          1           0        1.965979    1.028166   -2.561943
 ---------------------------------------------------------------------
 Rotational constants (GHZ):           0.5680114           0.3237223           0.3048337
   427 basis functions,  1056 primitive gaussians,   461 cartesian basis functions
    77 alpha electrons       72 beta electrons
       nuclear repulsion energy      1623.9292227965 Hartrees.
 NAtoms=   29 NActive=   29 NUniq=   29 SFac= 1.00D+00 NAtFMM=   60 NAOKFM=F Big=F
 Nuclear repulsion after empirical dispersion term =     1623.8302163544 Hartrees.
 Initial guess from the checkpoint file:  "checkpoint.chk"
 B after Tr=     0.000000    0.000000    0.000000
         Rot=    1.000000    0.000000    0.000000    0.000000 Ang=   0.00 deg.
 Initial guess <Sx>= 0.0000 <Sy>= 0.0000 <Sz>= 2.5000 <S**2>= 8.7617 S= 2.5020
 SCF Done:  E(UB97D3) =  -3034.64085610     A.U. after   16 cycles
            NFock= 16  Conv=0.55D-08     -V/T= 2.0019
 <Sx>= 0.0000 <Sy>= 0.0000 <Sz>= 2.5000 <S**2>= 8.7599 S= 2.5016
 <L.S>= 0.000000000000E+00
 Annihilation of the first spin contaminant:
 S**2 before annihilation     8.7599,   after     8.7500
 1\1\GINC-HOLY7C04511\SP\UB97D3\Jul-CC-pVDZ\C8H16Cl3Fe1O1(6)\EKWAN\12-F
 eb-2020\0\\#t pop=none jul-cc-pvdz guess=read ub97d3 empiricaldispersi
 on=gd3bj\\theory_abbreviation b97d3_d3bj\\0,6\O,0,0.205167,0.371005,-0
 .86671\C,0,0.988883,1.330479,-0.671015\C,0,3.072895,0.107917,0.534076\
 C,0,2.637129,-0.94822,-0.182825\C,0,3.097012,-1.183569,-1.595746\Fe,0,
 -1.477945,-0.159966,0.014688\Cl,0,-2.067569,-1.991285,-0.998272\C,0,1.
 707802,-2.001004,0.345441\Cl,0,-2.712808,1.599901,-0.394579\Cl,0,-1.08
 4929,-0.404996,2.160501\H,0,3.797432,0.768725,0.057168\H,0,2.228388,-2
 .9673,0.387026\H,0,1.316088,-1.783945,1.338683\H,0,0.859754,-2.141542,
 -0.336613\H,0,3.600482,-2.156419,-1.668249\H,0,2.240944,-1.229111,-2.2
 82179\H,0,3.795758,-0.417342,-1.94344\C,0,2.861658,0.339971,2.006853\H
 ,0,3.66852,-0.13425,2.582188\H,0,2.888689,1.406063,2.253218\H,0,1.9157
 06,-0.06667,2.37298\C,0,0.82436,2.22995,0.513389\H,0,1.711709,2.837321
 ,0.694682\H,0,-0.01454,2.899406,0.270323\H,0,0.545385,1.674699,1.40914
 4\C,0,1.809718,1.815851,-1.827123\H,0,1.220156,2.614074,-2.302116\H,0,
 2.758236,2.249409,-1.507432\H,0,1.965979,1.028166,-2.561943\\Version=E
 S64L-G16RevA.03\HF=-3034.6408561\S2=8.759877\S2-1=0.\S2A=8.750031\RMSD
 =5.512e-09\PG=C01 [X(C8H16Cl3Fe1O1)]\\@


 There ain't no surer way to find out whether you
 like people or hate them than to travel with them.
                                     -- Mark Twain
 Job cpu time:       0 days  0 hours 50 minutes  1.6 seconds.
 Elapsed time:       0 days  0 hours 12 minutes 32.5 seconds.
 File lengths (MBytes):  RWF=    174 Int=      0 D2E=      0 Chk=     13 Scr=      1
 Normal termination of Gaussian 16 at Wed Feb 12 22:41:23 2020.
