 Entering Gaussian System, Link 0=g16
 Input=simple-grid-195-285-b3lyp_d3bj-631gd-gas-singlepoint-DFT-juldz2-gas.gjf
 Output=simple-grid-195-285-b3lyp_d3bj-631gd-gas-singlepoint-DFT-juldz2-gas.out
 Initial command:
 /n/sw/g16_nehalem/g16/l1.exe "/scratch/Gau-382065.inp" -scrdir="/scratch/"
 Entering Link 1 = /n/sw/g16_nehalem/g16/l1.exe PID=    382071.
  
 Copyright (c) 1988,1990,1992,1993,1995,1998,2003,2009,2016,
            Gaussian, Inc.  All Rights Reserved.
  
 This is part of the Gaussian(R) 16 program.  It is based on
 the Gaussian(R) 09 system (copyright 2009, Gaussian, Inc.),
 the Gaussian(R) 03 system (copyright 2003, Gaussian, Inc.),
 the Gaussian(R) 98 system (copyright 1998, Gaussian, Inc.),
 the Gaussian(R) 94 system (copyright 1995, Gaussian, Inc.),
 the Gaussian 92(TM) system (copyright 1992, Gaussian, Inc.),
 the Gaussian 90(TM) system (copyright 1990, Gaussian, Inc.),
 the Gaussian 88(TM) system (copyright 1988, Gaussian, Inc.),
 the Gaussian 86(TM) system (copyright 1986, Carnegie Mellon
 University), and the Gaussian 82(TM) system (copyright 1983,
 Carnegie Mellon University). Gaussian is a federally registered
 trademark of Gaussian, Inc.
  
 This software contains proprietary and confidential information,
 including trade secrets, belonging to Gaussian, Inc.
  
 This software is provided under written license and may be
 used, copied, transmitted, or stored only in accord with that
 written license.
  
 The following legend is applicable only to US Government
 contracts under FAR:
  
                    RESTRICTED RIGHTS LEGEND
  
 Use, reproduction and disclosure by the US Government is
 subject to restrictions as set forth in subparagraphs (a)
 and (c) of the Commercial Computer Software - Restricted
 Rights clause in FAR 52.227-19.
  
 Gaussian, Inc.
 340 Quinnipiac St., Bldg. 40, Wallingford CT 06492
  
  
 ---------------------------------------------------------------
 Warning -- This program may not be used in any manner that
 competes with the business of Gaussian, Inc. or will provide
 assistance to any competitor of Gaussian, Inc.  The licensee
 of this program is prohibited from giving any competitor of
 Gaussian, Inc. access to this program.  By using this program,
 the user acknowledges that Gaussian, Inc. is engaged in the
 business of creating and licensing software in the field of
 computational chemistry and represents and warrants to the
 licensee that it is not a competitor of Gaussian, Inc. and that
 it will not use this program in any manner prohibited above.
 ---------------------------------------------------------------
  

 Cite this work as:
 Gaussian 16, Revision A.03,
 M. J. Frisch, G. W. Trucks, H. B. Schlegel, G. E. Scuseria, 
 M. A. Robb, J. R. Cheeseman, G. Scalmani, V. Barone, 
 G. A. Petersson, H. Nakatsuji, X. Li, M. Caricato, A. V. Marenich, 
 J. Bloino, B. G. Janesko, R. Gomperts, B. Mennucci, H. P. Hratchian, 
 J. V. Ortiz, A. F. Izmaylov, J. L. Sonnenberg, D. Williams-Young, 
 F. Ding, F. Lipparini, F. Egidi, J. Goings, B. Peng, A. Petrone, 
 T. Henderson, D. Ranasinghe, V. G. Zakrzewski, J. Gao, N. Rega, 
 G. Zheng, W. Liang, M. Hada, M. Ehara, K. Toyota, R. Fukuda, 
 J. Hasegawa, M. Ishida, T. Nakajima, Y. Honda, O. Kitao, H. Nakai, 
 T. Vreven, K. Throssell, J. A. Montgomery, Jr., J. E. Peralta, 
 F. Ogliaro, M. J. Bearpark, J. J. Heyd, E. N. Brothers, K. N. Kudin, 
 V. N. Staroverov, T. A. Keith, R. Kobayashi, J. Normand, 
 K. Raghavachari, A. P. Rendell, J. C. Burant, S. S. Iyengar, 
 J. Tomasi, M. Cossi, J. M. Millam, M. Klene, C. Adamo, R. Cammi, 
 J. W. Ochterski, R. L. Martin, K. Morokuma, O. Farkas, 
 J. B. Foresman, and D. J. Fox, Gaussian, Inc., Wallingford CT, 2016.
 
 ******************************************
 Gaussian 16:  ES64L-G16RevA.03 25-Dec-2016
                11-Feb-2020 
 ******************************************
 %chk=checkpoint.chk
 %mem=3GB
 %nprocshared=4
 Will use up to    4 processors via shared memory.
 --------------------------------
 #t pop=none jul-cc-pvdz upbe1pbe
 --------------------------------
 ------------------------
 theory_abbreviation pbe0
 ------------------------
 Symbolic Z-matrix:
 Charge =  0 Multiplicity = 6
 O                    -0.31705  -0.14314  -0.44821 
 C                    -1.18663  -1.09751  -0.24152 
 C                    -2.61507  -0.30375   0.82243 
 C                    -3.01475   0.69235  -0.06495 
 C                    -4.10388   0.47109  -1.05871 
 Fe                    1.51804   0.17462  -0.09388 
 Cl                    1.83937   2.15767  -0.97725 
 C                    -2.28605   1.97657  -0.1219 
 Cl                    2.53664  -1.51052  -1.0717 
 Cl                    1.81034   0.17098   2.0945 
 H                    -3.28248  -1.16452   0.86803 
 H                    -2.74609   2.70263  -0.79492 
 H                    -2.1336    2.41961   0.86704 
 H                    -1.27145   1.73014  -0.4947 
 H                    -4.93311   1.14865  -0.80762 
 H                    -3.78272   0.74894  -2.07031 
 H                    -4.48501  -0.55161  -1.05898 
 C                    -1.95874   0.08248   2.13941 
 H                    -2.58075   0.81402   2.66731 
 H                    -1.85109  -0.78684   2.78958 
 H                    -0.96776   0.51858   1.99596 
 C                    -0.74977  -2.20163   0.7173 
 H                    -1.57293  -2.86534   0.99303 
 H                     0.0028   -2.78586   0.17271 
 H                    -0.26879  -1.80229   1.60943 
 C                    -1.81856  -1.63424  -1.51708 
 H                    -1.05866  -2.25695  -2.00333 
 H                    -2.69746  -2.25509  -1.32295 
 H                    -2.07086  -0.82913  -2.20816 
 
                    Distance matrix (angstroms):
                    1          2          3          4          5
     1  O    0.000000
     2  C    1.307553   0.000000
     3  C    2.630819   1.950001   0.000000
     4  C    2.849996   2.564528   1.392621   0.000000
     5  C    3.884591   3.411548   2.521034   1.490889   0.000000
     6  Fe   1.895809   2.992546   4.260409   4.562349   5.711811
     7  Cl   3.197468   4.504905   5.398106   5.151885   6.178467
     8  C    2.911462   3.266959   2.489956   1.477651   2.539411
     9  Cl   3.225220   3.836991   5.619981   6.056739   6.929896
    10  Cl   3.330142   4.005979   4.629020   5.311920   6.709012
    11  H    3.401380   2.372374   1.090145   2.095249   2.657482
    12  H    3.757508   4.144788   3.416332   2.155520   2.625450
    13  H    3.405494   3.807332   2.765953   2.151377   3.374502
    14  H    2.102905   2.840225   2.770712   2.073826   3.150552
    15  H    4.806861   4.404757   3.184315   2.107111   1.099897
    16  H    3.929106   3.673357   3.292337   2.148130   1.097118
    17  H    4.232226   3.441740   2.664170   2.167307   1.091403
    18  C    3.072749   2.767193   1.521312   2.519184   3.870485
    19  H    3.968240   3.749510   2.157355   2.769185   4.039900
    20  H    3.640175   3.118589   2.164882   3.419122   4.633224
    21  H    2.614428   2.768750   2.183360   2.909928   4.378190
    22  C    2.404793   1.526194   2.663149   3.757282   4.641951
    23  H    3.326368   2.190559   2.770718   3.981869   4.663374
    24  H    2.733462   2.106384   3.665552   4.610860   5.384137
    25  H    2.643664   2.182922   2.893104   4.070265   5.195686
    26  C    2.370739   1.521342   2.806769   2.992089   3.140889
    27  H    2.727014   2.112977   3.771253   4.035097   4.196170
    28  H    3.300274   2.189082   2.901230   3.220348   3.078938
    29  H    2.577561   2.172912   3.123563   2.792701   2.673005
                    6          7          8          9         10
     6  Fe   0.000000
     7  Cl   2.194562   0.000000
     8  C    4.209387   4.217056   0.000000
     9  Cl   2.198493   3.735064   6.026632   0.000000
    10  Cl   2.207817   3.658344   4.995301   3.657836   0.000000
    11  H    5.075773   6.377718   3.440817   6.143644   5.405973
    12  H    5.006509   4.621331   1.091676   6.762730   5.959790
    13  H    4.392926   4.387997   1.094311   6.404353   4.702943
    14  H    3.218937   3.176928   1.108658   5.033523   4.316523
    15  H    6.563197   6.849338   2.857025   7.933358   7.406237
    16  H    5.686317   5.898070   2.746523   6.785038   6.997287
    17  H    6.123350   6.880745   3.479256   7.086836   7.077995
    18  C    4.133284   5.333447   2.967869   5.749546   3.770383
    19  H    4.983279   5.884363   3.036126   6.750656   4.474738
    20  H    4.537595   6.039759   4.037612   5.889431   3.847939
    21  H    3.265716   4.405288   2.889454   5.080214   2.801493
    22  C    3.383419   5.345902   4.530099   3.805082   3.752347
    23  H    4.469539   6.384074   5.019528   4.794498   4.677494
    24  H    3.336385   5.397585   5.292107   3.097646   3.962749
    25  H    3.162619   5.178469   4.620243   3.891527   2.907207
    26  C    4.053444   5.296273   3.899110   4.379667   5.428747
    27  H    4.024670   5.379623   4.792599   3.788316   5.560422
    28  H    5.018417   6.338356   4.417997   5.292761   6.155078
    29  H    4.284607   5.072076   3.502958   4.794254   5.880201
                   11         12         13         14         15
    11  H    0.000000
    12  H    4.243574   0.000000
    13  H    3.763756   1.793695   0.000000
    14  H    3.778919   1.791771   1.752993   0.000000
    15  H    3.298963   2.682923   3.501013   3.720726   0.000000
    16  H    3.541942   2.553064   3.760149   3.122783   1.754290
    17  H    2.352679   3.699142   4.250507   3.981422   1.776196
    18  C    2.218939   4.011911   2.666777   3.182085   4.320724
    19  H    2.764860   3.947307   2.453334   3.542856   4.209605
    20  H    2.425667   5.081932   3.749303   4.178230   5.117112
    21  H    3.076196   3.965038   2.499508   2.786296   4.897051
    22  C    2.740972   5.506716   4.826309   4.147275   5.572269
    23  H    2.414738   5.964506   5.316094   4.839688   5.535819
    24  H    3.728975   6.214200   5.669498   4.739556   6.387856
    25  H    3.168399   5.675584   4.674731   4.232106   6.025459
    26  C    2.837678   4.493365   4.713489   3.558603   4.236540
    27  H    3.792553   5.376354   5.591489   4.268273   5.295209
    28  H    2.516336   4.985998   5.192952   4.312946   4.104774
    29  H    3.323160   3.863485   4.473816   3.181952   3.750416
                   16         17         18         19         20
    16  H    0.000000
    17  H    1.790924   0.000000
    18  C    4.636034   4.124783   0.000000
    19  H    4.888149   4.401865   1.095780   0.000000
    20  H    5.450531   4.669504   1.090877   1.763544   0.000000
    21  H    4.950919   4.780067   1.092159   1.771932   1.764723
    22  C    5.067094   4.453064   2.949771   4.031027   2.740236
    23  H    5.227830   4.247857   3.186319   4.166122   2.761361
    24  H    5.644124   5.162303   3.992856   5.084969   3.779023
    25  H    5.691833   5.144039   2.586343   3.648202   2.219821
    26  C    3.137443   2.914084   4.041870   4.907552   4.389359
    27  H    4.057140   3.942060   4.842045   5.793320   5.075549
    28  H    3.280325   2.483315   4.242385   5.035395   4.448028
    29  H    2.332335   2.688075   4.443527   5.170117   5.002743
                   21         22         23         24         25
    21  H    0.000000
    22  C    3.013645   0.000000
    23  H    3.580924   1.092760   0.000000
    24  H    3.896868   1.097390   1.778248   0.000000
    25  H    2.454472   1.089358   1.791869   1.762192   0.000000
    26  C    4.207135   2.541007   2.806525   2.738427   3.493579
    27  H    4.868903   2.738674   3.100451   2.478229   3.725944
    28  H    4.658353   2.821164   2.645886   3.132109   3.834355
    29  H    4.550575   3.491038   3.826443   3.714484   4.332255
                   26         27         28         29
    26  C    0.000000
    27  H    1.096201   0.000000
    28  H    1.093432   1.774424   0.000000
    29  H    1.090619   1.762151   1.791534   0.000000
 Framework group  C1[X(C8H16Cl3FeO)]
 Deg. of freedom    81
                         Standard orientation:                         
 ---------------------------------------------------------------------
 Center     Atomic      Atomic             Coordinates (Angstroms)
 Number     Number       Type             X           Y           Z
 ---------------------------------------------------------------------
      1          8           0       -0.317054   -0.143143   -0.448206
      2          6           0       -1.186627   -1.097511   -0.241520
      3          6           0       -2.615074   -0.303752    0.822430
      4          6           0       -3.014745    0.692352   -0.064945
      5          6           0       -4.103880    0.471085   -1.058713
      6         26           0        1.518040    0.174617   -0.093876
      7         17           0        1.839373    2.157668   -0.977254
      8          6           0       -2.286052    1.976570   -0.121898
      9         17           0        2.536642   -1.510520   -1.071697
     10         17           0        1.810340    0.170975    2.094503
     11          1           0       -3.282475   -1.164515    0.868025
     12          1           0       -2.746090    2.702633   -0.794917
     13          1           0       -2.133598    2.419608    0.867037
     14          1           0       -1.271451    1.730136   -0.494696
     15          1           0       -4.933112    1.148655   -0.807624
     16          1           0       -3.782722    0.748941   -2.070306
     17          1           0       -4.485008   -0.551608   -1.058983
     18          6           0       -1.958737    0.082476    2.139411
     19          1           0       -2.580749    0.814019    2.667312
     20          1           0       -1.851094   -0.786838    2.789579
     21          1           0       -0.967756    0.518584    1.995958
     22          6           0       -0.749769   -2.201632    0.717302
     23          1           0       -1.572931   -2.865336    0.993030
     24          1           0        0.002799   -2.785863    0.172711
     25          1           0       -0.268787   -1.802293    1.609426
     26          6           0       -1.818563   -1.634244   -1.517081
     27          1           0       -1.058664   -2.256954   -2.003334
     28          1           0       -2.697459   -2.255088   -1.322946
     29          1           0       -2.070856   -0.829127   -2.208156
 ---------------------------------------------------------------------
 Rotational constants (GHZ):           0.6001992           0.3081378           0.2947133
   427 basis functions,  1056 primitive gaussians,   461 cartesian basis functions
    77 alpha electrons       72 beta electrons
       nuclear repulsion energy      1627.7750441630 Hartrees.
 NAtoms=   29 NActive=   29 NUniq=   29 SFac= 1.00D+00 NAtFMM=   60 NAOKFM=F Big=F
 ExpMin= 1.40D-02 ExpMax= 4.32D+06 ExpMxC= 4.91D+03 IAcc=3 IRadAn=         5 AccDes= 0.00D+00
 Harris functional with IExCor= 1009 and IRadAn=       5 diagonalized for initial guess.
 HarFok:  IExCor= 1009 AccDes= 0.00D+00 IRadAn=         5 IDoV= 1 UseB2=F ITyADJ=14
 ICtDFT=  3500011 ScaDFX=  1.000000  1.000000  1.000000  1.000000
 FoFCou: FMM=F IPFlag=           0 FMFlag=      100000 FMFlg1=           0
         NFxFlg=           0 DoJE=T BraDBF=F KetDBF=T FulRan=T
         wScrn=  0.000000 ICntrl=       500 IOpCl=  0 I1Cent=   200000004 NGrid=           0
         NMat0=    1 NMatS0=      1 NMatT0=    0 NMatD0=    1 NMtDS0=    0 NMtDT0=    0
 Petite list used in FoFCou.
 Initial guess <Sx>= 0.0000 <Sy>= 0.0000 <Sz>= 2.5000 <S**2>= 8.7500 S= 2.5000
 EnCoef did   100 forward-backward iterations
 Restarting incremental Fock formation.
 SCF Done:  E(UPBE1PBE) =  -3033.11523419     A.U. after   21 cycles
            NFock= 21  Conv=0.67D-08     -V/T= 2.0021
 <Sx>= 0.0000 <Sy>= 0.0000 <Sz>= 2.5000 <S**2>= 8.7628 S= 2.5021
 <L.S>= 0.000000000000E+00
 Annihilation of the first spin contaminant:
 S**2 before annihilation     8.7628,   after     8.7501
 1\1\GINC-HOLY7C06108\SP\UPBE1PBE\Jul-CC-pVDZ\C8H16Cl3Fe1O1(6)\EKWAN\11
 -Feb-2020\0\\#t pop=none jul-cc-pvdz upbe1pbe\\theory_abbreviation pbe
 0\\0,6\O,0,-0.317054,-0.143143,-0.448206\C,0,-1.186627,-1.097511,-0.24
 152\C,0,-2.615074,-0.303752,0.82243\C,0,-3.014745,0.692352,-0.064945\C
 ,0,-4.10388,0.471085,-1.058713\Fe,0,1.51804,0.174617,-0.093876\Cl,0,1.
 839373,2.157668,-0.977254\C,0,-2.286052,1.97657,-0.121898\Cl,0,2.53664
 2,-1.51052,-1.071697\Cl,0,1.81034,0.170975,2.094503\H,0,-3.282475,-1.1
 64515,0.868025\H,0,-2.74609,2.702633,-0.794917\H,0,-2.133598,2.419608,
 0.867037\H,0,-1.271451,1.730136,-0.494696\H,0,-4.933112,1.148655,-0.80
 7624\H,0,-3.782722,0.748941,-2.070306\H,0,-4.485008,-0.551608,-1.05898
 3\C,0,-1.958737,0.082476,2.139411\H,0,-2.580749,0.814019,2.667312\H,0,
 -1.851094,-0.786838,2.789579\H,0,-0.967756,0.518584,1.995958\C,0,-0.74
 9769,-2.201632,0.717302\H,0,-1.572931,-2.865336,0.99303\H,0,0.002799,-
 2.785863,0.172711\H,0,-0.268787,-1.802293,1.609426\C,0,-1.818563,-1.63
 4244,-1.517081\H,0,-1.058664,-2.256954,-2.003334\H,0,-2.697459,-2.2550
 88,-1.322946\H,0,-2.070856,-0.829127,-2.208156\\Version=ES64L-G16RevA.
 03\HF=-3033.1152342\S2=8.762824\S2-1=0.\S2A=8.750051\RMSD=6.736e-09\PG
 =C01 [X(C8H16Cl3Fe1O1)]\\@


 ... FOR AFTERWARDS A MAN FINDS PLEASURE IN HIS PAINS,
 WHEN HE HAS SUFFERED LONG AND WANDERED FAR.

                                    -- HOMER
 Job cpu time:       0 days  1 hours 29 minutes 30.1 seconds.
 Elapsed time:       0 days  0 hours 22 minutes 27.6 seconds.
 File lengths (MBytes):  RWF=    173 Int=      0 D2E=      0 Chk=     13 Scr=      1
 Normal termination of Gaussian 16 at Tue Feb 11 13:58:42 2020.
 Initial command:
 /n/sw/g16_nehalem/g16/l1.exe "/scratch/Gau-382065.inp" -scrdir="/scratch/"
 Entering Link 1 = /n/sw/g16_nehalem/g16/l1.exe PID=    384629.
  
 Copyright (c) 1988,1990,1992,1993,1995,1998,2003,2009,2016,
            Gaussian, Inc.  All Rights Reserved.
  
 This is part of the Gaussian(R) 16 program.  It is based on
 the Gaussian(R) 09 system (copyright 2009, Gaussian, Inc.),
 the Gaussian(R) 03 system (copyright 2003, Gaussian, Inc.),
 the Gaussian(R) 98 system (copyright 1998, Gaussian, Inc.),
 the Gaussian(R) 94 system (copyright 1995, Gaussian, Inc.),
 the Gaussian 92(TM) system (copyright 1992, Gaussian, Inc.),
 the Gaussian 90(TM) system (copyright 1990, Gaussian, Inc.),
 the Gaussian 88(TM) system (copyright 1988, Gaussian, Inc.),
 the Gaussian 86(TM) system (copyright 1986, Carnegie Mellon
 University), and the Gaussian 82(TM) system (copyright 1983,
 Carnegie Mellon University). Gaussian is a federally registered
 trademark of Gaussian, Inc.
  
 This software contains proprietary and confidential information,
 including trade secrets, belonging to Gaussian, Inc.
  
 This software is provided under written license and may be
 used, copied, transmitted, or stored only in accord with that
 written license.
  
 The following legend is applicable only to US Government
 contracts under FAR:
  
                    RESTRICTED RIGHTS LEGEND
  
 Use, reproduction and disclosure by the US Government is
 subject to restrictions as set forth in subparagraphs (a)
 and (c) of the Commercial Computer Software - Restricted
 Rights clause in FAR 52.227-19.
  
 Gaussian, Inc.
 340 Quinnipiac St., Bldg. 40, Wallingford CT 06492
  
  
 ---------------------------------------------------------------
 Warning -- This program may not be used in any manner that
 competes with the business of Gaussian, Inc. or will provide
 assistance to any competitor of Gaussian, Inc.  The licensee
 of this program is prohibited from giving any competitor of
 Gaussian, Inc. access to this program.  By using this program,
 the user acknowledges that Gaussian, Inc. is engaged in the
 business of creating and licensing software in the field of
 computational chemistry and represents and warrants to the
 licensee that it is not a competitor of Gaussian, Inc. and that
 it will not use this program in any manner prohibited above.
 ---------------------------------------------------------------
  

 Cite this work as:
 Gaussian 16, Revision A.03,
 M. J. Frisch, G. W. Trucks, H. B. Schlegel, G. E. Scuseria, 
 M. A. Robb, J. R. Cheeseman, G. Scalmani, V. Barone, 
 G. A. Petersson, H. Nakatsuji, X. Li, M. Caricato, A. V. Marenich, 
 J. Bloino, B. G. Janesko, R. Gomperts, B. Mennucci, H. P. Hratchian, 
 J. V. Ortiz, A. F. Izmaylov, J. L. Sonnenberg, D. Williams-Young, 
 F. Ding, F. Lipparini, F. Egidi, J. Goings, B. Peng, A. Petrone, 
 T. Henderson, D. Ranasinghe, V. G. Zakrzewski, J. Gao, N. Rega, 
 G. Zheng, W. Liang, M. Hada, M. Ehara, K. Toyota, R. Fukuda, 
 J. Hasegawa, M. Ishida, T. Nakajima, Y. Honda, O. Kitao, H. Nakai, 
 T. Vreven, K. Throssell, J. A. Montgomery, Jr., J. E. Peralta, 
 F. Ogliaro, M. J. Bearpark, J. J. Heyd, E. N. Brothers, K. N. Kudin, 
 V. N. Staroverov, T. A. Keith, R. Kobayashi, J. Normand, 
 K. Raghavachari, A. P. Rendell, J. C. Burant, S. S. Iyengar, 
 J. Tomasi, M. Cossi, J. M. Millam, M. Klene, C. Adamo, R. Cammi, 
 J. W. Ochterski, R. L. Martin, K. Morokuma, O. Farkas, 
 J. B. Foresman, and D. J. Fox, Gaussian, Inc., Wallingford CT, 2016.
 
 ******************************************
 Gaussian 16:  ES64L-G16RevA.03 25-Dec-2016
                11-Feb-2020 
 ******************************************
 %chk=checkpoint.chk
 %mem=3GB
 %nprocshared=4
 Will use up to    4 processors via shared memory.
 ---------------------------------------------------------------------
 #t pop=none jul-cc-pvdz guess=read upbe1pbe empiricaldispersion=gd3bj
 ---------------------------------------------------------------------
 -----------------------------
 theory_abbreviation pbe0_d3bj
 -----------------------------
 Symbolic Z-matrix:
 Charge =  0 Multiplicity = 6
 O                    -0.31705  -0.14314  -0.44821 
 C                    -1.18663  -1.09751  -0.24152 
 C                    -2.61507  -0.30375   0.82243 
 C                    -3.01475   0.69235  -0.06495 
 C                    -4.10388   0.47109  -1.05871 
 Fe                    1.51804   0.17462  -0.09388 
 Cl                    1.83937   2.15767  -0.97725 
 C                    -2.28605   1.97657  -0.1219 
 Cl                    2.53664  -1.51052  -1.0717 
 Cl                    1.81034   0.17098   2.0945 
 H                    -3.28248  -1.16452   0.86803 
 H                    -2.74609   2.70263  -0.79492 
 H                    -2.1336    2.41961   0.86704 
 H                    -1.27145   1.73014  -0.4947 
 H                    -4.93311   1.14865  -0.80762 
 H                    -3.78272   0.74894  -2.07031 
 H                    -4.48501  -0.55161  -1.05898 
 C                    -1.95874   0.08248   2.13941 
 H                    -2.58075   0.81402   2.66731 
 H                    -1.85109  -0.78684   2.78958 
 H                    -0.96776   0.51858   1.99596 
 C                    -0.74977  -2.20163   0.7173 
 H                    -1.57293  -2.86534   0.99303 
 H                     0.0028   -2.78586   0.17271 
 H                    -0.26879  -1.80229   1.60943 
 C                    -1.81856  -1.63424  -1.51708 
 H                    -1.05866  -2.25695  -2.00333 
 H                    -2.69746  -2.25509  -1.32295 
 H                    -2.07086  -0.82913  -2.20816 
 
                    Distance matrix (angstroms):
                    1          2          3          4          5
     1  O    0.000000
     2  C    1.307553   0.000000
     3  C    2.630819   1.950001   0.000000
     4  C    2.849996   2.564528   1.392621   0.000000
     5  C    3.884591   3.411548   2.521034   1.490889   0.000000
     6  Fe   1.895809   2.992546   4.260409   4.562349   5.711811
     7  Cl   3.197468   4.504905   5.398106   5.151885   6.178467
     8  C    2.911462   3.266959   2.489956   1.477651   2.539411
     9  Cl   3.225220   3.836991   5.619981   6.056739   6.929896
    10  Cl   3.330142   4.005979   4.629020   5.311920   6.709012
    11  H    3.401380   2.372374   1.090145   2.095249   2.657482
    12  H    3.757508   4.144788   3.416332   2.155520   2.625450
    13  H    3.405494   3.807332   2.765953   2.151377   3.374502
    14  H    2.102905   2.840225   2.770712   2.073826   3.150552
    15  H    4.806861   4.404757   3.184315   2.107111   1.099897
    16  H    3.929106   3.673357   3.292337   2.148130   1.097118
    17  H    4.232226   3.441740   2.664170   2.167307   1.091403
    18  C    3.072749   2.767193   1.521312   2.519184   3.870485
    19  H    3.968240   3.749510   2.157355   2.769185   4.039900
    20  H    3.640175   3.118589   2.164882   3.419122   4.633224
    21  H    2.614428   2.768750   2.183360   2.909928   4.378190
    22  C    2.404793   1.526194   2.663149   3.757282   4.641951
    23  H    3.326368   2.190559   2.770718   3.981869   4.663374
    24  H    2.733462   2.106384   3.665552   4.610860   5.384137
    25  H    2.643664   2.182922   2.893104   4.070265   5.195686
    26  C    2.370739   1.521342   2.806769   2.992089   3.140889
    27  H    2.727014   2.112977   3.771253   4.035097   4.196170
    28  H    3.300274   2.189082   2.901230   3.220348   3.078938
    29  H    2.577561   2.172912   3.123563   2.792701   2.673005
                    6          7          8          9         10
     6  Fe   0.000000
     7  Cl   2.194562   0.000000
     8  C    4.209387   4.217056   0.000000
     9  Cl   2.198493   3.735064   6.026632   0.000000
    10  Cl   2.207817   3.658344   4.995301   3.657836   0.000000
    11  H    5.075773   6.377718   3.440817   6.143644   5.405973
    12  H    5.006509   4.621331   1.091676   6.762730   5.959790
    13  H    4.392926   4.387997   1.094311   6.404353   4.702943
    14  H    3.218937   3.176928   1.108658   5.033523   4.316523
    15  H    6.563197   6.849338   2.857025   7.933358   7.406237
    16  H    5.686317   5.898070   2.746523   6.785038   6.997287
    17  H    6.123350   6.880745   3.479256   7.086836   7.077995
    18  C    4.133284   5.333447   2.967869   5.749546   3.770383
    19  H    4.983279   5.884363   3.036126   6.750656   4.474738
    20  H    4.537595   6.039759   4.037612   5.889431   3.847939
    21  H    3.265716   4.405288   2.889454   5.080214   2.801493
    22  C    3.383419   5.345902   4.530099   3.805082   3.752347
    23  H    4.469539   6.384074   5.019528   4.794498   4.677494
    24  H    3.336385   5.397585   5.292107   3.097646   3.962749
    25  H    3.162619   5.178469   4.620243   3.891527   2.907207
    26  C    4.053444   5.296273   3.899110   4.379667   5.428747
    27  H    4.024670   5.379623   4.792599   3.788316   5.560422
    28  H    5.018417   6.338356   4.417997   5.292761   6.155078
    29  H    4.284607   5.072076   3.502958   4.794254   5.880201
                   11         12         13         14         15
    11  H    0.000000
    12  H    4.243574   0.000000
    13  H    3.763756   1.793695   0.000000
    14  H    3.778919   1.791771   1.752993   0.000000
    15  H    3.298963   2.682923   3.501013   3.720726   0.000000
    16  H    3.541942   2.553064   3.760149   3.122783   1.754290
    17  H    2.352679   3.699142   4.250507   3.981422   1.776196
    18  C    2.218939   4.011911   2.666777   3.182085   4.320724
    19  H    2.764860   3.947307   2.453334   3.542856   4.209605
    20  H    2.425667   5.081932   3.749303   4.178230   5.117112
    21  H    3.076196   3.965038   2.499508   2.786296   4.897051
    22  C    2.740972   5.506716   4.826309   4.147275   5.572269
    23  H    2.414738   5.964506   5.316094   4.839688   5.535819
    24  H    3.728975   6.214200   5.669498   4.739556   6.387856
    25  H    3.168399   5.675584   4.674731   4.232106   6.025459
    26  C    2.837678   4.493365   4.713489   3.558603   4.236540
    27  H    3.792553   5.376354   5.591489   4.268273   5.295209
    28  H    2.516336   4.985998   5.192952   4.312946   4.104774
    29  H    3.323160   3.863485   4.473816   3.181952   3.750416
                   16         17         18         19         20
    16  H    0.000000
    17  H    1.790924   0.000000
    18  C    4.636034   4.124783   0.000000
    19  H    4.888149   4.401865   1.095780   0.000000
    20  H    5.450531   4.669504   1.090877   1.763544   0.000000
    21  H    4.950919   4.780067   1.092159   1.771932   1.764723
    22  C    5.067094   4.453064   2.949771   4.031027   2.740236
    23  H    5.227830   4.247857   3.186319   4.166122   2.761361
    24  H    5.644124   5.162303   3.992856   5.084969   3.779023
    25  H    5.691833   5.144039   2.586343   3.648202   2.219821
    26  C    3.137443   2.914084   4.041870   4.907552   4.389359
    27  H    4.057140   3.942060   4.842045   5.793320   5.075549
    28  H    3.280325   2.483315   4.242385   5.035395   4.448028
    29  H    2.332335   2.688075   4.443527   5.170117   5.002743
                   21         22         23         24         25
    21  H    0.000000
    22  C    3.013645   0.000000
    23  H    3.580924   1.092760   0.000000
    24  H    3.896868   1.097390   1.778248   0.000000
    25  H    2.454472   1.089358   1.791869   1.762192   0.000000
    26  C    4.207135   2.541007   2.806525   2.738427   3.493579
    27  H    4.868903   2.738674   3.100451   2.478229   3.725944
    28  H    4.658353   2.821164   2.645886   3.132109   3.834355
    29  H    4.550575   3.491038   3.826443   3.714484   4.332255
                   26         27         28         29
    26  C    0.000000
    27  H    1.096201   0.000000
    28  H    1.093432   1.774424   0.000000
    29  H    1.090619   1.762151   1.791534   0.000000
 Framework group  C1[X(C8H16Cl3FeO)]
 Deg. of freedom    81
                         Standard orientation:                         
 ---------------------------------------------------------------------
 Center     Atomic      Atomic             Coordinates (Angstroms)
 Number     Number       Type             X           Y           Z
 ---------------------------------------------------------------------
      1          8           0       -0.317054   -0.143143   -0.448206
      2          6           0       -1.186627   -1.097511   -0.241520
      3          6           0       -2.615074   -0.303752    0.822430
      4          6           0       -3.014745    0.692352   -0.064945
      5          6           0       -4.103880    0.471085   -1.058713
      6         26           0        1.518040    0.174617   -0.093876
      7         17           0        1.839373    2.157668   -0.977254
      8          6           0       -2.286052    1.976570   -0.121898
      9         17           0        2.536642   -1.510520   -1.071697
     10         17           0        1.810340    0.170975    2.094503
     11          1           0       -3.282475   -1.164515    0.868025
     12          1           0       -2.746090    2.702633   -0.794917
     13          1           0       -2.133598    2.419608    0.867037
     14          1           0       -1.271451    1.730136   -0.494696
     15          1           0       -4.933112    1.148655   -0.807624
     16          1           0       -3.782722    0.748941   -2.070306
     17          1           0       -4.485008   -0.551608   -1.058983
     18          6           0       -1.958737    0.082476    2.139411
     19          1           0       -2.580749    0.814019    2.667312
     20          1           0       -1.851094   -0.786838    2.789579
     21          1           0       -0.967756    0.518584    1.995958
     22          6           0       -0.749769   -2.201632    0.717302
     23          1           0       -1.572931   -2.865336    0.993030
     24          1           0        0.002799   -2.785863    0.172711
     25          1           0       -0.268787   -1.802293    1.609426
     26          6           0       -1.818563   -1.634244   -1.517081
     27          1           0       -1.058664   -2.256954   -2.003334
     28          1           0       -2.697459   -2.255088   -1.322946
     29          1           0       -2.070856   -0.829127   -2.208156
 ---------------------------------------------------------------------
 Rotational constants (GHZ):           0.6001992           0.3081378           0.2947133
   427 basis functions,  1056 primitive gaussians,   461 cartesian basis functions
    77 alpha electrons       72 beta electrons
       nuclear repulsion energy      1627.7750441630 Hartrees.
 NAtoms=   29 NActive=   29 NUniq=   29 SFac= 1.00D+00 NAtFMM=   60 NAOKFM=F Big=F
 Nuclear repulsion after empirical dispersion term =     1627.7391230171 Hartrees.
 Initial guess from the checkpoint file:  "checkpoint.chk"
 B after Tr=     0.000000    0.000000    0.000000
         Rot=    1.000000    0.000000    0.000000    0.000000 Ang=   0.00 deg.
 Initial guess <Sx>= 0.0000 <Sy>= 0.0000 <Sz>= 2.5000 <S**2>= 8.7628 S= 2.5021
 SCF Done:  E(UPBE1PBE) =  -3033.15115533     A.U. after    1 cycles
            NFock=  1  Conv=0.27D-08     -V/T= 2.0021
 <Sx>= 0.0000 <Sy>= 0.0000 <Sz>= 2.5000 <S**2>= 8.7628 S= 2.5021
 <L.S>= 0.000000000000E+00
 Annihilation of the first spin contaminant:
 S**2 before annihilation     8.7628,   after     8.7501
 1\1\GINC-HOLY7C06108\SP\UPBE1PBE\Jul-CC-pVDZ\C8H16Cl3Fe1O1(6)\EKWAN\11
 -Feb-2020\0\\#t pop=none jul-cc-pvdz guess=read upbe1pbe empiricaldisp
 ersion=gd3bj\\theory_abbreviation pbe0_d3bj\\0,6\O,0,-0.317054,-0.1431
 43,-0.448206\C,0,-1.186627,-1.097511,-0.24152\C,0,-2.615074,-0.303752,
 0.82243\C,0,-3.014745,0.692352,-0.064945\C,0,-4.10388,0.471085,-1.0587
 13\Fe,0,1.51804,0.174617,-0.093876\Cl,0,1.839373,2.157668,-0.977254\C,
 0,-2.286052,1.97657,-0.121898\Cl,0,2.536642,-1.51052,-1.071697\Cl,0,1.
 81034,0.170975,2.094503\H,0,-3.282475,-1.164515,0.868025\H,0,-2.74609,
 2.702633,-0.794917\H,0,-2.133598,2.419608,0.867037\H,0,-1.271451,1.730
 136,-0.494696\H,0,-4.933112,1.148655,-0.807624\H,0,-3.782722,0.748941,
 -2.070306\H,0,-4.485008,-0.551608,-1.058983\C,0,-1.958737,0.082476,2.1
 39411\H,0,-2.580749,0.814019,2.667312\H,0,-1.851094,-0.786838,2.789579
 \H,0,-0.967756,0.518584,1.995958\C,0,-0.749769,-2.201632,0.717302\H,0,
 -1.572931,-2.865336,0.99303\H,0,0.002799,-2.785863,0.172711\H,0,-0.268
 787,-1.802293,1.609426\C,0,-1.818563,-1.634244,-1.517081\H,0,-1.058664
 ,-2.256954,-2.003334\H,0,-2.697459,-2.255088,-1.322946\H,0,-2.070856,-
 0.829127,-2.208156\\Version=ES64L-G16RevA.03\HF=-3033.1511553\S2=8.762
 824\S2-1=0.\S2A=8.750051\RMSD=2.724e-09\PG=C01 [X(C8H16Cl3Fe1O1)]\\@


 THE ... SCIENTISTS WERE WRONG ... THE MOST PERSISTENT PRINCIPLES 
 OF THE UNIVERSE WERE ACCIDENT AND ERROR.

                          -- FRANK HERBERT IN DUNE
 Job cpu time:       0 days  0 hours  4 minutes 32.9 seconds.
 Elapsed time:       0 days  0 hours  1 minutes  8.8 seconds.
 File lengths (MBytes):  RWF=    170 Int=      0 D2E=      0 Chk=     13 Scr=      1
 Normal termination of Gaussian 16 at Tue Feb 11 13:59:52 2020.
 Initial command:
 /n/sw/g16_nehalem/g16/l1.exe "/scratch/Gau-382065.inp" -scrdir="/scratch/"
 Entering Link 1 = /n/sw/g16_nehalem/g16/l1.exe PID=    384966.
  
 Copyright (c) 1988,1990,1992,1993,1995,1998,2003,2009,2016,
            Gaussian, Inc.  All Rights Reserved.
  
 This is part of the Gaussian(R) 16 program.  It is based on
 the Gaussian(R) 09 system (copyright 2009, Gaussian, Inc.),
 the Gaussian(R) 03 system (copyright 2003, Gaussian, Inc.),
 the Gaussian(R) 98 system (copyright 1998, Gaussian, Inc.),
 the Gaussian(R) 94 system (copyright 1995, Gaussian, Inc.),
 the Gaussian 92(TM) system (copyright 1992, Gaussian, Inc.),
 the Gaussian 90(TM) system (copyright 1990, Gaussian, Inc.),
 the Gaussian 88(TM) system (copyright 1988, Gaussian, Inc.),
 the Gaussian 86(TM) system (copyright 1986, Carnegie Mellon
 University), and the Gaussian 82(TM) system (copyright 1983,
 Carnegie Mellon University). Gaussian is a federally registered
 trademark of Gaussian, Inc.
  
 This software contains proprietary and confidential information,
 including trade secrets, belonging to Gaussian, Inc.
  
 This software is provided under written license and may be
 used, copied, transmitted, or stored only in accord with that
 written license.
  
 The following legend is applicable only to US Government
 contracts under FAR:
  
                    RESTRICTED RIGHTS LEGEND
  
 Use, reproduction and disclosure by the US Government is
 subject to restrictions as set forth in subparagraphs (a)
 and (c) of the Commercial Computer Software - Restricted
 Rights clause in FAR 52.227-19.
  
 Gaussian, Inc.
 340 Quinnipiac St., Bldg. 40, Wallingford CT 06492
  
  
 ---------------------------------------------------------------
 Warning -- This program may not be used in any manner that
 competes with the business of Gaussian, Inc. or will provide
 assistance to any competitor of Gaussian, Inc.  The licensee
 of this program is prohibited from giving any competitor of
 Gaussian, Inc. access to this program.  By using this program,
 the user acknowledges that Gaussian, Inc. is engaged in the
 business of creating and licensing software in the field of
 computational chemistry and represents and warrants to the
 licensee that it is not a competitor of Gaussian, Inc. and that
 it will not use this program in any manner prohibited above.
 ---------------------------------------------------------------
  

 Cite this work as:
 Gaussian 16, Revision A.03,
 M. J. Frisch, G. W. Trucks, H. B. Schlegel, G. E. Scuseria, 
 M. A. Robb, J. R. Cheeseman, G. Scalmani, V. Barone, 
 G. A. Petersson, H. Nakatsuji, X. Li, M. Caricato, A. V. Marenich, 
 J. Bloino, B. G. Janesko, R. Gomperts, B. Mennucci, H. P. Hratchian, 
 J. V. Ortiz, A. F. Izmaylov, J. L. Sonnenberg, D. Williams-Young, 
 F. Ding, F. Lipparini, F. Egidi, J. Goings, B. Peng, A. Petrone, 
 T. Henderson, D. Ranasinghe, V. G. Zakrzewski, J. Gao, N. Rega, 
 G. Zheng, W. Liang, M. Hada, M. Ehara, K. Toyota, R. Fukuda, 
 J. Hasegawa, M. Ishida, T. Nakajima, Y. Honda, O. Kitao, H. Nakai, 
 T. Vreven, K. Throssell, J. A. Montgomery, Jr., J. E. Peralta, 
 F. Ogliaro, M. J. Bearpark, J. J. Heyd, E. N. Brothers, K. N. Kudin, 
 V. N. Staroverov, T. A. Keith, R. Kobayashi, J. Normand, 
 K. Raghavachari, A. P. Rendell, J. C. Burant, S. S. Iyengar, 
 J. Tomasi, M. Cossi, J. M. Millam, M. Klene, C. Adamo, R. Cammi, 
 J. W. Ochterski, R. L. Martin, K. Morokuma, O. Farkas, 
 J. B. Foresman, and D. J. Fox, Gaussian, Inc., Wallingford CT, 2016.
 
 ******************************************
 Gaussian 16:  ES64L-G16RevA.03 25-Dec-2016
                11-Feb-2020 
 ******************************************
 %chk=checkpoint.chk
 %mem=3GB
 %nprocshared=4
 Will use up to    4 processors via shared memory.
 -----------------------------------------
 #t pop=none jul-cc-pvdz guess=read ub3lyp
 -----------------------------------------
 -------------------------
 theory_abbreviation b3lyp
 -------------------------
 Symbolic Z-matrix:
 Charge =  0 Multiplicity = 6
 O                    -0.31705  -0.14314  -0.44821 
 C                    -1.18663  -1.09751  -0.24152 
 C                    -2.61507  -0.30375   0.82243 
 C                    -3.01475   0.69235  -0.06495 
 C                    -4.10388   0.47109  -1.05871 
 Fe                    1.51804   0.17462  -0.09388 
 Cl                    1.83937   2.15767  -0.97725 
 C                    -2.28605   1.97657  -0.1219 
 Cl                    2.53664  -1.51052  -1.0717 
 Cl                    1.81034   0.17098   2.0945 
 H                    -3.28248  -1.16452   0.86803 
 H                    -2.74609   2.70263  -0.79492 
 H                    -2.1336    2.41961   0.86704 
 H                    -1.27145   1.73014  -0.4947 
 H                    -4.93311   1.14865  -0.80762 
 H                    -3.78272   0.74894  -2.07031 
 H                    -4.48501  -0.55161  -1.05898 
 C                    -1.95874   0.08248   2.13941 
 H                    -2.58075   0.81402   2.66731 
 H                    -1.85109  -0.78684   2.78958 
 H                    -0.96776   0.51858   1.99596 
 C                    -0.74977  -2.20163   0.7173 
 H                    -1.57293  -2.86534   0.99303 
 H                     0.0028   -2.78586   0.17271 
 H                    -0.26879  -1.80229   1.60943 
 C                    -1.81856  -1.63424  -1.51708 
 H                    -1.05866  -2.25695  -2.00333 
 H                    -2.69746  -2.25509  -1.32295 
 H                    -2.07086  -0.82913  -2.20816 
 
                    Distance matrix (angstroms):
                    1          2          3          4          5
     1  O    0.000000
     2  C    1.307553   0.000000
     3  C    2.630819   1.950001   0.000000
     4  C    2.849996   2.564528   1.392621   0.000000
     5  C    3.884591   3.411548   2.521034   1.490889   0.000000
     6  Fe   1.895809   2.992546   4.260409   4.562349   5.711811
     7  Cl   3.197468   4.504905   5.398106   5.151885   6.178467
     8  C    2.911462   3.266959   2.489956   1.477651   2.539411
     9  Cl   3.225220   3.836991   5.619981   6.056739   6.929896
    10  Cl   3.330142   4.005979   4.629020   5.311920   6.709012
    11  H    3.401380   2.372374   1.090145   2.095249   2.657482
    12  H    3.757508   4.144788   3.416332   2.155520   2.625450
    13  H    3.405494   3.807332   2.765953   2.151377   3.374502
    14  H    2.102905   2.840225   2.770712   2.073826   3.150552
    15  H    4.806861   4.404757   3.184315   2.107111   1.099897
    16  H    3.929106   3.673357   3.292337   2.148130   1.097118
    17  H    4.232226   3.441740   2.664170   2.167307   1.091403
    18  C    3.072749   2.767193   1.521312   2.519184   3.870485
    19  H    3.968240   3.749510   2.157355   2.769185   4.039900
    20  H    3.640175   3.118589   2.164882   3.419122   4.633224
    21  H    2.614428   2.768750   2.183360   2.909928   4.378190
    22  C    2.404793   1.526194   2.663149   3.757282   4.641951
    23  H    3.326368   2.190559   2.770718   3.981869   4.663374
    24  H    2.733462   2.106384   3.665552   4.610860   5.384137
    25  H    2.643664   2.182922   2.893104   4.070265   5.195686
    26  C    2.370739   1.521342   2.806769   2.992089   3.140889
    27  H    2.727014   2.112977   3.771253   4.035097   4.196170
    28  H    3.300274   2.189082   2.901230   3.220348   3.078938
    29  H    2.577561   2.172912   3.123563   2.792701   2.673005
                    6          7          8          9         10
     6  Fe   0.000000
     7  Cl   2.194562   0.000000
     8  C    4.209387   4.217056   0.000000
     9  Cl   2.198493   3.735064   6.026632   0.000000
    10  Cl   2.207817   3.658344   4.995301   3.657836   0.000000
    11  H    5.075773   6.377718   3.440817   6.143644   5.405973
    12  H    5.006509   4.621331   1.091676   6.762730   5.959790
    13  H    4.392926   4.387997   1.094311   6.404353   4.702943
    14  H    3.218937   3.176928   1.108658   5.033523   4.316523
    15  H    6.563197   6.849338   2.857025   7.933358   7.406237
    16  H    5.686317   5.898070   2.746523   6.785038   6.997287
    17  H    6.123350   6.880745   3.479256   7.086836   7.077995
    18  C    4.133284   5.333447   2.967869   5.749546   3.770383
    19  H    4.983279   5.884363   3.036126   6.750656   4.474738
    20  H    4.537595   6.039759   4.037612   5.889431   3.847939
    21  H    3.265716   4.405288   2.889454   5.080214   2.801493
    22  C    3.383419   5.345902   4.530099   3.805082   3.752347
    23  H    4.469539   6.384074   5.019528   4.794498   4.677494
    24  H    3.336385   5.397585   5.292107   3.097646   3.962749
    25  H    3.162619   5.178469   4.620243   3.891527   2.907207
    26  C    4.053444   5.296273   3.899110   4.379667   5.428747
    27  H    4.024670   5.379623   4.792599   3.788316   5.560422
    28  H    5.018417   6.338356   4.417997   5.292761   6.155078
    29  H    4.284607   5.072076   3.502958   4.794254   5.880201
                   11         12         13         14         15
    11  H    0.000000
    12  H    4.243574   0.000000
    13  H    3.763756   1.793695   0.000000
    14  H    3.778919   1.791771   1.752993   0.000000
    15  H    3.298963   2.682923   3.501013   3.720726   0.000000
    16  H    3.541942   2.553064   3.760149   3.122783   1.754290
    17  H    2.352679   3.699142   4.250507   3.981422   1.776196
    18  C    2.218939   4.011911   2.666777   3.182085   4.320724
    19  H    2.764860   3.947307   2.453334   3.542856   4.209605
    20  H    2.425667   5.081932   3.749303   4.178230   5.117112
    21  H    3.076196   3.965038   2.499508   2.786296   4.897051
    22  C    2.740972   5.506716   4.826309   4.147275   5.572269
    23  H    2.414738   5.964506   5.316094   4.839688   5.535819
    24  H    3.728975   6.214200   5.669498   4.739556   6.387856
    25  H    3.168399   5.675584   4.674731   4.232106   6.025459
    26  C    2.837678   4.493365   4.713489   3.558603   4.236540
    27  H    3.792553   5.376354   5.591489   4.268273   5.295209
    28  H    2.516336   4.985998   5.192952   4.312946   4.104774
    29  H    3.323160   3.863485   4.473816   3.181952   3.750416
                   16         17         18         19         20
    16  H    0.000000
    17  H    1.790924   0.000000
    18  C    4.636034   4.124783   0.000000
    19  H    4.888149   4.401865   1.095780   0.000000
    20  H    5.450531   4.669504   1.090877   1.763544   0.000000
    21  H    4.950919   4.780067   1.092159   1.771932   1.764723
    22  C    5.067094   4.453064   2.949771   4.031027   2.740236
    23  H    5.227830   4.247857   3.186319   4.166122   2.761361
    24  H    5.644124   5.162303   3.992856   5.084969   3.779023
    25  H    5.691833   5.144039   2.586343   3.648202   2.219821
    26  C    3.137443   2.914084   4.041870   4.907552   4.389359
    27  H    4.057140   3.942060   4.842045   5.793320   5.075549
    28  H    3.280325   2.483315   4.242385   5.035395   4.448028
    29  H    2.332335   2.688075   4.443527   5.170117   5.002743
                   21         22         23         24         25
    21  H    0.000000
    22  C    3.013645   0.000000
    23  H    3.580924   1.092760   0.000000
    24  H    3.896868   1.097390   1.778248   0.000000
    25  H    2.454472   1.089358   1.791869   1.762192   0.000000
    26  C    4.207135   2.541007   2.806525   2.738427   3.493579
    27  H    4.868903   2.738674   3.100451   2.478229   3.725944
    28  H    4.658353   2.821164   2.645886   3.132109   3.834355
    29  H    4.550575   3.491038   3.826443   3.714484   4.332255
                   26         27         28         29
    26  C    0.000000
    27  H    1.096201   0.000000
    28  H    1.093432   1.774424   0.000000
    29  H    1.090619   1.762151   1.791534   0.000000
 Framework group  C1[X(C8H16Cl3FeO)]
 Deg. of freedom    81
                         Standard orientation:                         
 ---------------------------------------------------------------------
 Center     Atomic      Atomic             Coordinates (Angstroms)
 Number     Number       Type             X           Y           Z
 ---------------------------------------------------------------------
      1          8           0       -0.317054   -0.143143   -0.448206
      2          6           0       -1.186627   -1.097511   -0.241520
      3          6           0       -2.615074   -0.303752    0.822430
      4          6           0       -3.014745    0.692352   -0.064945
      5          6           0       -4.103880    0.471085   -1.058713
      6         26           0        1.518040    0.174617   -0.093876
      7         17           0        1.839373    2.157668   -0.977254
      8          6           0       -2.286052    1.976570   -0.121898
      9         17           0        2.536642   -1.510520   -1.071697
     10         17           0        1.810340    0.170975    2.094503
     11          1           0       -3.282475   -1.164515    0.868025
     12          1           0       -2.746090    2.702633   -0.794917
     13          1           0       -2.133598    2.419608    0.867037
     14          1           0       -1.271451    1.730136   -0.494696
     15          1           0       -4.933112    1.148655   -0.807624
     16          1           0       -3.782722    0.748941   -2.070306
     17          1           0       -4.485008   -0.551608   -1.058983
     18          6           0       -1.958737    0.082476    2.139411
     19          1           0       -2.580749    0.814019    2.667312
     20          1           0       -1.851094   -0.786838    2.789579
     21          1           0       -0.967756    0.518584    1.995958
     22          6           0       -0.749769   -2.201632    0.717302
     23          1           0       -1.572931   -2.865336    0.993030
     24          1           0        0.002799   -2.785863    0.172711
     25          1           0       -0.268787   -1.802293    1.609426
     26          6           0       -1.818563   -1.634244   -1.517081
     27          1           0       -1.058664   -2.256954   -2.003334
     28          1           0       -2.697459   -2.255088   -1.322946
     29          1           0       -2.070856   -0.829127   -2.208156
 ---------------------------------------------------------------------
 Rotational constants (GHZ):           0.6001992           0.3081378           0.2947133
   427 basis functions,  1056 primitive gaussians,   461 cartesian basis functions
    77 alpha electrons       72 beta electrons
       nuclear repulsion energy      1627.7750441630 Hartrees.
 NAtoms=   29 NActive=   29 NUniq=   29 SFac= 1.00D+00 NAtFMM=   60 NAOKFM=F Big=F
 Initial guess from the checkpoint file:  "checkpoint.chk"
 B after Tr=     0.000000    0.000000    0.000000
         Rot=    1.000000    0.000000    0.000000    0.000000 Ang=   0.00 deg.
 Initial guess <Sx>= 0.0000 <Sy>= 0.0000 <Sz>= 2.5000 <S**2>= 8.7628 S= 2.5021
 SCF Done:  E(UB3LYP) =  -3034.32945085     A.U. after   14 cycles
            NFock= 14  Conv=0.82D-08     -V/T= 2.0024
 <Sx>= 0.0000 <Sy>= 0.0000 <Sz>= 2.5000 <S**2>= 8.7621 S= 2.5020
 <L.S>= 0.000000000000E+00
 Annihilation of the first spin contaminant:
 S**2 before annihilation     8.7621,   after     8.7500
 1\1\GINC-HOLY7C06108\SP\UB3LYP\Jul-CC-pVDZ\C8H16Cl3Fe1O1(6)\EKWAN\11-F
 eb-2020\0\\#t pop=none jul-cc-pvdz guess=read ub3lyp\\theory_abbreviat
 ion b3lyp\\0,6\O,0,-0.317054,-0.143143,-0.448206\C,0,-1.186627,-1.0975
 11,-0.24152\C,0,-2.615074,-0.303752,0.82243\C,0,-3.014745,0.692352,-0.
 064945\C,0,-4.10388,0.471085,-1.058713\Fe,0,1.51804,0.174617,-0.093876
 \Cl,0,1.839373,2.157668,-0.977254\C,0,-2.286052,1.97657,-0.121898\Cl,0
 ,2.536642,-1.51052,-1.071697\Cl,0,1.81034,0.170975,2.094503\H,0,-3.282
 475,-1.164515,0.868025\H,0,-2.74609,2.702633,-0.794917\H,0,-2.133598,2
 .419608,0.867037\H,0,-1.271451,1.730136,-0.494696\H,0,-4.933112,1.1486
 55,-0.807624\H,0,-3.782722,0.748941,-2.070306\H,0,-4.485008,-0.551608,
 -1.058983\C,0,-1.958737,0.082476,2.139411\H,0,-2.580749,0.814019,2.667
 312\H,0,-1.851094,-0.786838,2.789579\H,0,-0.967756,0.518584,1.995958\C
 ,0,-0.749769,-2.201632,0.717302\H,0,-1.572931,-2.865336,0.99303\H,0,0.
 002799,-2.785863,0.172711\H,0,-0.268787,-1.802293,1.609426\C,0,-1.8185
 63,-1.634244,-1.517081\H,0,-1.058664,-2.256954,-2.003334\H,0,-2.697459
 ,-2.255088,-1.322946\H,0,-2.070856,-0.829127,-2.208156\\Version=ES64L-
 G16RevA.03\HF=-3034.3294509\S2=8.762111\S2-1=0.\S2A=8.750045\RMSD=8.23
 1e-09\PG=C01 [X(C8H16Cl3Fe1O1)]\\@


 THE NUMBERS ARE MEANINGLESS, BUT THE TRENDS ARE IMPORTANT.
     -- LARRY BURGGRAF
 Job cpu time:       0 days  0 hours 57 minutes 51.5 seconds.
 Elapsed time:       0 days  0 hours 14 minutes 30.3 seconds.
 File lengths (MBytes):  RWF=    174 Int=      0 D2E=      0 Chk=     13 Scr=      1
 Normal termination of Gaussian 16 at Tue Feb 11 14:14:23 2020.
 Initial command:
 /n/sw/g16_nehalem/g16/l1.exe "/scratch/Gau-382065.inp" -scrdir="/scratch/"
 Entering Link 1 = /n/sw/g16_nehalem/g16/l1.exe PID=    386205.
  
 Copyright (c) 1988,1990,1992,1993,1995,1998,2003,2009,2016,
            Gaussian, Inc.  All Rights Reserved.
  
 This is part of the Gaussian(R) 16 program.  It is based on
 the Gaussian(R) 09 system (copyright 2009, Gaussian, Inc.),
 the Gaussian(R) 03 system (copyright 2003, Gaussian, Inc.),
 the Gaussian(R) 98 system (copyright 1998, Gaussian, Inc.),
 the Gaussian(R) 94 system (copyright 1995, Gaussian, Inc.),
 the Gaussian 92(TM) system (copyright 1992, Gaussian, Inc.),
 the Gaussian 90(TM) system (copyright 1990, Gaussian, Inc.),
 the Gaussian 88(TM) system (copyright 1988, Gaussian, Inc.),
 the Gaussian 86(TM) system (copyright 1986, Carnegie Mellon
 University), and the Gaussian 82(TM) system (copyright 1983,
 Carnegie Mellon University). Gaussian is a federally registered
 trademark of Gaussian, Inc.
  
 This software contains proprietary and confidential information,
 including trade secrets, belonging to Gaussian, Inc.
  
 This software is provided under written license and may be
 used, copied, transmitted, or stored only in accord with that
 written license.
  
 The following legend is applicable only to US Government
 contracts under FAR:
  
                    RESTRICTED RIGHTS LEGEND
  
 Use, reproduction and disclosure by the US Government is
 subject to restrictions as set forth in subparagraphs (a)
 and (c) of the Commercial Computer Software - Restricted
 Rights clause in FAR 52.227-19.
  
 Gaussian, Inc.
 340 Quinnipiac St., Bldg. 40, Wallingford CT 06492
  
  
 ---------------------------------------------------------------
 Warning -- This program may not be used in any manner that
 competes with the business of Gaussian, Inc. or will provide
 assistance to any competitor of Gaussian, Inc.  The licensee
 of this program is prohibited from giving any competitor of
 Gaussian, Inc. access to this program.  By using this program,
 the user acknowledges that Gaussian, Inc. is engaged in the
 business of creating and licensing software in the field of
 computational chemistry and represents and warrants to the
 licensee that it is not a competitor of Gaussian, Inc. and that
 it will not use this program in any manner prohibited above.
 ---------------------------------------------------------------
  

 Cite this work as:
 Gaussian 16, Revision A.03,
 M. J. Frisch, G. W. Trucks, H. B. Schlegel, G. E. Scuseria, 
 M. A. Robb, J. R. Cheeseman, G. Scalmani, V. Barone, 
 G. A. Petersson, H. Nakatsuji, X. Li, M. Caricato, A. V. Marenich, 
 J. Bloino, B. G. Janesko, R. Gomperts, B. Mennucci, H. P. Hratchian, 
 J. V. Ortiz, A. F. Izmaylov, J. L. Sonnenberg, D. Williams-Young, 
 F. Ding, F. Lipparini, F. Egidi, J. Goings, B. Peng, A. Petrone, 
 T. Henderson, D. Ranasinghe, V. G. Zakrzewski, J. Gao, N. Rega, 
 G. Zheng, W. Liang, M. Hada, M. Ehara, K. Toyota, R. Fukuda, 
 J. Hasegawa, M. Ishida, T. Nakajima, Y. Honda, O. Kitao, H. Nakai, 
 T. Vreven, K. Throssell, J. A. Montgomery, Jr., J. E. Peralta, 
 F. Ogliaro, M. J. Bearpark, J. J. Heyd, E. N. Brothers, K. N. Kudin, 
 V. N. Staroverov, T. A. Keith, R. Kobayashi, J. Normand, 
 K. Raghavachari, A. P. Rendell, J. C. Burant, S. S. Iyengar, 
 J. Tomasi, M. Cossi, J. M. Millam, M. Klene, C. Adamo, R. Cammi, 
 J. W. Ochterski, R. L. Martin, K. Morokuma, O. Farkas, 
 J. B. Foresman, and D. J. Fox, Gaussian, Inc., Wallingford CT, 2016.
 
 ******************************************
 Gaussian 16:  ES64L-G16RevA.03 25-Dec-2016
                11-Feb-2020 
 ******************************************
 %chk=checkpoint.chk
 %mem=3GB
 %nprocshared=4
 Will use up to    4 processors via shared memory.
 -------------------------------------------------------------------
 #t pop=none jul-cc-pvdz guess=read ub3lyp empiricaldispersion=gd3bj
 -------------------------------------------------------------------
 ------------------------------
 theory_abbreviation b3lyp_d3bj
 ------------------------------
 Symbolic Z-matrix:
 Charge =  0 Multiplicity = 6
 O                    -0.31705  -0.14314  -0.44821 
 C                    -1.18663  -1.09751  -0.24152 
 C                    -2.61507  -0.30375   0.82243 
 C                    -3.01475   0.69235  -0.06495 
 C                    -4.10388   0.47109  -1.05871 
 Fe                    1.51804   0.17462  -0.09388 
 Cl                    1.83937   2.15767  -0.97725 
 C                    -2.28605   1.97657  -0.1219 
 Cl                    2.53664  -1.51052  -1.0717 
 Cl                    1.81034   0.17098   2.0945 
 H                    -3.28248  -1.16452   0.86803 
 H                    -2.74609   2.70263  -0.79492 
 H                    -2.1336    2.41961   0.86704 
 H                    -1.27145   1.73014  -0.4947 
 H                    -4.93311   1.14865  -0.80762 
 H                    -3.78272   0.74894  -2.07031 
 H                    -4.48501  -0.55161  -1.05898 
 C                    -1.95874   0.08248   2.13941 
 H                    -2.58075   0.81402   2.66731 
 H                    -1.85109  -0.78684   2.78958 
 H                    -0.96776   0.51858   1.99596 
 C                    -0.74977  -2.20163   0.7173 
 H                    -1.57293  -2.86534   0.99303 
 H                     0.0028   -2.78586   0.17271 
 H                    -0.26879  -1.80229   1.60943 
 C                    -1.81856  -1.63424  -1.51708 
 H                    -1.05866  -2.25695  -2.00333 
 H                    -2.69746  -2.25509  -1.32295 
 H                    -2.07086  -0.82913  -2.20816 
 
                    Distance matrix (angstroms):
                    1          2          3          4          5
     1  O    0.000000
     2  C    1.307553   0.000000
     3  C    2.630819   1.950001   0.000000
     4  C    2.849996   2.564528   1.392621   0.000000
     5  C    3.884591   3.411548   2.521034   1.490889   0.000000
     6  Fe   1.895809   2.992546   4.260409   4.562349   5.711811
     7  Cl   3.197468   4.504905   5.398106   5.151885   6.178467
     8  C    2.911462   3.266959   2.489956   1.477651   2.539411
     9  Cl   3.225220   3.836991   5.619981   6.056739   6.929896
    10  Cl   3.330142   4.005979   4.629020   5.311920   6.709012
    11  H    3.401380   2.372374   1.090145   2.095249   2.657482
    12  H    3.757508   4.144788   3.416332   2.155520   2.625450
    13  H    3.405494   3.807332   2.765953   2.151377   3.374502
    14  H    2.102905   2.840225   2.770712   2.073826   3.150552
    15  H    4.806861   4.404757   3.184315   2.107111   1.099897
    16  H    3.929106   3.673357   3.292337   2.148130   1.097118
    17  H    4.232226   3.441740   2.664170   2.167307   1.091403
    18  C    3.072749   2.767193   1.521312   2.519184   3.870485
    19  H    3.968240   3.749510   2.157355   2.769185   4.039900
    20  H    3.640175   3.118589   2.164882   3.419122   4.633224
    21  H    2.614428   2.768750   2.183360   2.909928   4.378190
    22  C    2.404793   1.526194   2.663149   3.757282   4.641951
    23  H    3.326368   2.190559   2.770718   3.981869   4.663374
    24  H    2.733462   2.106384   3.665552   4.610860   5.384137
    25  H    2.643664   2.182922   2.893104   4.070265   5.195686
    26  C    2.370739   1.521342   2.806769   2.992089   3.140889
    27  H    2.727014   2.112977   3.771253   4.035097   4.196170
    28  H    3.300274   2.189082   2.901230   3.220348   3.078938
    29  H    2.577561   2.172912   3.123563   2.792701   2.673005
                    6          7          8          9         10
     6  Fe   0.000000
     7  Cl   2.194562   0.000000
     8  C    4.209387   4.217056   0.000000
     9  Cl   2.198493   3.735064   6.026632   0.000000
    10  Cl   2.207817   3.658344   4.995301   3.657836   0.000000
    11  H    5.075773   6.377718   3.440817   6.143644   5.405973
    12  H    5.006509   4.621331   1.091676   6.762730   5.959790
    13  H    4.392926   4.387997   1.094311   6.404353   4.702943
    14  H    3.218937   3.176928   1.108658   5.033523   4.316523
    15  H    6.563197   6.849338   2.857025   7.933358   7.406237
    16  H    5.686317   5.898070   2.746523   6.785038   6.997287
    17  H    6.123350   6.880745   3.479256   7.086836   7.077995
    18  C    4.133284   5.333447   2.967869   5.749546   3.770383
    19  H    4.983279   5.884363   3.036126   6.750656   4.474738
    20  H    4.537595   6.039759   4.037612   5.889431   3.847939
    21  H    3.265716   4.405288   2.889454   5.080214   2.801493
    22  C    3.383419   5.345902   4.530099   3.805082   3.752347
    23  H    4.469539   6.384074   5.019528   4.794498   4.677494
    24  H    3.336385   5.397585   5.292107   3.097646   3.962749
    25  H    3.162619   5.178469   4.620243   3.891527   2.907207
    26  C    4.053444   5.296273   3.899110   4.379667   5.428747
    27  H    4.024670   5.379623   4.792599   3.788316   5.560422
    28  H    5.018417   6.338356   4.417997   5.292761   6.155078
    29  H    4.284607   5.072076   3.502958   4.794254   5.880201
                   11         12         13         14         15
    11  H    0.000000
    12  H    4.243574   0.000000
    13  H    3.763756   1.793695   0.000000
    14  H    3.778919   1.791771   1.752993   0.000000
    15  H    3.298963   2.682923   3.501013   3.720726   0.000000
    16  H    3.541942   2.553064   3.760149   3.122783   1.754290
    17  H    2.352679   3.699142   4.250507   3.981422   1.776196
    18  C    2.218939   4.011911   2.666777   3.182085   4.320724
    19  H    2.764860   3.947307   2.453334   3.542856   4.209605
    20  H    2.425667   5.081932   3.749303   4.178230   5.117112
    21  H    3.076196   3.965038   2.499508   2.786296   4.897051
    22  C    2.740972   5.506716   4.826309   4.147275   5.572269
    23  H    2.414738   5.964506   5.316094   4.839688   5.535819
    24  H    3.728975   6.214200   5.669498   4.739556   6.387856
    25  H    3.168399   5.675584   4.674731   4.232106   6.025459
    26  C    2.837678   4.493365   4.713489   3.558603   4.236540
    27  H    3.792553   5.376354   5.591489   4.268273   5.295209
    28  H    2.516336   4.985998   5.192952   4.312946   4.104774
    29  H    3.323160   3.863485   4.473816   3.181952   3.750416
                   16         17         18         19         20
    16  H    0.000000
    17  H    1.790924   0.000000
    18  C    4.636034   4.124783   0.000000
    19  H    4.888149   4.401865   1.095780   0.000000
    20  H    5.450531   4.669504   1.090877   1.763544   0.000000
    21  H    4.950919   4.780067   1.092159   1.771932   1.764723
    22  C    5.067094   4.453064   2.949771   4.031027   2.740236
    23  H    5.227830   4.247857   3.186319   4.166122   2.761361
    24  H    5.644124   5.162303   3.992856   5.084969   3.779023
    25  H    5.691833   5.144039   2.586343   3.648202   2.219821
    26  C    3.137443   2.914084   4.041870   4.907552   4.389359
    27  H    4.057140   3.942060   4.842045   5.793320   5.075549
    28  H    3.280325   2.483315   4.242385   5.035395   4.448028
    29  H    2.332335   2.688075   4.443527   5.170117   5.002743
                   21         22         23         24         25
    21  H    0.000000
    22  C    3.013645   0.000000
    23  H    3.580924   1.092760   0.000000
    24  H    3.896868   1.097390   1.778248   0.000000
    25  H    2.454472   1.089358   1.791869   1.762192   0.000000
    26  C    4.207135   2.541007   2.806525   2.738427   3.493579
    27  H    4.868903   2.738674   3.100451   2.478229   3.725944
    28  H    4.658353   2.821164   2.645886   3.132109   3.834355
    29  H    4.550575   3.491038   3.826443   3.714484   4.332255
                   26         27         28         29
    26  C    0.000000
    27  H    1.096201   0.000000
    28  H    1.093432   1.774424   0.000000
    29  H    1.090619   1.762151   1.791534   0.000000
 Framework group  C1[X(C8H16Cl3FeO)]
 Deg. of freedom    81
                         Standard orientation:                         
 ---------------------------------------------------------------------
 Center     Atomic      Atomic             Coordinates (Angstroms)
 Number     Number       Type             X           Y           Z
 ---------------------------------------------------------------------
      1          8           0       -0.317054   -0.143143   -0.448206
      2          6           0       -1.186627   -1.097511   -0.241520
      3          6           0       -2.615074   -0.303752    0.822430
      4          6           0       -3.014745    0.692352   -0.064945
      5          6           0       -4.103880    0.471085   -1.058713
      6         26           0        1.518040    0.174617   -0.093876
      7         17           0        1.839373    2.157668   -0.977254
      8          6           0       -2.286052    1.976570   -0.121898
      9         17           0        2.536642   -1.510520   -1.071697
     10         17           0        1.810340    0.170975    2.094503
     11          1           0       -3.282475   -1.164515    0.868025
     12          1           0       -2.746090    2.702633   -0.794917
     13          1           0       -2.133598    2.419608    0.867037
     14          1           0       -1.271451    1.730136   -0.494696
     15          1           0       -4.933112    1.148655   -0.807624
     16          1           0       -3.782722    0.748941   -2.070306
     17          1           0       -4.485008   -0.551608   -1.058983
     18          6           0       -1.958737    0.082476    2.139411
     19          1           0       -2.580749    0.814019    2.667312
     20          1           0       -1.851094   -0.786838    2.789579
     21          1           0       -0.967756    0.518584    1.995958
     22          6           0       -0.749769   -2.201632    0.717302
     23          1           0       -1.572931   -2.865336    0.993030
     24          1           0        0.002799   -2.785863    0.172711
     25          1           0       -0.268787   -1.802293    1.609426
     26          6           0       -1.818563   -1.634244   -1.517081
     27          1           0       -1.058664   -2.256954   -2.003334
     28          1           0       -2.697459   -2.255088   -1.322946
     29          1           0       -2.070856   -0.829127   -2.208156
 ---------------------------------------------------------------------
 Rotational constants (GHZ):           0.6001992           0.3081378           0.2947133
   427 basis functions,  1056 primitive gaussians,   461 cartesian basis functions
    77 alpha electrons       72 beta electrons
       nuclear repulsion energy      1627.7750441630 Hartrees.
 NAtoms=   29 NActive=   29 NUniq=   29 SFac= 1.00D+00 NAtFMM=   60 NAOKFM=F Big=F
 Nuclear repulsion after empirical dispersion term =     1627.7080620171 Hartrees.
 Initial guess from the checkpoint file:  "checkpoint.chk"
 B after Tr=     0.000000    0.000000    0.000000
         Rot=    1.000000    0.000000    0.000000    0.000000 Ang=   0.00 deg.
 Initial guess <Sx>= 0.0000 <Sy>= 0.0000 <Sz>= 2.5000 <S**2>= 8.7621 S= 2.5020
 SCF Done:  E(UB3LYP) =  -3034.39643300     A.U. after    1 cycles
            NFock=  1  Conv=0.39D-08     -V/T= 2.0024
 <Sx>= 0.0000 <Sy>= 0.0000 <Sz>= 2.5000 <S**2>= 8.7621 S= 2.5020
 <L.S>= 0.000000000000E+00
 Annihilation of the first spin contaminant:
 S**2 before annihilation     8.7621,   after     8.7500
 1\1\GINC-HOLY7C06108\SP\UB3LYP\Jul-CC-pVDZ\C8H16Cl3Fe1O1(6)\EKWAN\11-F
 eb-2020\0\\#t pop=none jul-cc-pvdz guess=read ub3lyp empiricaldispersi
 on=gd3bj\\theory_abbreviation b3lyp_d3bj\\0,6\O,0,-0.317054,-0.143143,
 -0.448206\C,0,-1.186627,-1.097511,-0.24152\C,0,-2.615074,-0.303752,0.8
 2243\C,0,-3.014745,0.692352,-0.064945\C,0,-4.10388,0.471085,-1.058713\
 Fe,0,1.51804,0.174617,-0.093876\Cl,0,1.839373,2.157668,-0.977254\C,0,-
 2.286052,1.97657,-0.121898\Cl,0,2.536642,-1.51052,-1.071697\Cl,0,1.810
 34,0.170975,2.094503\H,0,-3.282475,-1.164515,0.868025\H,0,-2.74609,2.7
 02633,-0.794917\H,0,-2.133598,2.419608,0.867037\H,0,-1.271451,1.730136
 ,-0.494696\H,0,-4.933112,1.148655,-0.807624\H,0,-3.782722,0.748941,-2.
 070306\H,0,-4.485008,-0.551608,-1.058983\C,0,-1.958737,0.082476,2.1394
 11\H,0,-2.580749,0.814019,2.667312\H,0,-1.851094,-0.786838,2.789579\H,
 0,-0.967756,0.518584,1.995958\C,0,-0.749769,-2.201632,0.717302\H,0,-1.
 572931,-2.865336,0.99303\H,0,0.002799,-2.785863,0.172711\H,0,-0.268787
 ,-1.802293,1.609426\C,0,-1.818563,-1.634244,-1.517081\H,0,-1.058664,-2
 .256954,-2.003334\H,0,-2.697459,-2.255088,-1.322946\H,0,-2.070856,-0.8
 29127,-2.208156\\Version=ES64L-G16RevA.03\HF=-3034.396433\S2=8.762111\
 S2-1=0.\S2A=8.750045\RMSD=3.875e-09\PG=C01 [X(C8H16Cl3Fe1O1)]\\@


 Change starts when someone sees the next step.
                            -- William Drayton
 Job cpu time:       0 days  0 hours  4 minutes 33.0 seconds.
 Elapsed time:       0 days  0 hours  1 minutes  8.8 seconds.
 File lengths (MBytes):  RWF=    170 Int=      0 D2E=      0 Chk=     13 Scr=      1
 Normal termination of Gaussian 16 at Tue Feb 11 14:15:33 2020.
 Initial command:
 /n/sw/g16_nehalem/g16/l1.exe "/scratch/Gau-382065.inp" -scrdir="/scratch/"
 Entering Link 1 = /n/sw/g16_nehalem/g16/l1.exe PID=    386430.
  
 Copyright (c) 1988,1990,1992,1993,1995,1998,2003,2009,2016,
            Gaussian, Inc.  All Rights Reserved.
  
 This is part of the Gaussian(R) 16 program.  It is based on
 the Gaussian(R) 09 system (copyright 2009, Gaussian, Inc.),
 the Gaussian(R) 03 system (copyright 2003, Gaussian, Inc.),
 the Gaussian(R) 98 system (copyright 1998, Gaussian, Inc.),
 the Gaussian(R) 94 system (copyright 1995, Gaussian, Inc.),
 the Gaussian 92(TM) system (copyright 1992, Gaussian, Inc.),
 the Gaussian 90(TM) system (copyright 1990, Gaussian, Inc.),
 the Gaussian 88(TM) system (copyright 1988, Gaussian, Inc.),
 the Gaussian 86(TM) system (copyright 1986, Carnegie Mellon
 University), and the Gaussian 82(TM) system (copyright 1983,
 Carnegie Mellon University). Gaussian is a federally registered
 trademark of Gaussian, Inc.
  
 This software contains proprietary and confidential information,
 including trade secrets, belonging to Gaussian, Inc.
  
 This software is provided under written license and may be
 used, copied, transmitted, or stored only in accord with that
 written license.
  
 The following legend is applicable only to US Government
 contracts under FAR:
  
                    RESTRICTED RIGHTS LEGEND
  
 Use, reproduction and disclosure by the US Government is
 subject to restrictions as set forth in subparagraphs (a)
 and (c) of the Commercial Computer Software - Restricted
 Rights clause in FAR 52.227-19.
  
 Gaussian, Inc.
 340 Quinnipiac St., Bldg. 40, Wallingford CT 06492
  
  
 ---------------------------------------------------------------
 Warning -- This program may not be used in any manner that
 competes with the business of Gaussian, Inc. or will provide
 assistance to any competitor of Gaussian, Inc.  The licensee
 of this program is prohibited from giving any competitor of
 Gaussian, Inc. access to this program.  By using this program,
 the user acknowledges that Gaussian, Inc. is engaged in the
 business of creating and licensing software in the field of
 computational chemistry and represents and warrants to the
 licensee that it is not a competitor of Gaussian, Inc. and that
 it will not use this program in any manner prohibited above.
 ---------------------------------------------------------------
  

 Cite this work as:
 Gaussian 16, Revision A.03,
 M. J. Frisch, G. W. Trucks, H. B. Schlegel, G. E. Scuseria, 
 M. A. Robb, J. R. Cheeseman, G. Scalmani, V. Barone, 
 G. A. Petersson, H. Nakatsuji, X. Li, M. Caricato, A. V. Marenich, 
 J. Bloino, B. G. Janesko, R. Gomperts, B. Mennucci, H. P. Hratchian, 
 J. V. Ortiz, A. F. Izmaylov, J. L. Sonnenberg, D. Williams-Young, 
 F. Ding, F. Lipparini, F. Egidi, J. Goings, B. Peng, A. Petrone, 
 T. Henderson, D. Ranasinghe, V. G. Zakrzewski, J. Gao, N. Rega, 
 G. Zheng, W. Liang, M. Hada, M. Ehara, K. Toyota, R. Fukuda, 
 J. Hasegawa, M. Ishida, T. Nakajima, Y. Honda, O. Kitao, H. Nakai, 
 T. Vreven, K. Throssell, J. A. Montgomery, Jr., J. E. Peralta, 
 F. Ogliaro, M. J. Bearpark, J. J. Heyd, E. N. Brothers, K. N. Kudin, 
 V. N. Staroverov, T. A. Keith, R. Kobayashi, J. Normand, 
 K. Raghavachari, A. P. Rendell, J. C. Burant, S. S. Iyengar, 
 J. Tomasi, M. Cossi, J. M. Millam, M. Klene, C. Adamo, R. Cammi, 
 J. W. Ochterski, R. L. Martin, K. Morokuma, O. Farkas, 
 J. B. Foresman, and D. J. Fox, Gaussian, Inc., Wallingford CT, 2016.
 
 ******************************************
 Gaussian 16:  ES64L-G16RevA.03 25-Dec-2016
                11-Feb-2020 
 ******************************************
 %chk=checkpoint.chk
 %mem=3GB
 %nprocshared=4
 Will use up to    4 processors via shared memory.
 ----------------------------------------
 #t pop=none jul-cc-pvdz guess=read ub97d
 ----------------------------------------
 ------------------------
 theory_abbreviation b97d
 ------------------------
 Symbolic Z-matrix:
 Charge =  0 Multiplicity = 6
 O                    -0.31705  -0.14314  -0.44821 
 C                    -1.18663  -1.09751  -0.24152 
 C                    -2.61507  -0.30375   0.82243 
 C                    -3.01475   0.69235  -0.06495 
 C                    -4.10388   0.47109  -1.05871 
 Fe                    1.51804   0.17462  -0.09388 
 Cl                    1.83937   2.15767  -0.97725 
 C                    -2.28605   1.97657  -0.1219 
 Cl                    2.53664  -1.51052  -1.0717 
 Cl                    1.81034   0.17098   2.0945 
 H                    -3.28248  -1.16452   0.86803 
 H                    -2.74609   2.70263  -0.79492 
 H                    -2.1336    2.41961   0.86704 
 H                    -1.27145   1.73014  -0.4947 
 H                    -4.93311   1.14865  -0.80762 
 H                    -3.78272   0.74894  -2.07031 
 H                    -4.48501  -0.55161  -1.05898 
 C                    -1.95874   0.08248   2.13941 
 H                    -2.58075   0.81402   2.66731 
 H                    -1.85109  -0.78684   2.78958 
 H                    -0.96776   0.51858   1.99596 
 C                    -0.74977  -2.20163   0.7173 
 H                    -1.57293  -2.86534   0.99303 
 H                     0.0028   -2.78586   0.17271 
 H                    -0.26879  -1.80229   1.60943 
 C                    -1.81856  -1.63424  -1.51708 
 H                    -1.05866  -2.25695  -2.00333 
 H                    -2.69746  -2.25509  -1.32295 
 H                    -2.07086  -0.82913  -2.20816 
 
                    Distance matrix (angstroms):
                    1          2          3          4          5
     1  O    0.000000
     2  C    1.307553   0.000000
     3  C    2.630819   1.950001   0.000000
     4  C    2.849996   2.564528   1.392621   0.000000
     5  C    3.884591   3.411548   2.521034   1.490889   0.000000
     6  Fe   1.895809   2.992546   4.260409   4.562349   5.711811
     7  Cl   3.197468   4.504905   5.398106   5.151885   6.178467
     8  C    2.911462   3.266959   2.489956   1.477651   2.539411
     9  Cl   3.225220   3.836991   5.619981   6.056739   6.929896
    10  Cl   3.330142   4.005979   4.629020   5.311920   6.709012
    11  H    3.401380   2.372374   1.090145   2.095249   2.657482
    12  H    3.757508   4.144788   3.416332   2.155520   2.625450
    13  H    3.405494   3.807332   2.765953   2.151377   3.374502
    14  H    2.102905   2.840225   2.770712   2.073826   3.150552
    15  H    4.806861   4.404757   3.184315   2.107111   1.099897
    16  H    3.929106   3.673357   3.292337   2.148130   1.097118
    17  H    4.232226   3.441740   2.664170   2.167307   1.091403
    18  C    3.072749   2.767193   1.521312   2.519184   3.870485
    19  H    3.968240   3.749510   2.157355   2.769185   4.039900
    20  H    3.640175   3.118589   2.164882   3.419122   4.633224
    21  H    2.614428   2.768750   2.183360   2.909928   4.378190
    22  C    2.404793   1.526194   2.663149   3.757282   4.641951
    23  H    3.326368   2.190559   2.770718   3.981869   4.663374
    24  H    2.733462   2.106384   3.665552   4.610860   5.384137
    25  H    2.643664   2.182922   2.893104   4.070265   5.195686
    26  C    2.370739   1.521342   2.806769   2.992089   3.140889
    27  H    2.727014   2.112977   3.771253   4.035097   4.196170
    28  H    3.300274   2.189082   2.901230   3.220348   3.078938
    29  H    2.577561   2.172912   3.123563   2.792701   2.673005
                    6          7          8          9         10
     6  Fe   0.000000
     7  Cl   2.194562   0.000000
     8  C    4.209387   4.217056   0.000000
     9  Cl   2.198493   3.735064   6.026632   0.000000
    10  Cl   2.207817   3.658344   4.995301   3.657836   0.000000
    11  H    5.075773   6.377718   3.440817   6.143644   5.405973
    12  H    5.006509   4.621331   1.091676   6.762730   5.959790
    13  H    4.392926   4.387997   1.094311   6.404353   4.702943
    14  H    3.218937   3.176928   1.108658   5.033523   4.316523
    15  H    6.563197   6.849338   2.857025   7.933358   7.406237
    16  H    5.686317   5.898070   2.746523   6.785038   6.997287
    17  H    6.123350   6.880745   3.479256   7.086836   7.077995
    18  C    4.133284   5.333447   2.967869   5.749546   3.770383
    19  H    4.983279   5.884363   3.036126   6.750656   4.474738
    20  H    4.537595   6.039759   4.037612   5.889431   3.847939
    21  H    3.265716   4.405288   2.889454   5.080214   2.801493
    22  C    3.383419   5.345902   4.530099   3.805082   3.752347
    23  H    4.469539   6.384074   5.019528   4.794498   4.677494
    24  H    3.336385   5.397585   5.292107   3.097646   3.962749
    25  H    3.162619   5.178469   4.620243   3.891527   2.907207
    26  C    4.053444   5.296273   3.899110   4.379667   5.428747
    27  H    4.024670   5.379623   4.792599   3.788316   5.560422
    28  H    5.018417   6.338356   4.417997   5.292761   6.155078
    29  H    4.284607   5.072076   3.502958   4.794254   5.880201
                   11         12         13         14         15
    11  H    0.000000
    12  H    4.243574   0.000000
    13  H    3.763756   1.793695   0.000000
    14  H    3.778919   1.791771   1.752993   0.000000
    15  H    3.298963   2.682923   3.501013   3.720726   0.000000
    16  H    3.541942   2.553064   3.760149   3.122783   1.754290
    17  H    2.352679   3.699142   4.250507   3.981422   1.776196
    18  C    2.218939   4.011911   2.666777   3.182085   4.320724
    19  H    2.764860   3.947307   2.453334   3.542856   4.209605
    20  H    2.425667   5.081932   3.749303   4.178230   5.117112
    21  H    3.076196   3.965038   2.499508   2.786296   4.897051
    22  C    2.740972   5.506716   4.826309   4.147275   5.572269
    23  H    2.414738   5.964506   5.316094   4.839688   5.535819
    24  H    3.728975   6.214200   5.669498   4.739556   6.387856
    25  H    3.168399   5.675584   4.674731   4.232106   6.025459
    26  C    2.837678   4.493365   4.713489   3.558603   4.236540
    27  H    3.792553   5.376354   5.591489   4.268273   5.295209
    28  H    2.516336   4.985998   5.192952   4.312946   4.104774
    29  H    3.323160   3.863485   4.473816   3.181952   3.750416
                   16         17         18         19         20
    16  H    0.000000
    17  H    1.790924   0.000000
    18  C    4.636034   4.124783   0.000000
    19  H    4.888149   4.401865   1.095780   0.000000
    20  H    5.450531   4.669504   1.090877   1.763544   0.000000
    21  H    4.950919   4.780067   1.092159   1.771932   1.764723
    22  C    5.067094   4.453064   2.949771   4.031027   2.740236
    23  H    5.227830   4.247857   3.186319   4.166122   2.761361
    24  H    5.644124   5.162303   3.992856   5.084969   3.779023
    25  H    5.691833   5.144039   2.586343   3.648202   2.219821
    26  C    3.137443   2.914084   4.041870   4.907552   4.389359
[...]
 Rotational constants (GHZ):           0.6001992           0.3081378           0.2947133
   427 basis functions,  1056 primitive gaussians,   461 cartesian basis functions
    77 alpha electrons       72 beta electrons
       nuclear repulsion energy      1627.7750441630 Hartrees.
 NAtoms=   29 NActive=   29 NUniq=   29 SFac= 1.00D+00 NAtFMM=   60 NAOKFM=F Big=F
 Nuclear repulsion after empirical dispersion term =     1627.7726067417 Hartrees.
 Initial guess from the checkpoint file:  "checkpoint.chk"
 B after Tr=     0.000000    0.000000    0.000000
         Rot=    1.000000    0.000000    0.000000    0.000000 Ang=   0.00 deg.
 Initial guess <Sx>= 0.0000 <Sy>= 0.0000 <Sz>= 2.5000 <S**2>= 8.7619 S= 2.5020
 SCF Done:  E(UM06L) =  -3034.19467475     A.U. after   16 cycles
            NFock= 16  Conv=0.91D-08     -V/T= 2.0020
 <Sx>= 0.0000 <Sy>= 0.0000 <Sz>= 2.5000 <S**2>= 8.7620 S= 2.5020
 <L.S>= 0.000000000000E+00
 Annihilation of the first spin contaminant:
 S**2 before annihilation     8.7620,   after     8.7500
 1\1\GINC-HOLY7C06108\SP\UM06L\Jul-CC-pVDZ\C8H16Cl3Fe1O1(6)\EKWAN\11-Fe
 b-2020\0\\#t pop=none jul-cc-pvdz guess=read um06l empiricaldispersion
 =gd3\\theory_abbreviation m06l_d3\\0,6\O,0,-0.317054,-0.143143,-0.4482
 06\C,0,-1.186627,-1.097511,-0.24152\C,0,-2.615074,-0.303752,0.82243\C,
 0,-3.014745,0.692352,-0.064945\C,0,-4.10388,0.471085,-1.058713\Fe,0,1.
 51804,0.174617,-0.093876\Cl,0,1.839373,2.157668,-0.977254\C,0,-2.28605
 2,1.97657,-0.121898\Cl,0,2.536642,-1.51052,-1.071697\Cl,0,1.81034,0.17
 0975,2.094503\H,0,-3.282475,-1.164515,0.868025\H,0,-2.74609,2.702633,-
 0.794917\H,0,-2.133598,2.419608,0.867037\H,0,-1.271451,1.730136,-0.494
 696\H,0,-4.933112,1.148655,-0.807624\H,0,-3.782722,0.748941,-2.070306\
 H,0,-4.485008,-0.551608,-1.058983\C,0,-1.958737,0.082476,2.139411\H,0,
 -2.580749,0.814019,2.667312\H,0,-1.851094,-0.786838,2.789579\H,0,-0.96
 7756,0.518584,1.995958\C,0,-0.749769,-2.201632,0.717302\H,0,-1.572931,
 -2.865336,0.99303\H,0,0.002799,-2.785863,0.172711\H,0,-0.268787,-1.802
 293,1.609426\C,0,-1.818563,-1.634244,-1.517081\H,0,-1.058664,-2.256954
 ,-2.003334\H,0,-2.697459,-2.255088,-1.322946\H,0,-2.070856,-0.829127,-
 2.208156\\Version=ES64L-G16RevA.03\HF=-3034.1946747\S2=8.761966\S2-1=0
 .\S2A=8.750046\RMSD=9.138e-09\PG=C01 [X(C8H16Cl3Fe1O1)]\\@


 IT IS A SIMPLE TASK TO MAKE THINGS COMPLEX,
 BUT A COMPLEX TASK TO MAKE THEM SIMPLE.
 Job cpu time:       0 days  1 hours  9 minutes 43.8 seconds.
 Elapsed time:       0 days  0 hours 17 minutes 28.9 seconds.
 File lengths (MBytes):  RWF=    174 Int=      0 D2E=      0 Chk=     13 Scr=      1
 Normal termination of Gaussian 16 at Tue Feb 11 23:31:09 2020.
 Initial command:
 /n/sw/g16_nehalem/g16/l1.exe "/scratch/Gau-382065.inp" -scrdir="/scratch/"
 Entering Link 1 = /n/sw/g16_nehalem/g16/l1.exe PID=    438145.
  
 Copyright (c) 1988,1990,1992,1993,1995,1998,2003,2009,2016,
            Gaussian, Inc.  All Rights Reserved.
  
 This is part of the Gaussian(R) 16 program.  It is based on
 the Gaussian(R) 09 system (copyright 2009, Gaussian, Inc.),
 the Gaussian(R) 03 system (copyright 2003, Gaussian, Inc.),
 the Gaussian(R) 98 system (copyright 1998, Gaussian, Inc.),
 the Gaussian(R) 94 system (copyright 1995, Gaussian, Inc.),
 the Gaussian 92(TM) system (copyright 1992, Gaussian, Inc.),
 the Gaussian 90(TM) system (copyright 1990, Gaussian, Inc.),
 the Gaussian 88(TM) system (copyright 1988, Gaussian, Inc.),
 the Gaussian 86(TM) system (copyright 1986, Carnegie Mellon
 University), and the Gaussian 82(TM) system (copyright 1983,
 Carnegie Mellon University). Gaussian is a federally registered
 trademark of Gaussian, Inc.
  
 This software contains proprietary and confidential information,
 including trade secrets, belonging to Gaussian, Inc.
  
 This software is provided under written license and may be
 used, copied, transmitted, or stored only in accord with that
 written license.
  
 The following legend is applicable only to US Government
 contracts under FAR:
  
                    RESTRICTED RIGHTS LEGEND
  
 Use, reproduction and disclosure by the US Government is
 subject to restrictions as set forth in subparagraphs (a)
 and (c) of the Commercial Computer Software - Restricted
 Rights clause in FAR 52.227-19.
  
 Gaussian, Inc.
 340 Quinnipiac St., Bldg. 40, Wallingford CT 06492
  
  
 ---------------------------------------------------------------
 Warning -- This program may not be used in any manner that
 competes with the business of Gaussian, Inc. or will provide
 assistance to any competitor of Gaussian, Inc.  The licensee
 of this program is prohibited from giving any competitor of
 Gaussian, Inc. access to this program.  By using this program,
 the user acknowledges that Gaussian, Inc. is engaged in the
 business of creating and licensing software in the field of
 computational chemistry and represents and warrants to the
 licensee that it is not a competitor of Gaussian, Inc. and that
 it will not use this program in any manner prohibited above.
 ---------------------------------------------------------------
  

 Cite this work as:
 Gaussian 16, Revision A.03,
 M. J. Frisch, G. W. Trucks, H. B. Schlegel, G. E. Scuseria, 
 M. A. Robb, J. R. Cheeseman, G. Scalmani, V. Barone, 
 G. A. Petersson, H. Nakatsuji, X. Li, M. Caricato, A. V. Marenich, 
 J. Bloino, B. G. Janesko, R. Gomperts, B. Mennucci, H. P. Hratchian, 
 J. V. Ortiz, A. F. Izmaylov, J. L. Sonnenberg, D. Williams-Young, 
 F. Ding, F. Lipparini, F. Egidi, J. Goings, B. Peng, A. Petrone, 
 T. Henderson, D. Ranasinghe, V. G. Zakrzewski, J. Gao, N. Rega, 
 G. Zheng, W. Liang, M. Hada, M. Ehara, K. Toyota, R. Fukuda, 
 J. Hasegawa, M. Ishida, T. Nakajima, Y. Honda, O. Kitao, H. Nakai, 
 T. Vreven, K. Throssell, J. A. Montgomery, Jr., J. E. Peralta, 
 F. Ogliaro, M. J. Bearpark, J. J. Heyd, E. N. Brothers, K. N. Kudin, 
 V. N. Staroverov, T. A. Keith, R. Kobayashi, J. Normand, 
 K. Raghavachari, A. P. Rendell, J. C. Burant, S. S. Iyengar, 
 J. Tomasi, M. Cossi, J. M. Millam, M. Klene, C. Adamo, R. Cammi, 
 J. W. Ochterski, R. L. Martin, K. Morokuma, O. Farkas, 
 J. B. Foresman, and D. J. Fox, Gaussian, Inc., Wallingford CT, 2016.
 
 ******************************************
 Gaussian 16:  ES64L-G16RevA.03 25-Dec-2016
                11-Feb-2020 
 ******************************************
 %chk=checkpoint.chk
 %mem=3GB
 %nprocshared=4
 Will use up to    4 processors via shared memory.
 -------------------------------------------------------------------
 #t pop=none jul-cc-pvdz guess=read ub97d3 empiricaldispersion=gd3bj
 -------------------------------------------------------------------
 ------------------------------
 theory_abbreviation b97d3_d3bj
 ------------------------------
 Symbolic Z-matrix:
 Charge =  0 Multiplicity = 6
 O                    -0.31705  -0.14314  -0.44821 
 C                    -1.18663  -1.09751  -0.24152 
 C                    -2.61507  -0.30375   0.82243 
 C                    -3.01475   0.69235  -0.06495 
 C                    -4.10388   0.47109  -1.05871 
 Fe                    1.51804   0.17462  -0.09388 
 Cl                    1.83937   2.15767  -0.97725 
 C                    -2.28605   1.97657  -0.1219 
 Cl                    2.53664  -1.51052  -1.0717 
 Cl                    1.81034   0.17098   2.0945 
 H                    -3.28248  -1.16452   0.86803 
 H                    -2.74609   2.70263  -0.79492 
 H                    -2.1336    2.41961   0.86704 
 H                    -1.27145   1.73014  -0.4947 
 H                    -4.93311   1.14865  -0.80762 
 H                    -3.78272   0.74894  -2.07031 
 H                    -4.48501  -0.55161  -1.05898 
 C                    -1.95874   0.08248   2.13941 
 H                    -2.58075   0.81402   2.66731 
 H                    -1.85109  -0.78684   2.78958 
 H                    -0.96776   0.51858   1.99596 
 C                    -0.74977  -2.20163   0.7173 
 H                    -1.57293  -2.86534   0.99303 
 H                     0.0028   -2.78586   0.17271 
 H                    -0.26879  -1.80229   1.60943 
 C                    -1.81856  -1.63424  -1.51708 
 H                    -1.05866  -2.25695  -2.00333 
 H                    -2.69746  -2.25509  -1.32295 
 H                    -2.07086  -0.82913  -2.20816 
 
                    Distance matrix (angstroms):
                    1          2          3          4          5
     1  O    0.000000
     2  C    1.307553   0.000000
     3  C    2.630819   1.950001   0.000000
     4  C    2.849996   2.564528   1.392621   0.000000
     5  C    3.884591   3.411548   2.521034   1.490889   0.000000
     6  Fe   1.895809   2.992546   4.260409   4.562349   5.711811
     7  Cl   3.197468   4.504905   5.398106   5.151885   6.178467
     8  C    2.911462   3.266959   2.489956   1.477651   2.539411
     9  Cl   3.225220   3.836991   5.619981   6.056739   6.929896
    10  Cl   3.330142   4.005979   4.629020   5.311920   6.709012
    11  H    3.401380   2.372374   1.090145   2.095249   2.657482
    12  H    3.757508   4.144788   3.416332   2.155520   2.625450
    13  H    3.405494   3.807332   2.765953   2.151377   3.374502
    14  H    2.102905   2.840225   2.770712   2.073826   3.150552
    15  H    4.806861   4.404757   3.184315   2.107111   1.099897
    16  H    3.929106   3.673357   3.292337   2.148130   1.097118
    17  H    4.232226   3.441740   2.664170   2.167307   1.091403
    18  C    3.072749   2.767193   1.521312   2.519184   3.870485
    19  H    3.968240   3.749510   2.157355   2.769185   4.039900
    20  H    3.640175   3.118589   2.164882   3.419122   4.633224
    21  H    2.614428   2.768750   2.183360   2.909928   4.378190
    22  C    2.404793   1.526194   2.663149   3.757282   4.641951
    23  H    3.326368   2.190559   2.770718   3.981869   4.663374
    24  H    2.733462   2.106384   3.665552   4.610860   5.384137
    25  H    2.643664   2.182922   2.893104   4.070265   5.195686
    26  C    2.370739   1.521342   2.806769   2.992089   3.140889
    27  H    2.727014   2.112977   3.771253   4.035097   4.196170
    28  H    3.300274   2.189082   2.901230   3.220348   3.078938
    29  H    2.577561   2.172912   3.123563   2.792701   2.673005
                    6          7          8          9         10
     6  Fe   0.000000
     7  Cl   2.194562   0.000000
     8  C    4.209387   4.217056   0.000000
     9  Cl   2.198493   3.735064   6.026632   0.000000
    10  Cl   2.207817   3.658344   4.995301   3.657836   0.000000
    11  H    5.075773   6.377718   3.440817   6.143644   5.405973
    12  H    5.006509   4.621331   1.091676   6.762730   5.959790
    13  H    4.392926   4.387997   1.094311   6.404353   4.702943
    14  H    3.218937   3.176928   1.108658   5.033523   4.316523
    15  H    6.563197   6.849338   2.857025   7.933358   7.406237
    16  H    5.686317   5.898070   2.746523   6.785038   6.997287
    17  H    6.123350   6.880745   3.479256   7.086836   7.077995
    18  C    4.133284   5.333447   2.967869   5.749546   3.770383
    19  H    4.983279   5.884363   3.036126   6.750656   4.474738
    20  H    4.537595   6.039759   4.037612   5.889431   3.847939
    21  H    3.265716   4.405288   2.889454   5.080214   2.801493
    22  C    3.383419   5.345902   4.530099   3.805082   3.752347
    23  H    4.469539   6.384074   5.019528   4.794498   4.677494
    24  H    3.336385   5.397585   5.292107   3.097646   3.962749
    25  H    3.162619   5.178469   4.620243   3.891527   2.907207
    26  C    4.053444   5.296273   3.899110   4.379667   5.428747
    27  H    4.024670   5.379623   4.792599   3.788316   5.560422
    28  H    5.018417   6.338356   4.417997   5.292761   6.155078
    29  H    4.284607   5.072076   3.502958   4.794254   5.880201
                   11         12         13         14         15
    11  H    0.000000
    12  H    4.243574   0.000000
    13  H    3.763756   1.793695   0.000000
    14  H    3.778919   1.791771   1.752993   0.000000
    15  H    3.298963   2.682923   3.501013   3.720726   0.000000
    16  H    3.541942   2.553064   3.760149   3.122783   1.754290
    17  H    2.352679   3.699142   4.250507   3.981422   1.776196
    18  C    2.218939   4.011911   2.666777   3.182085   4.320724
    19  H    2.764860   3.947307   2.453334   3.542856   4.209605
    20  H    2.425667   5.081932   3.749303   4.178230   5.117112
    21  H    3.076196   3.965038   2.499508   2.786296   4.897051
    22  C    2.740972   5.506716   4.826309   4.147275   5.572269
    23  H    2.414738   5.964506   5.316094   4.839688   5.535819
    24  H    3.728975   6.214200   5.669498   4.739556   6.387856
    25  H    3.168399   5.675584   4.674731   4.232106   6.025459
    26  C    2.837678   4.493365   4.713489   3.558603   4.236540
    27  H    3.792553   5.376354   5.591489   4.268273   5.295209
    28  H    2.516336   4.985998   5.192952   4.312946   4.104774
    29  H    3.323160   3.863485   4.473816   3.181952   3.750416
                   16         17         18         19         20
    16  H    0.000000
    17  H    1.790924   0.000000
    18  C    4.636034   4.124783   0.000000
    19  H    4.888149   4.401865   1.095780   0.000000
    20  H    5.450531   4.669504   1.090877   1.763544   0.000000
    21  H    4.950919   4.780067   1.092159   1.771932   1.764723
    22  C    5.067094   4.453064   2.949771   4.031027   2.740236
    23  H    5.227830   4.247857   3.186319   4.166122   2.761361
    24  H    5.644124   5.162303   3.992856   5.084969   3.779023
    25  H    5.691833   5.144039   2.586343   3.648202   2.219821
    26  C    3.137443   2.914084   4.041870   4.907552   4.389359
    27  H    4.057140   3.942060   4.842045   5.793320   5.075549
    28  H    3.280325   2.483315   4.242385   5.035395   4.448028
    29  H    2.332335   2.688075   4.443527   5.170117   5.002743
                   21         22         23         24         25
    21  H    0.000000
    22  C    3.013645   0.000000
    23  H    3.580924   1.092760   0.000000
    24  H    3.896868   1.097390   1.778248   0.000000
    25  H    2.454472   1.089358   1.791869   1.762192   0.000000
    26  C    4.207135   2.541007   2.806525   2.738427   3.493579
    27  H    4.868903   2.738674   3.100451   2.478229   3.725944
    28  H    4.658353   2.821164   2.645886   3.132109   3.834355
    29  H    4.550575   3.491038   3.826443   3.714484   4.332255
                   26         27         28         29
    26  C    0.000000
    27  H    1.096201   0.000000
    28  H    1.093432   1.774424   0.000000
    29  H    1.090619   1.762151   1.791534   0.000000
 Framework group  C1[X(C8H16Cl3FeO)]
 Deg. of freedom    81
                         Standard orientation:                         
 ---------------------------------------------------------------------
 Center     Atomic      Atomic             Coordinates (Angstroms)
 Number     Number       Type             X           Y           Z
 ---------------------------------------------------------------------
      1          8           0       -0.317054   -0.143143   -0.448206
      2          6           0       -1.186627   -1.097511   -0.241520
      3          6           0       -2.615074   -0.303752    0.822430
      4          6           0       -3.014745    0.692352   -0.064945
      5          6           0       -4.103880    0.471085   -1.058713
      6         26           0        1.518040    0.174617   -0.093876
      7         17           0        1.839373    2.157668   -0.977254
      8          6           0       -2.286052    1.976570   -0.121898
      9         17           0        2.536642   -1.510520   -1.071697
     10         17           0        1.810340    0.170975    2.094503
     11          1           0       -3.282475   -1.164515    0.868025
     12          1           0       -2.746090    2.702633   -0.794917
     13          1           0       -2.133598    2.419608    0.867037
     14          1           0       -1.271451    1.730136   -0.494696
     15          1           0       -4.933112    1.148655   -0.807624
     16          1           0       -3.782722    0.748941   -2.070306
     17          1           0       -4.485008   -0.551608   -1.058983
     18          6           0       -1.958737    0.082476    2.139411
     19          1           0       -2.580749    0.814019    2.667312
     20          1           0       -1.851094   -0.786838    2.789579
     21          1           0       -0.967756    0.518584    1.995958
     22          6           0       -0.749769   -2.201632    0.717302
     23          1           0       -1.572931   -2.865336    0.993030
     24          1           0        0.002799   -2.785863    0.172711
     25          1           0       -0.268787   -1.802293    1.609426
     26          6           0       -1.818563   -1.634244   -1.517081
     27          1           0       -1.058664   -2.256954   -2.003334
     28          1           0       -2.697459   -2.255088   -1.322946
     29          1           0       -2.070856   -0.829127   -2.208156
 ---------------------------------------------------------------------
 Rotational constants (GHZ):           0.6001992           0.3081378           0.2947133
   427 basis functions,  1056 primitive gaussians,   461 cartesian basis functions
    77 alpha electrons       72 beta electrons
       nuclear repulsion energy      1627.7750441630 Hartrees.
 NAtoms=   29 NActive=   29 NUniq=   29 SFac= 1.00D+00 NAtFMM=   60 NAOKFM=F Big=F
 Nuclear repulsion after empirical dispersion term =     1627.6760028151 Hartrees.
 Initial guess from the checkpoint file:  "checkpoint.chk"
 B after Tr=     0.000000    0.000000    0.000000
         Rot=    1.000000    0.000000    0.000000    0.000000 Ang=   0.00 deg.
 Initial guess <Sx>= 0.0000 <Sy>= 0.0000 <Sz>= 2.5000 <S**2>= 8.7620 S= 2.5020
 EnCoef did     4 forward-backward iterations
 SCF Done:  E(UB97D3) =  -3034.61656842     A.U. after   16 cycles
            NFock= 16  Conv=0.60D-08     -V/T= 2.0019
 <Sx>= 0.0000 <Sy>= 0.0000 <Sz>= 2.5000 <S**2>= 8.7603 S= 2.5017
 <L.S>= 0.000000000000E+00
 Annihilation of the first spin contaminant:
 S**2 before annihilation     8.7603,   after     8.7500
 1\1\GINC-HOLY7C06108\SP\UB97D3\Jul-CC-pVDZ\C8H16Cl3Fe1O1(6)\EKWAN\11-F
 eb-2020\0\\#t pop=none jul-cc-pvdz guess=read ub97d3 empiricaldispersi
 on=gd3bj\\theory_abbreviation b97d3_d3bj\\0,6\O,0,-0.317054,-0.143143,
 -0.448206\C,0,-1.186627,-1.097511,-0.24152\C,0,-2.615074,-0.303752,0.8
 2243\C,0,-3.014745,0.692352,-0.064945\C,0,-4.10388,0.471085,-1.058713\
 Fe,0,1.51804,0.174617,-0.093876\Cl,0,1.839373,2.157668,-0.977254\C,0,-
 2.286052,1.97657,-0.121898\Cl,0,2.536642,-1.51052,-1.071697\Cl,0,1.810
 34,0.170975,2.094503\H,0,-3.282475,-1.164515,0.868025\H,0,-2.74609,2.7
 02633,-0.794917\H,0,-2.133598,2.419608,0.867037\H,0,-1.271451,1.730136
 ,-0.494696\H,0,-4.933112,1.148655,-0.807624\H,0,-3.782722,0.748941,-2.
 070306\H,0,-4.485008,-0.551608,-1.058983\C,0,-1.958737,0.082476,2.1394
 11\H,0,-2.580749,0.814019,2.667312\H,0,-1.851094,-0.786838,2.789579\H,
 0,-0.967756,0.518584,1.995958\C,0,-0.749769,-2.201632,0.717302\H,0,-1.
 572931,-2.865336,0.99303\H,0,0.002799,-2.785863,0.172711\H,0,-0.268787
 ,-1.802293,1.609426\C,0,-1.818563,-1.634244,-1.517081\H,0,-1.058664,-2
 .256954,-2.003334\H,0,-2.697459,-2.255088,-1.322946\H,0,-2.070856,-0.8
 29127,-2.208156\\Version=ES64L-G16RevA.03\HF=-3034.6165684\S2=8.760253
 \S2-1=0.\S2A=8.750033\RMSD=5.951e-09\PG=C01 [X(C8H16Cl3Fe1O1)]\\@


 "I COULD HAVE DONE IT IN A MUCH MORE COMPLICATED WAY"
 SAID THE RED QUEEN, IMMENSELY PROUD.

                                      -- LEWIS CARROLL
 Job cpu time:       0 days  0 hours 50 minutes 13.0 seconds.
 Elapsed time:       0 days  0 hours 12 minutes 35.5 seconds.
 File lengths (MBytes):  RWF=    174 Int=      0 D2E=      0 Chk=     13 Scr=      1
 Normal termination of Gaussian 16 at Tue Feb 11 23:43:45 2020.
