 Entering Gaussian System, Link 0=g16
 Input=simple-grid-160-220-b3lyp_d3bj-631gd-gas-singlepoint-DFT-juldz2-gas.gjf
 Output=simple-grid-160-220-b3lyp_d3bj-631gd-gas-singlepoint-DFT-juldz2-gas.out
 Initial command:
 /n/sw/g16_nehalem/g16/l1.exe "/scratch/Gau-261446.inp" -scrdir="/scratch/"
 Entering Link 1 = /n/sw/g16_nehalem/g16/l1.exe PID=    261449.
  
 Copyright (c) 1988,1990,1992,1993,1995,1998,2003,2009,2016,
            Gaussian, Inc.  All Rights Reserved.
  
 This is part of the Gaussian(R) 16 program.  It is based on
 the Gaussian(R) 09 system (copyright 2009, Gaussian, Inc.),
 the Gaussian(R) 03 system (copyright 2003, Gaussian, Inc.),
 the Gaussian(R) 98 system (copyright 1998, Gaussian, Inc.),
 the Gaussian(R) 94 system (copyright 1995, Gaussian, Inc.),
 the Gaussian 92(TM) system (copyright 1992, Gaussian, Inc.),
 the Gaussian 90(TM) system (copyright 1990, Gaussian, Inc.),
 the Gaussian 88(TM) system (copyright 1988, Gaussian, Inc.),
 the Gaussian 86(TM) system (copyright 1986, Carnegie Mellon
 University), and the Gaussian 82(TM) system (copyright 1983,
 Carnegie Mellon University). Gaussian is a federally registered
 trademark of Gaussian, Inc.
  
 This software contains proprietary and confidential information,
 including trade secrets, belonging to Gaussian, Inc.
  
 This software is provided under written license and may be
 used, copied, transmitted, or stored only in accord with that
 written license.
  
 The following legend is applicable only to US Government
 contracts under FAR:
  
                    RESTRICTED RIGHTS LEGEND
  
 Use, reproduction and disclosure by the US Government is
 subject to restrictions as set forth in subparagraphs (a)
 and (c) of the Commercial Computer Software - Restricted
 Rights clause in FAR 52.227-19.
  
 Gaussian, Inc.
 340 Quinnipiac St., Bldg. 40, Wallingford CT 06492
  
  
 ---------------------------------------------------------------
 Warning -- This program may not be used in any manner that
 competes with the business of Gaussian, Inc. or will provide
 assistance to any competitor of Gaussian, Inc.  The licensee
 of this program is prohibited from giving any competitor of
 Gaussian, Inc. access to this program.  By using this program,
 the user acknowledges that Gaussian, Inc. is engaged in the
 business of creating and licensing software in the field of
 computational chemistry and represents and warrants to the
 licensee that it is not a competitor of Gaussian, Inc. and that
 it will not use this program in any manner prohibited above.
 ---------------------------------------------------------------
  

 Cite this work as:
 Gaussian 16, Revision A.03,
 M. J. Frisch, G. W. Trucks, H. B. Schlegel, G. E. Scuseria, 
 M. A. Robb, J. R. Cheeseman, G. Scalmani, V. Barone, 
 G. A. Petersson, H. Nakatsuji, X. Li, M. Caricato, A. V. Marenich, 
 J. Bloino, B. G. Janesko, R. Gomperts, B. Mennucci, H. P. Hratchian, 
 J. V. Ortiz, A. F. Izmaylov, J. L. Sonnenberg, D. Williams-Young, 
 F. Ding, F. Lipparini, F. Egidi, J. Goings, B. Peng, A. Petrone, 
 T. Henderson, D. Ranasinghe, V. G. Zakrzewski, J. Gao, N. Rega, 
 G. Zheng, W. Liang, M. Hada, M. Ehara, K. Toyota, R. Fukuda, 
 J. Hasegawa, M. Ishida, T. Nakajima, Y. Honda, O. Kitao, H. Nakai, 
 T. Vreven, K. Throssell, J. A. Montgomery, Jr., J. E. Peralta, 
 F. Ogliaro, M. J. Bearpark, J. J. Heyd, E. N. Brothers, K. N. Kudin, 
 V. N. Staroverov, T. A. Keith, R. Kobayashi, J. Normand, 
 K. Raghavachari, A. P. Rendell, J. C. Burant, S. S. Iyengar, 
 J. Tomasi, M. Cossi, J. M. Millam, M. Klene, C. Adamo, R. Cammi, 
 J. W. Ochterski, R. L. Martin, K. Morokuma, O. Farkas, 
 J. B. Foresman, and D. J. Fox, Gaussian, Inc., Wallingford CT, 2016.
 
 ******************************************
 Gaussian 16:  ES64L-G16RevA.03 25-Dec-2016
                11-Feb-2020 
 ******************************************
 %chk=checkpoint.chk
 %mem=3GB
 %nprocshared=4
 Will use up to    4 processors via shared memory.
 --------------------------------
 #t pop=none jul-cc-pvdz upbe1pbe
 --------------------------------
 ------------------------
 theory_abbreviation pbe0
 ------------------------
 Symbolic Z-matrix:
 Charge =  0 Multiplicity = 6
 O                    -0.35763  -0.27333  -0.59723 
 C                    -1.46353  -1.17361  -0.34036 
 C                    -2.69827  -0.15626  -0.31963 
 C                    -1.97476   1.17247  -0.23038 
 C                    -1.8208    2.01989  -1.42878 
 Fe                    1.38231   0.01696   0.00843 
 Cl                    1.78763   2.03119  -0.84584 
 C                    -1.62447   1.75941   1.07899 
 Cl                    2.61289  -1.6498   -0.70725 
 Cl                    1.34026   0.16045   2.22341 
 H                    -3.1771   -0.20318  -1.30268 
 H                    -2.52268   2.29787   1.42686 
 H                    -1.37588   1.01089   1.83149 
 H                    -0.80918   2.4812    0.99171 
 H                    -2.48853   2.88997  -1.31788 
 H                    -0.79546   2.40978  -1.47008 
 H                    -2.06316   1.49388  -2.35225 
 C                    -3.76415  -0.38273   0.7552 
 H                    -4.56286   0.36358   0.68077 
 H                    -4.22011  -1.36704   0.61292 
 H                    -3.35311  -0.34712   1.76668 
 C                    -1.2548   -1.92493   0.96924 
 H                    -2.08443  -2.61112   1.16682 
 H                    -0.33712  -2.51692   0.88915 
 H                    -1.13379  -1.25493   1.82236 
 C                    -1.56636  -2.14133  -1.51226 
 H                    -0.65726  -2.74918  -1.55978 
 H                    -2.42967  -2.80794  -1.40063 
 H                    -1.65898  -1.59289  -2.45447 
 
                    Distance matrix (angstroms):
                    1          2          3          4          5
     1  O    0.000000
     2  C    1.448961   0.000000
     3  C    2.359942   1.600000   0.000000
     4  C    2.200001   2.403647   1.515568   0.000000
     5  C    2.844503   3.392751   2.595345   1.475807   0.000000
     6  Fe   1.865067   3.104492   4.097401   3.558387   4.041928
     7  Cl   3.158284   4.593066   5.018474   3.907911   3.655225
     8  C    2.923457   3.262371   2.603651   1.477040   2.528888
     9  Cl   3.275784   4.120497   5.530752   5.407319   5.800416
    10  Cl   3.320692   4.026642   4.782998   4.246718   5.175740
    11  H    2.907228   2.191831   1.094467   2.118452   2.607203
    12  H    3.923696   4.036831   3.017254   2.076817   2.953736
    13  H    2.929966   3.081658   2.781772   2.153149   3.441712
    14  H    3.211863   3.944645   3.499211   2.136553   2.663628
    15  H    3.881565   4.303355   3.212480   2.096770   1.102365
    16  H    2.855280   3.816181   3.395403   2.111528   1.097739
    17  H    3.018602   3.394522   2.694046   2.147901   1.090059
    18  C    3.666799   2.668075   1.530578   2.567472   3.784044
    19  H    4.441041   3.607146   2.178933   2.860547   3.835685
    20  H    4.192779   2.923168   2.156765   3.493109   4.625638
    21  H    3.816590   2.948424   2.194980   2.863075   4.261650
    22  C    2.446733   1.524169   2.621633   3.398716   4.651071
    23  H    3.399843   2.173369   2.934730   4.034809   5.315344
    24  H    2.691362   2.141251   3.550892   4.188883   5.306292
    25  H    2.724031   2.189222   2.871026   3.288342   4.665439
    26  C    2.405766   1.523282   2.577599   3.576479   4.169826
    27  H    2.673225   2.149300   3.525181   4.345394   4.910710
    28  H    3.370911   2.174542   2.876120   4.173732   4.866158
    29  H    2.623753   2.164127   2.775160   3.562790   3.759045
                    6          7          8          9         10
     6  Fe   0.000000
     7  Cl   2.225127   0.000000
     8  C    3.636331   3.926983   0.000000
     9  Cl   2.191944   3.774914   5.724379   0.000000
    10  Cl   2.220017   3.622166   3.557526   3.672236   0.000000
    11  H    4.749278   5.463480   3.454672   5.997598   5.742130
    12  H    4.739553   4.880061   1.103509   6.820007   4.486128
    13  H    3.452394   4.268126   1.090113   5.425375   2.873027
    14  H    3.441214   3.212867   1.092376   5.626918   3.394569
    15  H    4.999668   4.387012   2.787422   6.856158   5.886480
    16  H    3.557278   2.684276   2.758250   5.355271   4.823133
    17  H    4.430049   4.169714   3.469344   5.869768   5.856446
    18  C    5.215694   6.261997   3.044976   6.664146   5.339078
    19  H    5.993091   6.740928   3.277356   7.581000   6.104735
    20  H    5.802408   7.054704   4.090145   6.965102   5.987042
    21  H    5.064397   6.237688   2.810444   6.588653   4.742778
    22  C    3.412976   5.310532   3.704468   4.224366   3.557542
    23  H    4.501877   6.371392   4.395546   5.147911   4.530617
    24  H    3.186321   5.311314   4.469931   3.464524   3.429601
    25  H    3.352423   5.143199   3.143185   4.537881   2.878375
    26  C    3.957945   5.394743   4.683339   4.284361   5.263251
    27  H    3.777653   5.416562   5.312816   3.553771   5.173835
    28  H    4.949411   6.442870   5.259043   5.220099   6.013098
    29  H    4.231656   5.253641   4.870770   4.615720   5.826849
                   11         12         13         14         15
    11  H    0.000000
    12  H    3.759502   0.000000
    13  H    3.813309   1.770646   0.000000
    14  H    4.251721   1.777366   1.785558   0.000000
    15  H    3.168900   2.808079   3.832421   2.884697   0.000000
    16  H    3.539459   3.374615   3.632371   2.462857   1.766423
    17  H    2.285277   3.890914   4.267237   3.705308   1.788839
    18  C    2.147492   3.029520   2.967222   4.121881   4.078653
    19  H    2.485078   2.908684   3.449630   4.321004   3.831458
    20  H    2.472234   4.120110   3.902444   5.156246   4.984821
    21  H    3.077765   2.793034   2.399540   3.882207   4.554196
    22  C    3.438206   4.432713   3.062213   4.428667   5.471404
    23  H    3.618080   4.935365   3.750032   5.252491   6.049710
    24  H    4.268836   5.314877   3.796368   5.021411   6.223663
    25  H    3.879067   3.835073   2.278726   3.841096   5.373695
    26  C    2.528796   5.409191   4.599275   5.311395   5.118802
    27  H    3.591357   6.154065   5.114219   5.821522   5.933983
    28  H    2.711646   5.837171   5.112773   6.026962   5.698816
    29  H    2.358515   5.563149   5.022867   5.403378   4.698514
                   16         17         18         19         20
    16  H    0.000000
    17  H    1.795593   0.000000
    18  C    4.643607   4.008904   0.000000
    19  H    4.796495   4.089661   1.095646   0.000000
    20  H    5.507398   4.650757   1.094076   1.765533   0.000000
    21  H    4.961715   4.692423   1.092392   1.774196   1.767229
    22  C    4.995091   4.834667   2.953143   4.032830   3.038304
    23  H    5.815845   5.406970   2.820749   3.902264   2.532922
    24  H    5.481638   5.438051   4.039459   5.118348   4.059079
    25  H    4.938082   5.084000   2.969579   3.959962   3.316736
    26  C    4.616126   3.763926   3.614455   4.479161   3.486869
    27  H    5.161591   4.539621   4.540048   5.473853   4.396006
    28  H    5.468094   4.421040   3.508569   4.352152   3.055524
    29  H    4.211417   3.114797   4.024696   4.699998   4.002403
                   21         22         23         24         25
    21  H    0.000000
    22  C    2.743774   0.000000
    23  H    2.663659   1.094613   0.000000
    24  H    3.817621   1.094984   1.771734   0.000000
    25  H    2.398459   1.091498   1.781213   1.760161   0.000000
    26  C    4.142828   2.510318   2.768847   2.723756   3.477424
    27  H    4.909465   2.726239   3.080618   2.480666   3.728104
    28  H    4.115845   2.788597   2.598015   3.115529   3.805102
    29  H    4.715937   3.463431   3.785694   3.712266   4.322186
                   26         27         28         29
    26  C    0.000000
    27  H    1.094633   0.000000
    28  H    1.096420   1.780514   0.000000
    29  H    1.094132   1.772266   1.783505   0.000000
 Framework group  C1[X(C8H16Cl3FeO)]
 Deg. of freedom    81
                         Standard orientation:                         
 ---------------------------------------------------------------------
 Center     Atomic      Atomic             Coordinates (Angstroms)
 Number     Number       Type             X           Y           Z
 ---------------------------------------------------------------------
      1          8           0       -0.357632   -0.273329   -0.597228
      2          6           0       -1.463526   -1.173609   -0.340360
      3          6           0       -2.698265   -0.156264   -0.319634
      4          6           0       -1.974761    1.172465   -0.230377
      5          6           0       -1.820797    2.019894   -1.428778
      6         26           0        1.382306    0.016961    0.008432
      7         17           0        1.787627    2.031192   -0.845839
      8          6           0       -1.624466    1.759413    1.078986
      9         17           0        2.612886   -1.649802   -0.707245
     10         17           0        1.340262    0.160451    2.223408
     11          1           0       -3.177099   -0.203178   -1.302678
     12          1           0       -2.522678    2.297867    1.426857
     13          1           0       -1.375883    1.010885    1.831488
     14          1           0       -0.809184    2.481204    0.991707
     15          1           0       -2.488534    2.889972   -1.317875
     16          1           0       -0.795460    2.409779   -1.470076
     17          1           0       -2.063156    1.493883   -2.352252
     18          6           0       -3.764154   -0.382730    0.755197
     19          1           0       -4.562856    0.363578    0.680773
     20          1           0       -4.220112   -1.367037    0.612915
     21          1           0       -3.353107   -0.347119    1.766677
     22          6           0       -1.254799   -1.924930    0.969236
     23          1           0       -2.084428   -2.611119    1.166815
     24          1           0       -0.337124   -2.516917    0.889151
     25          1           0       -1.133785   -1.254926    1.822359
     26          6           0       -1.566362   -2.141325   -1.512255
     27          1           0       -0.657257   -2.749182   -1.559782
     28          1           0       -2.429670   -2.807939   -1.400626
     29          1           0       -1.658981   -1.592888   -2.454467
 ---------------------------------------------------------------------
 Rotational constants (GHZ):           0.5793036           0.3592773           0.3184428
   427 basis functions,  1056 primitive gaussians,   461 cartesian basis functions
    77 alpha electrons       72 beta electrons
       nuclear repulsion energy      1658.1252863848 Hartrees.
 NAtoms=   29 NActive=   29 NUniq=   29 SFac= 1.00D+00 NAtFMM=   60 NAOKFM=F Big=F
 ExpMin= 1.40D-02 ExpMax= 4.32D+06 ExpMxC= 4.91D+03 IAcc=3 IRadAn=         5 AccDes= 0.00D+00
 Harris functional with IExCor= 1009 and IRadAn=       5 diagonalized for initial guess.
 HarFok:  IExCor= 1009 AccDes= 0.00D+00 IRadAn=         5 IDoV= 1 UseB2=F ITyADJ=14
 ICtDFT=  3500011 ScaDFX=  1.000000  1.000000  1.000000  1.000000
 FoFCou: FMM=F IPFlag=           0 FMFlag=      100000 FMFlg1=           0
         NFxFlg=           0 DoJE=T BraDBF=F KetDBF=T FulRan=T
         wScrn=  0.000000 ICntrl=       500 IOpCl=  0 I1Cent=   200000004 NGrid=           0
         NMat0=    1 NMatS0=      1 NMatT0=    0 NMatD0=    1 NMtDS0=    0 NMtDT0=    0
 Petite list used in FoFCou.
 Initial guess <Sx>= 0.0000 <Sy>= 0.0000 <Sz>= 2.5000 <S**2>= 8.7500 S= 2.5000
 EnCoef did   100 forward-backward iterations
 Restarting incremental Fock formation.
 SCF Done:  E(UPBE1PBE) =  -3033.11523580     A.U. after   21 cycles
            NFock= 21  Conv=0.39D-08     -V/T= 2.0022
 <Sx>= 0.0000 <Sy>= 0.0000 <Sz>= 2.5000 <S**2>= 8.7630 S= 2.5022
 <L.S>= 0.000000000000E+00
 Annihilation of the first spin contaminant:
 S**2 before annihilation     8.7630,   after     8.7501
 1\1\GINC-HOLY7C04109\SP\UPBE1PBE\Jul-CC-pVDZ\C8H16Cl3Fe1O1(6)\EKWAN\11
 -Feb-2020\0\\#t pop=none jul-cc-pvdz upbe1pbe\\theory_abbreviation pbe
 0\\0,6\O,0,-0.357632,-0.273329,-0.597228\C,0,-1.463526,-1.173609,-0.34
 036\C,0,-2.698265,-0.156264,-0.319634\C,0,-1.974761,1.172465,-0.230377
 \C,0,-1.820797,2.019894,-1.428778\Fe,0,1.382306,0.016961,0.008432\Cl,0
 ,1.787627,2.031192,-0.845839\C,0,-1.624466,1.759413,1.078986\Cl,0,2.61
 2886,-1.649802,-0.707245\Cl,0,1.340262,0.160451,2.223408\H,0,-3.177099
 ,-0.203178,-1.302678\H,0,-2.522678,2.297867,1.426857\H,0,-1.375883,1.0
 10885,1.831488\H,0,-0.809184,2.481204,0.991707\H,0,-2.488534,2.889972,
 -1.317875\H,0,-0.79546,2.409779,-1.470076\H,0,-2.063156,1.493883,-2.35
 2252\C,0,-3.764154,-0.38273,0.755197\H,0,-4.562856,0.363578,0.680773\H
 ,0,-4.220112,-1.367037,0.612915\H,0,-3.353107,-0.347119,1.766677\C,0,-
 1.254799,-1.92493,0.969236\H,0,-2.084428,-2.611119,1.166815\H,0,-0.337
 124,-2.516917,0.889151\H,0,-1.133785,-1.254926,1.822359\C,0,-1.566362,
 -2.141325,-1.512255\H,0,-0.657257,-2.749182,-1.559782\H,0,-2.42967,-2.
 807939,-1.400626\H,0,-1.658981,-1.592888,-2.454467\\Version=ES64L-G16R
 evA.03\HF=-3033.1152358\S2=8.762992\S2-1=0.\S2A=8.750053\RMSD=3.872e-0
 9\PG=C01 [X(C8H16Cl3Fe1O1)]\\@


 IF YOU WANT TO LEARN FROM THE THEORETICAL PHYSICISTS ABOUT THE
 METHODS WHICH THEY USE, I ADVISE YOU TO FOLLOW THIS PRINCIPLE VERY STRICTLY:
 DON'T LISTEN TO THEIR WORDS; PAY ATTENTION, INSTEAD, TO THEIR ACTIONS.
 -- A.EINSTEIN, 1934
 Job cpu time:       0 days  1 hours 30 minutes 18.1 seconds.
 Elapsed time:       0 days  0 hours 22 minutes 38.0 seconds.
 File lengths (MBytes):  RWF=    173 Int=      0 D2E=      0 Chk=     13 Scr=      1
 Normal termination of Gaussian 16 at Tue Feb 11 13:56:44 2020.
 Initial command:
 /n/sw/g16_nehalem/g16/l1.exe "/scratch/Gau-261446.inp" -scrdir="/scratch/"
 Entering Link 1 = /n/sw/g16_nehalem/g16/l1.exe PID=    263287.
  
 Copyright (c) 1988,1990,1992,1993,1995,1998,2003,2009,2016,
            Gaussian, Inc.  All Rights Reserved.
  
 This is part of the Gaussian(R) 16 program.  It is based on
 the Gaussian(R) 09 system (copyright 2009, Gaussian, Inc.),
 the Gaussian(R) 03 system (copyright 2003, Gaussian, Inc.),
 the Gaussian(R) 98 system (copyright 1998, Gaussian, Inc.),
 the Gaussian(R) 94 system (copyright 1995, Gaussian, Inc.),
 the Gaussian 92(TM) system (copyright 1992, Gaussian, Inc.),
 the Gaussian 90(TM) system (copyright 1990, Gaussian, Inc.),
 the Gaussian 88(TM) system (copyright 1988, Gaussian, Inc.),
 the Gaussian 86(TM) system (copyright 1986, Carnegie Mellon
 University), and the Gaussian 82(TM) system (copyright 1983,
 Carnegie Mellon University). Gaussian is a federally registered
 trademark of Gaussian, Inc.
  
 This software contains proprietary and confidential information,
 including trade secrets, belonging to Gaussian, Inc.
  
 This software is provided under written license and may be
 used, copied, transmitted, or stored only in accord with that
 written license.
  
 The following legend is applicable only to US Government
 contracts under FAR:
  
                    RESTRICTED RIGHTS LEGEND
  
 Use, reproduction and disclosure by the US Government is
 subject to restrictions as set forth in subparagraphs (a)
 and (c) of the Commercial Computer Software - Restricted
 Rights clause in FAR 52.227-19.
  
 Gaussian, Inc.
 340 Quinnipiac St., Bldg. 40, Wallingford CT 06492
  
  
 ---------------------------------------------------------------
 Warning -- This program may not be used in any manner that
 competes with the business of Gaussian, Inc. or will provide
 assistance to any competitor of Gaussian, Inc.  The licensee
 of this program is prohibited from giving any competitor of
 Gaussian, Inc. access to this program.  By using this program,
 the user acknowledges that Gaussian, Inc. is engaged in the
 business of creating and licensing software in the field of
 computational chemistry and represents and warrants to the
 licensee that it is not a competitor of Gaussian, Inc. and that
 it will not use this program in any manner prohibited above.
 ---------------------------------------------------------------
  

 Cite this work as:
 Gaussian 16, Revision A.03,
 M. J. Frisch, G. W. Trucks, H. B. Schlegel, G. E. Scuseria, 
 M. A. Robb, J. R. Cheeseman, G. Scalmani, V. Barone, 
 G. A. Petersson, H. Nakatsuji, X. Li, M. Caricato, A. V. Marenich, 
 J. Bloino, B. G. Janesko, R. Gomperts, B. Mennucci, H. P. Hratchian, 
 J. V. Ortiz, A. F. Izmaylov, J. L. Sonnenberg, D. Williams-Young, 
 F. Ding, F. Lipparini, F. Egidi, J. Goings, B. Peng, A. Petrone, 
 T. Henderson, D. Ranasinghe, V. G. Zakrzewski, J. Gao, N. Rega, 
 G. Zheng, W. Liang, M. Hada, M. Ehara, K. Toyota, R. Fukuda, 
 J. Hasegawa, M. Ishida, T. Nakajima, Y. Honda, O. Kitao, H. Nakai, 
 T. Vreven, K. Throssell, J. A. Montgomery, Jr., J. E. Peralta, 
 F. Ogliaro, M. J. Bearpark, J. J. Heyd, E. N. Brothers, K. N. Kudin, 
 V. N. Staroverov, T. A. Keith, R. Kobayashi, J. Normand, 
 K. Raghavachari, A. P. Rendell, J. C. Burant, S. S. Iyengar, 
 J. Tomasi, M. Cossi, J. M. Millam, M. Klene, C. Adamo, R. Cammi, 
 J. W. Ochterski, R. L. Martin, K. Morokuma, O. Farkas, 
 J. B. Foresman, and D. J. Fox, Gaussian, Inc., Wallingford CT, 2016.
 
 ******************************************
 Gaussian 16:  ES64L-G16RevA.03 25-Dec-2016
                11-Feb-2020 
 ******************************************
 %chk=checkpoint.chk
 %mem=3GB
 %nprocshared=4
 Will use up to    4 processors via shared memory.
 ---------------------------------------------------------------------
 #t pop=none jul-cc-pvdz guess=read upbe1pbe empiricaldispersion=gd3bj
 ---------------------------------------------------------------------
 -----------------------------
 theory_abbreviation pbe0_d3bj
 -----------------------------
 Symbolic Z-matrix:
 Charge =  0 Multiplicity = 6
 O                    -0.35763  -0.27333  -0.59723 
 C                    -1.46353  -1.17361  -0.34036 
 C                    -2.69827  -0.15626  -0.31963 
 C                    -1.97476   1.17247  -0.23038 
 C                    -1.8208    2.01989  -1.42878 
 Fe                    1.38231   0.01696   0.00843 
 Cl                    1.78763   2.03119  -0.84584 
 C                    -1.62447   1.75941   1.07899 
 Cl                    2.61289  -1.6498   -0.70725 
 Cl                    1.34026   0.16045   2.22341 
 H                    -3.1771   -0.20318  -1.30268 
 H                    -2.52268   2.29787   1.42686 
 H                    -1.37588   1.01089   1.83149 
 H                    -0.80918   2.4812    0.99171 
 H                    -2.48853   2.88997  -1.31788 
 H                    -0.79546   2.40978  -1.47008 
 H                    -2.06316   1.49388  -2.35225 
 C                    -3.76415  -0.38273   0.7552 
 H                    -4.56286   0.36358   0.68077 
 H                    -4.22011  -1.36704   0.61292 
 H                    -3.35311  -0.34712   1.76668 
 C                    -1.2548   -1.92493   0.96924 
 H                    -2.08443  -2.61112   1.16682 
 H                    -0.33712  -2.51692   0.88915 
 H                    -1.13379  -1.25493   1.82236 
 C                    -1.56636  -2.14133  -1.51226 
 H                    -0.65726  -2.74918  -1.55978 
 H                    -2.42967  -2.80794  -1.40063 
 H                    -1.65898  -1.59289  -2.45447 
 
                    Distance matrix (angstroms):
                    1          2          3          4          5
     1  O    0.000000
     2  C    1.448961   0.000000
     3  C    2.359942   1.600000   0.000000
     4  C    2.200001   2.403647   1.515568   0.000000
     5  C    2.844503   3.392751   2.595345   1.475807   0.000000
     6  Fe   1.865067   3.104492   4.097401   3.558387   4.041928
     7  Cl   3.158284   4.593066   5.018474   3.907911   3.655225
     8  C    2.923457   3.262371   2.603651   1.477040   2.528888
     9  Cl   3.275784   4.120497   5.530752   5.407319   5.800416
    10  Cl   3.320692   4.026642   4.782998   4.246718   5.175740
    11  H    2.907228   2.191831   1.094467   2.118452   2.607203
    12  H    3.923696   4.036831   3.017254   2.076817   2.953736
    13  H    2.929966   3.081658   2.781772   2.153149   3.441712
    14  H    3.211863   3.944645   3.499211   2.136553   2.663628
    15  H    3.881565   4.303355   3.212480   2.096770   1.102365
    16  H    2.855280   3.816181   3.395403   2.111528   1.097739
    17  H    3.018602   3.394522   2.694046   2.147901   1.090059
    18  C    3.666799   2.668075   1.530578   2.567472   3.784044
    19  H    4.441041   3.607146   2.178933   2.860547   3.835685
    20  H    4.192779   2.923168   2.156765   3.493109   4.625638
    21  H    3.816590   2.948424   2.194980   2.863075   4.261650
    22  C    2.446733   1.524169   2.621633   3.398716   4.651071
    23  H    3.399843   2.173369   2.934730   4.034809   5.315344
    24  H    2.691362   2.141251   3.550892   4.188883   5.306292
    25  H    2.724031   2.189222   2.871026   3.288342   4.665439
    26  C    2.405766   1.523282   2.577599   3.576479   4.169826
    27  H    2.673225   2.149300   3.525181   4.345394   4.910710
    28  H    3.370911   2.174542   2.876120   4.173732   4.866158
    29  H    2.623753   2.164127   2.775160   3.562790   3.759045
                    6          7          8          9         10
     6  Fe   0.000000
     7  Cl   2.225127   0.000000
     8  C    3.636331   3.926983   0.000000
     9  Cl   2.191944   3.774914   5.724379   0.000000
    10  Cl   2.220017   3.622166   3.557526   3.672236   0.000000
    11  H    4.749278   5.463480   3.454672   5.997598   5.742130
    12  H    4.739553   4.880061   1.103509   6.820007   4.486128
    13  H    3.452394   4.268126   1.090113   5.425375   2.873027
    14  H    3.441214   3.212867   1.092376   5.626918   3.394569
    15  H    4.999668   4.387012   2.787422   6.856158   5.886480
    16  H    3.557278   2.684276   2.758250   5.355271   4.823133
    17  H    4.430049   4.169714   3.469344   5.869768   5.856446
    18  C    5.215694   6.261997   3.044976   6.664146   5.339078
    19  H    5.993091   6.740928   3.277356   7.581000   6.104735
    20  H    5.802408   7.054704   4.090145   6.965102   5.987042
    21  H    5.064397   6.237688   2.810444   6.588653   4.742778
    22  C    3.412976   5.310532   3.704468   4.224366   3.557542
    23  H    4.501877   6.371392   4.395546   5.147911   4.530617
    24  H    3.186321   5.311314   4.469931   3.464524   3.429601
    25  H    3.352423   5.143199   3.143185   4.537881   2.878375
    26  C    3.957945   5.394743   4.683339   4.284361   5.263251
    27  H    3.777653   5.416562   5.312816   3.553771   5.173835
    28  H    4.949411   6.442870   5.259043   5.220099   6.013098
    29  H    4.231656   5.253641   4.870770   4.615720   5.826849
                   11         12         13         14         15
    11  H    0.000000
    12  H    3.759502   0.000000
    13  H    3.813309   1.770646   0.000000
    14  H    4.251721   1.777366   1.785558   0.000000
    15  H    3.168900   2.808079   3.832421   2.884697   0.000000
    16  H    3.539459   3.374615   3.632371   2.462857   1.766423
    17  H    2.285277   3.890914   4.267237   3.705308   1.788839
    18  C    2.147492   3.029520   2.967222   4.121881   4.078653
    19  H    2.485078   2.908684   3.449630   4.321004   3.831458
    20  H    2.472234   4.120110   3.902444   5.156246   4.984821
    21  H    3.077765   2.793034   2.399540   3.882207   4.554196
    22  C    3.438206   4.432713   3.062213   4.428667   5.471404
    23  H    3.618080   4.935365   3.750032   5.252491   6.049710
    24  H    4.268836   5.314877   3.796368   5.021411   6.223663
    25  H    3.879067   3.835073   2.278726   3.841096   5.373695
    26  C    2.528796   5.409191   4.599275   5.311395   5.118802
    27  H    3.591357   6.154065   5.114219   5.821522   5.933983
    28  H    2.711646   5.837171   5.112773   6.026962   5.698816
    29  H    2.358515   5.563149   5.022867   5.403378   4.698514
                   16         17         18         19         20
    16  H    0.000000
    17  H    1.795593   0.000000
    18  C    4.643607   4.008904   0.000000
    19  H    4.796495   4.089661   1.095646   0.000000
    20  H    5.507398   4.650757   1.094076   1.765533   0.000000
    21  H    4.961715   4.692423   1.092392   1.774196   1.767229
    22  C    4.995091   4.834667   2.953143   4.032830   3.038304
    23  H    5.815845   5.406970   2.820749   3.902264   2.532922
    24  H    5.481638   5.438051   4.039459   5.118348   4.059079
    25  H    4.938082   5.084000   2.969579   3.959962   3.316736
    26  C    4.616126   3.763926   3.614455   4.479161   3.486869
    27  H    5.161591   4.539621   4.540048   5.473853   4.396006
    28  H    5.468094   4.421040   3.508569   4.352152   3.055524
    29  H    4.211417   3.114797   4.024696   4.699998   4.002403
                   21         22         23         24         25
    21  H    0.000000
    22  C    2.743774   0.000000
    23  H    2.663659   1.094613   0.000000
    24  H    3.817621   1.094984   1.771734   0.000000
    25  H    2.398459   1.091498   1.781213   1.760161   0.000000
    26  C    4.142828   2.510318   2.768847   2.723756   3.477424
    27  H    4.909465   2.726239   3.080618   2.480666   3.728104
    28  H    4.115845   2.788597   2.598015   3.115529   3.805102
    29  H    4.715937   3.463431   3.785694   3.712266   4.322186
                   26         27         28         29
    26  C    0.000000
    27  H    1.094633   0.000000
    28  H    1.096420   1.780514   0.000000
    29  H    1.094132   1.772266   1.783505   0.000000
 Framework group  C1[X(C8H16Cl3FeO)]
 Deg. of freedom    81
                         Standard orientation:                         
 ---------------------------------------------------------------------
 Center     Atomic      Atomic             Coordinates (Angstroms)
 Number     Number       Type             X           Y           Z
 ---------------------------------------------------------------------
      1          8           0       -0.357632   -0.273329   -0.597228
      2          6           0       -1.463526   -1.173609   -0.340360
      3          6           0       -2.698265   -0.156264   -0.319634
      4          6           0       -1.974761    1.172465   -0.230377
      5          6           0       -1.820797    2.019894   -1.428778
      6         26           0        1.382306    0.016961    0.008432
      7         17           0        1.787627    2.031192   -0.845839
      8          6           0       -1.624466    1.759413    1.078986
      9         17           0        2.612886   -1.649802   -0.707245
     10         17           0        1.340262    0.160451    2.223408
     11          1           0       -3.177099   -0.203178   -1.302678
     12          1           0       -2.522678    2.297867    1.426857
     13          1           0       -1.375883    1.010885    1.831488
     14          1           0       -0.809184    2.481204    0.991707
     15          1           0       -2.488534    2.889972   -1.317875
     16          1           0       -0.795460    2.409779   -1.470076
     17          1           0       -2.063156    1.493883   -2.352252
     18          6           0       -3.764154   -0.382730    0.755197
     19          1           0       -4.562856    0.363578    0.680773
     20          1           0       -4.220112   -1.367037    0.612915
     21          1           0       -3.353107   -0.347119    1.766677
     22          6           0       -1.254799   -1.924930    0.969236
     23          1           0       -2.084428   -2.611119    1.166815
     24          1           0       -0.337124   -2.516917    0.889151
     25          1           0       -1.133785   -1.254926    1.822359
     26          6           0       -1.566362   -2.141325   -1.512255
     27          1           0       -0.657257   -2.749182   -1.559782
     28          1           0       -2.429670   -2.807939   -1.400626
     29          1           0       -1.658981   -1.592888   -2.454467
 ---------------------------------------------------------------------
 Rotational constants (GHZ):           0.5793036           0.3592773           0.3184428
   427 basis functions,  1056 primitive gaussians,   461 cartesian basis functions
    77 alpha electrons       72 beta electrons
       nuclear repulsion energy      1658.1252863848 Hartrees.
 NAtoms=   29 NActive=   29 NUniq=   29 SFac= 1.00D+00 NAtFMM=   60 NAOKFM=F Big=F
 Nuclear repulsion after empirical dispersion term =     1658.0883166376 Hartrees.
 Initial guess from the checkpoint file:  "checkpoint.chk"
 B after Tr=     0.000000    0.000000    0.000000
         Rot=    1.000000    0.000000    0.000000    0.000000 Ang=   0.00 deg.
 Initial guess <Sx>= 0.0000 <Sy>= 0.0000 <Sz>= 2.5000 <S**2>= 8.7630 S= 2.5022
 SCF Done:  E(UPBE1PBE) =  -3033.15220555     A.U. after    1 cycles
            NFock=  1  Conv=0.16D-08     -V/T= 2.0022
 <Sx>= 0.0000 <Sy>= 0.0000 <Sz>= 2.5000 <S**2>= 8.7630 S= 2.5022
 <L.S>= 0.000000000000E+00
 Annihilation of the first spin contaminant:
 S**2 before annihilation     8.7630,   after     8.7501
 1\1\GINC-HOLY7C04109\SP\UPBE1PBE\Jul-CC-pVDZ\C8H16Cl3Fe1O1(6)\EKWAN\11
 -Feb-2020\0\\#t pop=none jul-cc-pvdz guess=read upbe1pbe empiricaldisp
 ersion=gd3bj\\theory_abbreviation pbe0_d3bj\\0,6\O,0,-0.357632,-0.2733
 29,-0.597228\C,0,-1.463526,-1.173609,-0.34036\C,0,-2.698265,-0.156264,
 -0.319634\C,0,-1.974761,1.172465,-0.230377\C,0,-1.820797,2.019894,-1.4
 28778\Fe,0,1.382306,0.016961,0.008432\Cl,0,1.787627,2.031192,-0.845839
 \C,0,-1.624466,1.759413,1.078986\Cl,0,2.612886,-1.649802,-0.707245\Cl,
 0,1.340262,0.160451,2.223408\H,0,-3.177099,-0.203178,-1.302678\H,0,-2.
 522678,2.297867,1.426857\H,0,-1.375883,1.010885,1.831488\H,0,-0.809184
 ,2.481204,0.991707\H,0,-2.488534,2.889972,-1.317875\H,0,-0.79546,2.409
 779,-1.470076\H,0,-2.063156,1.493883,-2.352252\C,0,-3.764154,-0.38273,
 0.755197\H,0,-4.562856,0.363578,0.680773\H,0,-4.220112,-1.367037,0.612
 915\H,0,-3.353107,-0.347119,1.766677\C,0,-1.254799,-1.92493,0.969236\H
 ,0,-2.084428,-2.611119,1.166815\H,0,-0.337124,-2.516917,0.889151\H,0,-
 1.133785,-1.254926,1.822359\C,0,-1.566362,-2.141325,-1.512255\H,0,-0.6
 57257,-2.749182,-1.559782\H,0,-2.42967,-2.807939,-1.400626\H,0,-1.6589
 81,-1.592888,-2.454467\\Version=ES64L-G16RevA.03\HF=-3033.1522055\S2=8
 .762992\S2-1=0.\S2A=8.750053\RMSD=1.589e-09\PG=C01 [X(C8H16Cl3Fe1O1)]\
 \@


 IF YOU GIVE EVERYONE A PIECE OF YOUR MIND,
 PRETTY SOON IT WILL BE ALL GONE.
 Job cpu time:       0 days  0 hours  4 minutes 36.7 seconds.
 Elapsed time:       0 days  0 hours  1 minutes  9.5 seconds.
 File lengths (MBytes):  RWF=    170 Int=      0 D2E=      0 Chk=     13 Scr=      1
 Normal termination of Gaussian 16 at Tue Feb 11 13:57:54 2020.
 Initial command:
 /n/sw/g16_nehalem/g16/l1.exe "/scratch/Gau-261446.inp" -scrdir="/scratch/"
 Entering Link 1 = /n/sw/g16_nehalem/g16/l1.exe PID=    263420.
  
 Copyright (c) 1988,1990,1992,1993,1995,1998,2003,2009,2016,
            Gaussian, Inc.  All Rights Reserved.
  
 This is part of the Gaussian(R) 16 program.  It is based on
 the Gaussian(R) 09 system (copyright 2009, Gaussian, Inc.),
 the Gaussian(R) 03 system (copyright 2003, Gaussian, Inc.),
 the Gaussian(R) 98 system (copyright 1998, Gaussian, Inc.),
 the Gaussian(R) 94 system (copyright 1995, Gaussian, Inc.),
 the Gaussian 92(TM) system (copyright 1992, Gaussian, Inc.),
 the Gaussian 90(TM) system (copyright 1990, Gaussian, Inc.),
 the Gaussian 88(TM) system (copyright 1988, Gaussian, Inc.),
 the Gaussian 86(TM) system (copyright 1986, Carnegie Mellon
 University), and the Gaussian 82(TM) system (copyright 1983,
 Carnegie Mellon University). Gaussian is a federally registered
 trademark of Gaussian, Inc.
  
 This software contains proprietary and confidential information,
 including trade secrets, belonging to Gaussian, Inc.
  
 This software is provided under written license and may be
 used, copied, transmitted, or stored only in accord with that
 written license.
  
 The following legend is applicable only to US Government
 contracts under FAR:
  
                    RESTRICTED RIGHTS LEGEND
  
 Use, reproduction and disclosure by the US Government is
 subject to restrictions as set forth in subparagraphs (a)
 and (c) of the Commercial Computer Software - Restricted
 Rights clause in FAR 52.227-19.
  
 Gaussian, Inc.
 340 Quinnipiac St., Bldg. 40, Wallingford CT 06492
  
  
 ---------------------------------------------------------------
 Warning -- This program may not be used in any manner that
 competes with the business of Gaussian, Inc. or will provide
 assistance to any competitor of Gaussian, Inc.  The licensee
 of this program is prohibited from giving any competitor of
 Gaussian, Inc. access to this program.  By using this program,
 the user acknowledges that Gaussian, Inc. is engaged in the
 business of creating and licensing software in the field of
 computational chemistry and represents and warrants to the
 licensee that it is not a competitor of Gaussian, Inc. and that
 it will not use this program in any manner prohibited above.
 ---------------------------------------------------------------
  

 Cite this work as:
 Gaussian 16, Revision A.03,
 M. J. Frisch, G. W. Trucks, H. B. Schlegel, G. E. Scuseria, 
 M. A. Robb, J. R. Cheeseman, G. Scalmani, V. Barone, 
 G. A. Petersson, H. Nakatsuji, X. Li, M. Caricato, A. V. Marenich, 
 J. Bloino, B. G. Janesko, R. Gomperts, B. Mennucci, H. P. Hratchian, 
 J. V. Ortiz, A. F. Izmaylov, J. L. Sonnenberg, D. Williams-Young, 
 F. Ding, F. Lipparini, F. Egidi, J. Goings, B. Peng, A. Petrone, 
 T. Henderson, D. Ranasinghe, V. G. Zakrzewski, J. Gao, N. Rega, 
 G. Zheng, W. Liang, M. Hada, M. Ehara, K. Toyota, R. Fukuda, 
 J. Hasegawa, M. Ishida, T. Nakajima, Y. Honda, O. Kitao, H. Nakai, 
 T. Vreven, K. Throssell, J. A. Montgomery, Jr., J. E. Peralta, 
 F. Ogliaro, M. J. Bearpark, J. J. Heyd, E. N. Brothers, K. N. Kudin, 
 V. N. Staroverov, T. A. Keith, R. Kobayashi, J. Normand, 
 K. Raghavachari, A. P. Rendell, J. C. Burant, S. S. Iyengar, 
 J. Tomasi, M. Cossi, J. M. Millam, M. Klene, C. Adamo, R. Cammi, 
 J. W. Ochterski, R. L. Martin, K. Morokuma, O. Farkas, 
 J. B. Foresman, and D. J. Fox, Gaussian, Inc., Wallingford CT, 2016.
 
 ******************************************
 Gaussian 16:  ES64L-G16RevA.03 25-Dec-2016
                11-Feb-2020 
 ******************************************
 %chk=checkpoint.chk
 %mem=3GB
 %nprocshared=4
 Will use up to    4 processors via shared memory.
 -----------------------------------------
 #t pop=none jul-cc-pvdz guess=read ub3lyp
 -----------------------------------------
 -------------------------
 theory_abbreviation b3lyp
 -------------------------
 Symbolic Z-matrix:
 Charge =  0 Multiplicity = 6
 O                    -0.35763  -0.27333  -0.59723 
 C                    -1.46353  -1.17361  -0.34036 
 C                    -2.69827  -0.15626  -0.31963 
 C                    -1.97476   1.17247  -0.23038 
 C                    -1.8208    2.01989  -1.42878 
 Fe                    1.38231   0.01696   0.00843 
 Cl                    1.78763   2.03119  -0.84584 
 C                    -1.62447   1.75941   1.07899 
 Cl                    2.61289  -1.6498   -0.70725 
 Cl                    1.34026   0.16045   2.22341 
 H                    -3.1771   -0.20318  -1.30268 
 H                    -2.52268   2.29787   1.42686 
 H                    -1.37588   1.01089   1.83149 
 H                    -0.80918   2.4812    0.99171 
 H                    -2.48853   2.88997  -1.31788 
 H                    -0.79546   2.40978  -1.47008 
 H                    -2.06316   1.49388  -2.35225 
 C                    -3.76415  -0.38273   0.7552 
 H                    -4.56286   0.36358   0.68077 
 H                    -4.22011  -1.36704   0.61292 
 H                    -3.35311  -0.34712   1.76668 
 C                    -1.2548   -1.92493   0.96924 
 H                    -2.08443  -2.61112   1.16682 
 H                    -0.33712  -2.51692   0.88915 
 H                    -1.13379  -1.25493   1.82236 
 C                    -1.56636  -2.14133  -1.51226 
 H                    -0.65726  -2.74918  -1.55978 
 H                    -2.42967  -2.80794  -1.40063 
 H                    -1.65898  -1.59289  -2.45447 
 
                    Distance matrix (angstroms):
                    1          2          3          4          5
     1  O    0.000000
     2  C    1.448961   0.000000
     3  C    2.359942   1.600000   0.000000
     4  C    2.200001   2.403647   1.515568   0.000000
     5  C    2.844503   3.392751   2.595345   1.475807   0.000000
     6  Fe   1.865067   3.104492   4.097401   3.558387   4.041928
     7  Cl   3.158284   4.593066   5.018474   3.907911   3.655225
     8  C    2.923457   3.262371   2.603651   1.477040   2.528888
     9  Cl   3.275784   4.120497   5.530752   5.407319   5.800416
    10  Cl   3.320692   4.026642   4.782998   4.246718   5.175740
    11  H    2.907228   2.191831   1.094467   2.118452   2.607203
    12  H    3.923696   4.036831   3.017254   2.076817   2.953736
    13  H    2.929966   3.081658   2.781772   2.153149   3.441712
    14  H    3.211863   3.944645   3.499211   2.136553   2.663628
    15  H    3.881565   4.303355   3.212480   2.096770   1.102365
    16  H    2.855280   3.816181   3.395403   2.111528   1.097739
    17  H    3.018602   3.394522   2.694046   2.147901   1.090059
    18  C    3.666799   2.668075   1.530578   2.567472   3.784044
    19  H    4.441041   3.607146   2.178933   2.860547   3.835685
    20  H    4.192779   2.923168   2.156765   3.493109   4.625638
    21  H    3.816590   2.948424   2.194980   2.863075   4.261650
    22  C    2.446733   1.524169   2.621633   3.398716   4.651071
    23  H    3.399843   2.173369   2.934730   4.034809   5.315344
    24  H    2.691362   2.141251   3.550892   4.188883   5.306292
    25  H    2.724031   2.189222   2.871026   3.288342   4.665439
    26  C    2.405766   1.523282   2.577599   3.576479   4.169826
    27  H    2.673225   2.149300   3.525181   4.345394   4.910710
    28  H    3.370911   2.174542   2.876120   4.173732   4.866158
    29  H    2.623753   2.164127   2.775160   3.562790   3.759045
                    6          7          8          9         10
     6  Fe   0.000000
     7  Cl   2.225127   0.000000
     8  C    3.636331   3.926983   0.000000
     9  Cl   2.191944   3.774914   5.724379   0.000000
    10  Cl   2.220017   3.622166   3.557526   3.672236   0.000000
    11  H    4.749278   5.463480   3.454672   5.997598   5.742130
    12  H    4.739553   4.880061   1.103509   6.820007   4.486128
    13  H    3.452394   4.268126   1.090113   5.425375   2.873027
    14  H    3.441214   3.212867   1.092376   5.626918   3.394569
    15  H    4.999668   4.387012   2.787422   6.856158   5.886480
    16  H    3.557278   2.684276   2.758250   5.355271   4.823133
    17  H    4.430049   4.169714   3.469344   5.869768   5.856446
    18  C    5.215694   6.261997   3.044976   6.664146   5.339078
    19  H    5.993091   6.740928   3.277356   7.581000   6.104735
    20  H    5.802408   7.054704   4.090145   6.965102   5.987042
    21  H    5.064397   6.237688   2.810444   6.588653   4.742778
    22  C    3.412976   5.310532   3.704468   4.224366   3.557542
    23  H    4.501877   6.371392   4.395546   5.147911   4.530617
    24  H    3.186321   5.311314   4.469931   3.464524   3.429601
    25  H    3.352423   5.143199   3.143185   4.537881   2.878375
    26  C    3.957945   5.394743   4.683339   4.284361   5.263251
    27  H    3.777653   5.416562   5.312816   3.553771   5.173835
    28  H    4.949411   6.442870   5.259043   5.220099   6.013098
    29  H    4.231656   5.253641   4.870770   4.615720   5.826849
                   11         12         13         14         15
    11  H    0.000000
    12  H    3.759502   0.000000
    13  H    3.813309   1.770646   0.000000
    14  H    4.251721   1.777366   1.785558   0.000000
    15  H    3.168900   2.808079   3.832421   2.884697   0.000000
    16  H    3.539459   3.374615   3.632371   2.462857   1.766423
    17  H    2.285277   3.890914   4.267237   3.705308   1.788839
    18  C    2.147492   3.029520   2.967222   4.121881   4.078653
    19  H    2.485078   2.908684   3.449630   4.321004   3.831458
    20  H    2.472234   4.120110   3.902444   5.156246   4.984821
    21  H    3.077765   2.793034   2.399540   3.882207   4.554196
    22  C    3.438206   4.432713   3.062213   4.428667   5.471404
    23  H    3.618080   4.935365   3.750032   5.252491   6.049710
    24  H    4.268836   5.314877   3.796368   5.021411   6.223663
    25  H    3.879067   3.835073   2.278726   3.841096   5.373695
    26  C    2.528796   5.409191   4.599275   5.311395   5.118802
    27  H    3.591357   6.154065   5.114219   5.821522   5.933983
    28  H    2.711646   5.837171   5.112773   6.026962   5.698816
    29  H    2.358515   5.563149   5.022867   5.403378   4.698514
                   16         17         18         19         20
    16  H    0.000000
    17  H    1.795593   0.000000
    18  C    4.643607   4.008904   0.000000
    19  H    4.796495   4.089661   1.095646   0.000000
    20  H    5.507398   4.650757   1.094076   1.765533   0.000000
    21  H    4.961715   4.692423   1.092392   1.774196   1.767229
    22  C    4.995091   4.834667   2.953143   4.032830   3.038304
    23  H    5.815845   5.406970   2.820749   3.902264   2.532922
    24  H    5.481638   5.438051   4.039459   5.118348   4.059079
    25  H    4.938082   5.084000   2.969579   3.959962   3.316736
    26  C    4.616126   3.763926   3.614455   4.479161   3.486869
    27  H    5.161591   4.539621   4.540048   5.473853   4.396006
    28  H    5.468094   4.421040   3.508569   4.352152   3.055524
    29  H    4.211417   3.114797   4.024696   4.699998   4.002403
                   21         22         23         24         25
    21  H    0.000000
    22  C    2.743774   0.000000
    23  H    2.663659   1.094613   0.000000
    24  H    3.817621   1.094984   1.771734   0.000000
    25  H    2.398459   1.091498   1.781213   1.760161   0.000000
    26  C    4.142828   2.510318   2.768847   2.723756   3.477424
    27  H    4.909465   2.726239   3.080618   2.480666   3.728104
    28  H    4.115845   2.788597   2.598015   3.115529   3.805102
    29  H    4.715937   3.463431   3.785694   3.712266   4.322186
                   26         27         28         29
    26  C    0.000000
    27  H    1.094633   0.000000
    28  H    1.096420   1.780514   0.000000
    29  H    1.094132   1.772266   1.783505   0.000000
 Framework group  C1[X(C8H16Cl3FeO)]
 Deg. of freedom    81
                         Standard orientation:                         
 ---------------------------------------------------------------------
 Center     Atomic      Atomic             Coordinates (Angstroms)
 Number     Number       Type             X           Y           Z
 ---------------------------------------------------------------------
      1          8           0       -0.357632   -0.273329   -0.597228
      2          6           0       -1.463526   -1.173609   -0.340360
      3          6           0       -2.698265   -0.156264   -0.319634
      4          6           0       -1.974761    1.172465   -0.230377
      5          6           0       -1.820797    2.019894   -1.428778
      6         26           0        1.382306    0.016961    0.008432
      7         17           0        1.787627    2.031192   -0.845839
      8          6           0       -1.624466    1.759413    1.078986
      9         17           0        2.612886   -1.649802   -0.707245
     10         17           0        1.340262    0.160451    2.223408
     11          1           0       -3.177099   -0.203178   -1.302678
     12          1           0       -2.522678    2.297867    1.426857
     13          1           0       -1.375883    1.010885    1.831488
     14          1           0       -0.809184    2.481204    0.991707
     15          1           0       -2.488534    2.889972   -1.317875
     16          1           0       -0.795460    2.409779   -1.470076
     17          1           0       -2.063156    1.493883   -2.352252
     18          6           0       -3.764154   -0.382730    0.755197
     19          1           0       -4.562856    0.363578    0.680773
     20          1           0       -4.220112   -1.367037    0.612915
     21          1           0       -3.353107   -0.347119    1.766677
     22          6           0       -1.254799   -1.924930    0.969236
     23          1           0       -2.084428   -2.611119    1.166815
     24          1           0       -0.337124   -2.516917    0.889151
     25          1           0       -1.133785   -1.254926    1.822359
     26          6           0       -1.566362   -2.141325   -1.512255
     27          1           0       -0.657257   -2.749182   -1.559782
     28          1           0       -2.429670   -2.807939   -1.400626
     29          1           0       -1.658981   -1.592888   -2.454467
 ---------------------------------------------------------------------
 Rotational constants (GHZ):           0.5793036           0.3592773           0.3184428
   427 basis functions,  1056 primitive gaussians,   461 cartesian basis functions
    77 alpha electrons       72 beta electrons
       nuclear repulsion energy      1658.1252863848 Hartrees.
 NAtoms=   29 NActive=   29 NUniq=   29 SFac= 1.00D+00 NAtFMM=   60 NAOKFM=F Big=F
 Initial guess from the checkpoint file:  "checkpoint.chk"
 B after Tr=     0.000000    0.000000    0.000000
         Rot=    1.000000    0.000000    0.000000    0.000000 Ang=   0.00 deg.
 Initial guess <Sx>= 0.0000 <Sy>= 0.0000 <Sz>= 2.5000 <S**2>= 8.7630 S= 2.5022
 SCF Done:  E(UB3LYP) =  -3034.32786159     A.U. after   13 cycles
            NFock= 13  Conv=0.49D-08     -V/T= 2.0025
 <Sx>= 0.0000 <Sy>= 0.0000 <Sz>= 2.5000 <S**2>= 8.7624 S= 2.5021
 <L.S>= 0.000000000000E+00
 Annihilation of the first spin contaminant:
 S**2 before annihilation     8.7624,   after     8.7500
 1\1\GINC-HOLY7C04109\SP\UB3LYP\Jul-CC-pVDZ\C8H16Cl3Fe1O1(6)\EKWAN\11-F
 eb-2020\0\\#t pop=none jul-cc-pvdz guess=read ub3lyp\\theory_abbreviat
 ion b3lyp\\0,6\O,0,-0.357632,-0.273329,-0.597228\C,0,-1.463526,-1.1736
 09,-0.34036\C,0,-2.698265,-0.156264,-0.319634\C,0,-1.974761,1.172465,-
 0.230377\C,0,-1.820797,2.019894,-1.428778\Fe,0,1.382306,0.016961,0.008
 432\Cl,0,1.787627,2.031192,-0.845839\C,0,-1.624466,1.759413,1.078986\C
 l,0,2.612886,-1.649802,-0.707245\Cl,0,1.340262,0.160451,2.223408\H,0,-
 3.177099,-0.203178,-1.302678\H,0,-2.522678,2.297867,1.426857\H,0,-1.37
 5883,1.010885,1.831488\H,0,-0.809184,2.481204,0.991707\H,0,-2.488534,2
 .889972,-1.317875\H,0,-0.79546,2.409779,-1.470076\H,0,-2.063156,1.4938
 83,-2.352252\C,0,-3.764154,-0.38273,0.755197\H,0,-4.562856,0.363578,0.
 680773\H,0,-4.220112,-1.367037,0.612915\H,0,-3.353107,-0.347119,1.7666
 77\C,0,-1.254799,-1.92493,0.969236\H,0,-2.084428,-2.611119,1.166815\H,
 0,-0.337124,-2.516917,0.889151\H,0,-1.133785,-1.254926,1.822359\C,0,-1
 .566362,-2.141325,-1.512255\H,0,-0.657257,-2.749182,-1.559782\H,0,-2.4
 2967,-2.807939,-1.400626\H,0,-1.658981,-1.592888,-2.454467\\Version=ES
 64L-G16RevA.03\HF=-3034.3278616\S2=8.762402\S2-1=0.\S2A=8.750048\RMSD=
 4.874e-09\PG=C01 [X(C8H16Cl3Fe1O1)]\\@


 SILVERMAN'S PARADOX - IF MURPHY'S LAW CAN GO WRONG, IT WILL.
 Job cpu time:       0 days  0 hours 54 minutes 32.6 seconds.
 Elapsed time:       0 days  0 hours 13 minutes 40.3 seconds.
 File lengths (MBytes):  RWF=    174 Int=      0 D2E=      0 Chk=     13 Scr=      1
 Normal termination of Gaussian 16 at Tue Feb 11 14:11:35 2020.
 Initial command:
 /n/sw/g16_nehalem/g16/l1.exe "/scratch/Gau-261446.inp" -scrdir="/scratch/"
 Entering Link 1 = /n/sw/g16_nehalem/g16/l1.exe PID=    264316.
  
 Copyright (c) 1988,1990,1992,1993,1995,1998,2003,2009,2016,
            Gaussian, Inc.  All Rights Reserved.
  
 This is part of the Gaussian(R) 16 program.  It is based on
 the Gaussian(R) 09 system (copyright 2009, Gaussian, Inc.),
 the Gaussian(R) 03 system (copyright 2003, Gaussian, Inc.),
 the Gaussian(R) 98 system (copyright 1998, Gaussian, Inc.),
 the Gaussian(R) 94 system (copyright 1995, Gaussian, Inc.),
 the Gaussian 92(TM) system (copyright 1992, Gaussian, Inc.),
 the Gaussian 90(TM) system (copyright 1990, Gaussian, Inc.),
 the Gaussian 88(TM) system (copyright 1988, Gaussian, Inc.),
 the Gaussian 86(TM) system (copyright 1986, Carnegie Mellon
 University), and the Gaussian 82(TM) system (copyright 1983,
 Carnegie Mellon University). Gaussian is a federally registered
 trademark of Gaussian, Inc.
  
 This software contains proprietary and confidential information,
 including trade secrets, belonging to Gaussian, Inc.
  
 This software is provided under written license and may be
 used, copied, transmitted, or stored only in accord with that
 written license.
  
 The following legend is applicable only to US Government
 contracts under FAR:
  
                    RESTRICTED RIGHTS LEGEND
  
 Use, reproduction and disclosure by the US Government is
 subject to restrictions as set forth in subparagraphs (a)
 and (c) of the Commercial Computer Software - Restricted
 Rights clause in FAR 52.227-19.
  
 Gaussian, Inc.
 340 Quinnipiac St., Bldg. 40, Wallingford CT 06492
  
  
 ---------------------------------------------------------------
 Warning -- This program may not be used in any manner that
 competes with the business of Gaussian, Inc. or will provide
 assistance to any competitor of Gaussian, Inc.  The licensee
 of this program is prohibited from giving any competitor of
 Gaussian, Inc. access to this program.  By using this program,
 the user acknowledges that Gaussian, Inc. is engaged in the
 business of creating and licensing software in the field of
 computational chemistry and represents and warrants to the
 licensee that it is not a competitor of Gaussian, Inc. and that
 it will not use this program in any manner prohibited above.
 ---------------------------------------------------------------
  

 Cite this work as:
 Gaussian 16, Revision A.03,
 M. J. Frisch, G. W. Trucks, H. B. Schlegel, G. E. Scuseria, 
 M. A. Robb, J. R. Cheeseman, G. Scalmani, V. Barone, 
 G. A. Petersson, H. Nakatsuji, X. Li, M. Caricato, A. V. Marenich, 
 J. Bloino, B. G. Janesko, R. Gomperts, B. Mennucci, H. P. Hratchian, 
 J. V. Ortiz, A. F. Izmaylov, J. L. Sonnenberg, D. Williams-Young, 
 F. Ding, F. Lipparini, F. Egidi, J. Goings, B. Peng, A. Petrone, 
 T. Henderson, D. Ranasinghe, V. G. Zakrzewski, J. Gao, N. Rega, 
 G. Zheng, W. Liang, M. Hada, M. Ehara, K. Toyota, R. Fukuda, 
 J. Hasegawa, M. Ishida, T. Nakajima, Y. Honda, O. Kitao, H. Nakai, 
 T. Vreven, K. Throssell, J. A. Montgomery, Jr., J. E. Peralta, 
 F. Ogliaro, M. J. Bearpark, J. J. Heyd, E. N. Brothers, K. N. Kudin, 
 V. N. Staroverov, T. A. Keith, R. Kobayashi, J. Normand, 
 K. Raghavachari, A. P. Rendell, J. C. Burant, S. S. Iyengar, 
 J. Tomasi, M. Cossi, J. M. Millam, M. Klene, C. Adamo, R. Cammi, 
 J. W. Ochterski, R. L. Martin, K. Morokuma, O. Farkas, 
 J. B. Foresman, and D. J. Fox, Gaussian, Inc., Wallingford CT, 2016.
 
 ******************************************
 Gaussian 16:  ES64L-G16RevA.03 25-Dec-2016
                11-Feb-2020 
 ******************************************
 %chk=checkpoint.chk
 %mem=3GB
 %nprocshared=4
 Will use up to    4 processors via shared memory.
 -------------------------------------------------------------------
 #t pop=none jul-cc-pvdz guess=read ub3lyp empiricaldispersion=gd3bj
 -------------------------------------------------------------------
 ------------------------------
 theory_abbreviation b3lyp_d3bj
 ------------------------------
 Symbolic Z-matrix:
 Charge =  0 Multiplicity = 6
 O                    -0.35763  -0.27333  -0.59723 
 C                    -1.46353  -1.17361  -0.34036 
 C                    -2.69827  -0.15626  -0.31963 
 C                    -1.97476   1.17247  -0.23038 
 C                    -1.8208    2.01989  -1.42878 
 Fe                    1.38231   0.01696   0.00843 
 Cl                    1.78763   2.03119  -0.84584 
 C                    -1.62447   1.75941   1.07899 
 Cl                    2.61289  -1.6498   -0.70725 
 Cl                    1.34026   0.16045   2.22341 
 H                    -3.1771   -0.20318  -1.30268 
 H                    -2.52268   2.29787   1.42686 
 H                    -1.37588   1.01089   1.83149 
 H                    -0.80918   2.4812    0.99171 
 H                    -2.48853   2.88997  -1.31788 
 H                    -0.79546   2.40978  -1.47008 
 H                    -2.06316   1.49388  -2.35225 
 C                    -3.76415  -0.38273   0.7552 
 H                    -4.56286   0.36358   0.68077 
 H                    -4.22011  -1.36704   0.61292 
 H                    -3.35311  -0.34712   1.76668 
 C                    -1.2548   -1.92493   0.96924 
 H                    -2.08443  -2.61112   1.16682 
 H                    -0.33712  -2.51692   0.88915 
 H                    -1.13379  -1.25493   1.82236 
 C                    -1.56636  -2.14133  -1.51226 
 H                    -0.65726  -2.74918  -1.55978 
 H                    -2.42967  -2.80794  -1.40063 
 H                    -1.65898  -1.59289  -2.45447 
 
                    Distance matrix (angstroms):
                    1          2          3          4          5
     1  O    0.000000
     2  C    1.448961   0.000000
     3  C    2.359942   1.600000   0.000000
     4  C    2.200001   2.403647   1.515568   0.000000
     5  C    2.844503   3.392751   2.595345   1.475807   0.000000
     6  Fe   1.865067   3.104492   4.097401   3.558387   4.041928
     7  Cl   3.158284   4.593066   5.018474   3.907911   3.655225
     8  C    2.923457   3.262371   2.603651   1.477040   2.528888
     9  Cl   3.275784   4.120497   5.530752   5.407319   5.800416
    10  Cl   3.320692   4.026642   4.782998   4.246718   5.175740
    11  H    2.907228   2.191831   1.094467   2.118452   2.607203
    12  H    3.923696   4.036831   3.017254   2.076817   2.953736
    13  H    2.929966   3.081658   2.781772   2.153149   3.441712
    14  H    3.211863   3.944645   3.499211   2.136553   2.663628
    15  H    3.881565   4.303355   3.212480   2.096770   1.102365
    16  H    2.855280   3.816181   3.395403   2.111528   1.097739
    17  H    3.018602   3.394522   2.694046   2.147901   1.090059
    18  C    3.666799   2.668075   1.530578   2.567472   3.784044
    19  H    4.441041   3.607146   2.178933   2.860547   3.835685
    20  H    4.192779   2.923168   2.156765   3.493109   4.625638
    21  H    3.816590   2.948424   2.194980   2.863075   4.261650
    22  C    2.446733   1.524169   2.621633   3.398716   4.651071
    23  H    3.399843   2.173369   2.934730   4.034809   5.315344
    24  H    2.691362   2.141251   3.550892   4.188883   5.306292
    25  H    2.724031   2.189222   2.871026   3.288342   4.665439
    26  C    2.405766   1.523282   2.577599   3.576479   4.169826
    27  H    2.673225   2.149300   3.525181   4.345394   4.910710
    28  H    3.370911   2.174542   2.876120   4.173732   4.866158
    29  H    2.623753   2.164127   2.775160   3.562790   3.759045
                    6          7          8          9         10
     6  Fe   0.000000
     7  Cl   2.225127   0.000000
     8  C    3.636331   3.926983   0.000000
     9  Cl   2.191944   3.774914   5.724379   0.000000
    10  Cl   2.220017   3.622166   3.557526   3.672236   0.000000
    11  H    4.749278   5.463480   3.454672   5.997598   5.742130
    12  H    4.739553   4.880061   1.103509   6.820007   4.486128
    13  H    3.452394   4.268126   1.090113   5.425375   2.873027
    14  H    3.441214   3.212867   1.092376   5.626918   3.394569
    15  H    4.999668   4.387012   2.787422   6.856158   5.886480
    16  H    3.557278   2.684276   2.758250   5.355271   4.823133
    17  H    4.430049   4.169714   3.469344   5.869768   5.856446
    18  C    5.215694   6.261997   3.044976   6.664146   5.339078
    19  H    5.993091   6.740928   3.277356   7.581000   6.104735
    20  H    5.802408   7.054704   4.090145   6.965102   5.987042
    21  H    5.064397   6.237688   2.810444   6.588653   4.742778
    22  C    3.412976   5.310532   3.704468   4.224366   3.557542
    23  H    4.501877   6.371392   4.395546   5.147911   4.530617
    24  H    3.186321   5.311314   4.469931   3.464524   3.429601
    25  H    3.352423   5.143199   3.143185   4.537881   2.878375
    26  C    3.957945   5.394743   4.683339   4.284361   5.263251
    27  H    3.777653   5.416562   5.312816   3.553771   5.173835
    28  H    4.949411   6.442870   5.259043   5.220099   6.013098
    29  H    4.231656   5.253641   4.870770   4.615720   5.826849
                   11         12         13         14         15
    11  H    0.000000
    12  H    3.759502   0.000000
    13  H    3.813309   1.770646   0.000000
    14  H    4.251721   1.777366   1.785558   0.000000
    15  H    3.168900   2.808079   3.832421   2.884697   0.000000
    16  H    3.539459   3.374615   3.632371   2.462857   1.766423
    17  H    2.285277   3.890914   4.267237   3.705308   1.788839
    18  C    2.147492   3.029520   2.967222   4.121881   4.078653
    19  H    2.485078   2.908684   3.449630   4.321004   3.831458
    20  H    2.472234   4.120110   3.902444   5.156246   4.984821
    21  H    3.077765   2.793034   2.399540   3.882207   4.554196
    22  C    3.438206   4.432713   3.062213   4.428667   5.471404
    23  H    3.618080   4.935365   3.750032   5.252491   6.049710
    24  H    4.268836   5.314877   3.796368   5.021411   6.223663
    25  H    3.879067   3.835073   2.278726   3.841096   5.373695
    26  C    2.528796   5.409191   4.599275   5.311395   5.118802
    27  H    3.591357   6.154065   5.114219   5.821522   5.933983
    28  H    2.711646   5.837171   5.112773   6.026962   5.698816
    29  H    2.358515   5.563149   5.022867   5.403378   4.698514
                   16         17         18         19         20
    16  H    0.000000
    17  H    1.795593   0.000000
    18  C    4.643607   4.008904   0.000000
    19  H    4.796495   4.089661   1.095646   0.000000
    20  H    5.507398   4.650757   1.094076   1.765533   0.000000
    21  H    4.961715   4.692423   1.092392   1.774196   1.767229
    22  C    4.995091   4.834667   2.953143   4.032830   3.038304
    23  H    5.815845   5.406970   2.820749   3.902264   2.532922
    24  H    5.481638   5.438051   4.039459   5.118348   4.059079
    25  H    4.938082   5.084000   2.969579   3.959962   3.316736
    26  C    4.616126   3.763926   3.614455   4.479161   3.486869
    27  H    5.161591   4.539621   4.540048   5.473853   4.396006
    28  H    5.468094   4.421040   3.508569   4.352152   3.055524
    29  H    4.211417   3.114797   4.024696   4.699998   4.002403
                   21         22         23         24         25
    21  H    0.000000
    22  C    2.743774   0.000000
    23  H    2.663659   1.094613   0.000000
    24  H    3.817621   1.094984   1.771734   0.000000
    25  H    2.398459   1.091498   1.781213   1.760161   0.000000
    26  C    4.142828   2.510318   2.768847   2.723756   3.477424
    27  H    4.909465   2.726239   3.080618   2.480666   3.728104
    28  H    4.115845   2.788597   2.598015   3.115529   3.805102
    29  H    4.715937   3.463431   3.785694   3.712266   4.322186
                   26         27         28         29
    26  C    0.000000
    27  H    1.094633   0.000000
    28  H    1.096420   1.780514   0.000000
    29  H    1.094132   1.772266   1.783505   0.000000
 Framework group  C1[X(C8H16Cl3FeO)]
 Deg. of freedom    81
                         Standard orientation:                         
 ---------------------------------------------------------------------
 Center     Atomic      Atomic             Coordinates (Angstroms)
 Number     Number       Type             X           Y           Z
 ---------------------------------------------------------------------
      1          8           0       -0.357632   -0.273329   -0.597228
      2          6           0       -1.463526   -1.173609   -0.340360
      3          6           0       -2.698265   -0.156264   -0.319634
      4          6           0       -1.974761    1.172465   -0.230377
      5          6           0       -1.820797    2.019894   -1.428778
      6         26           0        1.382306    0.016961    0.008432
      7         17           0        1.787627    2.031192   -0.845839
      8          6           0       -1.624466    1.759413    1.078986
      9         17           0        2.612886   -1.649802   -0.707245
     10         17           0        1.340262    0.160451    2.223408
     11          1           0       -3.177099   -0.203178   -1.302678
     12          1           0       -2.522678    2.297867    1.426857
     13          1           0       -1.375883    1.010885    1.831488
     14          1           0       -0.809184    2.481204    0.991707
     15          1           0       -2.488534    2.889972   -1.317875
     16          1           0       -0.795460    2.409779   -1.470076
     17          1           0       -2.063156    1.493883   -2.352252
     18          6           0       -3.764154   -0.382730    0.755197
     19          1           0       -4.562856    0.363578    0.680773
     20          1           0       -4.220112   -1.367037    0.612915
     21          1           0       -3.353107   -0.347119    1.766677
     22          6           0       -1.254799   -1.924930    0.969236
     23          1           0       -2.084428   -2.611119    1.166815
     24          1           0       -0.337124   -2.516917    0.889151
     25          1           0       -1.133785   -1.254926    1.822359
     26          6           0       -1.566362   -2.141325   -1.512255
     27          1           0       -0.657257   -2.749182   -1.559782
     28          1           0       -2.429670   -2.807939   -1.400626
     29          1           0       -1.658981   -1.592888   -2.454467
 ---------------------------------------------------------------------
 Rotational constants (GHZ):           0.5793036           0.3592773           0.3184428
   427 basis functions,  1056 primitive gaussians,   461 cartesian basis functions
    77 alpha electrons       72 beta electrons
       nuclear repulsion energy      1658.1252863848 Hartrees.
 NAtoms=   29 NActive=   29 NUniq=   29 SFac= 1.00D+00 NAtFMM=   60 NAOKFM=F Big=F
 Nuclear repulsion after empirical dispersion term =     1658.0564328190 Hartrees.
 Initial guess from the checkpoint file:  "checkpoint.chk"
 B after Tr=     0.000000    0.000000    0.000000
         Rot=    1.000000    0.000000    0.000000    0.000000 Ang=   0.00 deg.
 Initial guess <Sx>= 0.0000 <Sy>= 0.0000 <Sz>= 2.5000 <S**2>= 8.7624 S= 2.5021
 SCF Done:  E(UB3LYP) =  -3034.39671516     A.U. after    1 cycles
            NFock=  1  Conv=0.37D-08     -V/T= 2.0025
 <Sx>= 0.0000 <Sy>= 0.0000 <Sz>= 2.5000 <S**2>= 8.7624 S= 2.5021
 <L.S>= 0.000000000000E+00
 Annihilation of the first spin contaminant:
 S**2 before annihilation     8.7624,   after     8.7500
 1\1\GINC-HOLY7C04109\SP\UB3LYP\Jul-CC-pVDZ\C8H16Cl3Fe1O1(6)\EKWAN\11-F
 eb-2020\0\\#t pop=none jul-cc-pvdz guess=read ub3lyp empiricaldispersi
 on=gd3bj\\theory_abbreviation b3lyp_d3bj\\0,6\O,0,-0.357632,-0.273329,
 -0.597228\C,0,-1.463526,-1.173609,-0.34036\C,0,-2.698265,-0.156264,-0.
 319634\C,0,-1.974761,1.172465,-0.230377\C,0,-1.820797,2.019894,-1.4287
 78\Fe,0,1.382306,0.016961,0.008432\Cl,0,1.787627,2.031192,-0.845839\C,
 0,-1.624466,1.759413,1.078986\Cl,0,2.612886,-1.649802,-0.707245\Cl,0,1
 .340262,0.160451,2.223408\H,0,-3.177099,-0.203178,-1.302678\H,0,-2.522
 678,2.297867,1.426857\H,0,-1.375883,1.010885,1.831488\H,0,-0.809184,2.
 481204,0.991707\H,0,-2.488534,2.889972,-1.317875\H,0,-0.79546,2.409779
 ,-1.470076\H,0,-2.063156,1.493883,-2.352252\C,0,-3.764154,-0.38273,0.7
 55197\H,0,-4.562856,0.363578,0.680773\H,0,-4.220112,-1.367037,0.612915
 \H,0,-3.353107,-0.347119,1.766677\C,0,-1.254799,-1.92493,0.969236\H,0,
 -2.084428,-2.611119,1.166815\H,0,-0.337124,-2.516917,0.889151\H,0,-1.1
 33785,-1.254926,1.822359\C,0,-1.566362,-2.141325,-1.512255\H,0,-0.6572
 57,-2.749182,-1.559782\H,0,-2.42967,-2.807939,-1.400626\H,0,-1.658981,
 -1.592888,-2.454467\\Version=ES64L-G16RevA.03\HF=-3034.3967152\S2=8.76
 2402\S2-1=0.\S2A=8.750048\RMSD=3.714e-09\PG=C01 [X(C8H16Cl3Fe1O1)]\\@


 VIRTUE IS LEARNED AT YOUR MOTHER'S KNEE,
 VICES ARE PICKED UP AT SOME OTHER JOINT.
 Job cpu time:       0 days  0 hours  4 minutes 36.1 seconds.
 Elapsed time:       0 days  0 hours  1 minutes  9.4 seconds.
 File lengths (MBytes):  RWF=    170 Int=      0 D2E=      0 Chk=     13 Scr=      1
 Normal termination of Gaussian 16 at Tue Feb 11 14:12:45 2020.
 Initial command:
 /n/sw/g16_nehalem/g16/l1.exe "/scratch/Gau-261446.inp" -scrdir="/scratch/"
 Entering Link 1 = /n/sw/g16_nehalem/g16/l1.exe PID=    264428.
  
 Copyright (c) 1988,1990,1992,1993,1995,1998,2003,2009,2016,
            Gaussian, Inc.  All Rights Reserved.
  
 This is part of the Gaussian(R) 16 program.  It is based on
 the Gaussian(R) 09 system (copyright 2009, Gaussian, Inc.),
 the Gaussian(R) 03 system (copyright 2003, Gaussian, Inc.),
 the Gaussian(R) 98 system (copyright 1998, Gaussian, Inc.),
 the Gaussian(R) 94 system (copyright 1995, Gaussian, Inc.),
 the Gaussian 92(TM) system (copyright 1992, Gaussian, Inc.),
 the Gaussian 90(TM) system (copyright 1990, Gaussian, Inc.),
 the Gaussian 88(TM) system (copyright 1988, Gaussian, Inc.),
 the Gaussian 86(TM) system (copyright 1986, Carnegie Mellon
 University), and the Gaussian 82(TM) system (copyright 1983,
 Carnegie Mellon University). Gaussian is a federally registered
 trademark of Gaussian, Inc.
  
 This software contains proprietary and confidential information,
 including trade secrets, belonging to Gaussian, Inc.
  
 This software is provided under written license and may be
 used, copied, transmitted, or stored only in accord with that
 written license.
  
 The following legend is applicable only to US Government
 contracts under FAR:
  
                    RESTRICTED RIGHTS LEGEND
  
 Use, reproduction and disclosure by the US Government is
 subject to restrictions as set forth in subparagraphs (a)
 and (c) of the Commercial Computer Software - Restricted
 Rights clause in FAR 52.227-19.
  
 Gaussian, Inc.
 340 Quinnipiac St., Bldg. 40, Wallingford CT 06492
  
  
 ---------------------------------------------------------------
 Warning -- This program may not be used in any manner that
 competes with the business of Gaussian, Inc. or will provide
 assistance to any competitor of Gaussian, Inc.  The licensee
 of this program is prohibited from giving any competitor of
 Gaussian, Inc. access to this program.  By using this program,
 the user acknowledges that Gaussian, Inc. is engaged in the
 business of creating and licensing software in the field of
 computational chemistry and represents and warrants to the
 licensee that it is not a competitor of Gaussian, Inc. and that
 it will not use this program in any manner prohibited above.
 ---------------------------------------------------------------
  

 Cite this work as:
 Gaussian 16, Revision A.03,
 M. J. Frisch, G. W. Trucks, H. B. Schlegel, G. E. Scuseria, 
 M. A. Robb, J. R. Cheeseman, G. Scalmani, V. Barone, 
 G. A. Petersson, H. Nakatsuji, X. Li, M. Caricato, A. V. Marenich, 
 J. Bloino, B. G. Janesko, R. Gomperts, B. Mennucci, H. P. Hratchian, 
 J. V. Ortiz, A. F. Izmaylov, J. L. Sonnenberg, D. Williams-Young, 
 F. Ding, F. Lipparini, F. Egidi, J. Goings, B. Peng, A. Petrone, 
 T. Henderson, D. Ranasinghe, V. G. Zakrzewski, J. Gao, N. Rega, 
 G. Zheng, W. Liang, M. Hada, M. Ehara, K. Toyota, R. Fukuda, 
 J. Hasegawa, M. Ishida, T. Nakajima, Y. Honda, O. Kitao, H. Nakai, 
 T. Vreven, K. Throssell, J. A. Montgomery, Jr., J. E. Peralta, 
 F. Ogliaro, M. J. Bearpark, J. J. Heyd, E. N. Brothers, K. N. Kudin, 
 V. N. Staroverov, T. A. Keith, R. Kobayashi, J. Normand, 
 K. Raghavachari, A. P. Rendell, J. C. Burant, S. S. Iyengar, 
 J. Tomasi, M. Cossi, J. M. Millam, M. Klene, C. Adamo, R. Cammi, 
 J. W. Ochterski, R. L. Martin, K. Morokuma, O. Farkas, 
 J. B. Foresman, and D. J. Fox, Gaussian, Inc., Wallingford CT, 2016.
 
 ******************************************
 Gaussian 16:  ES64L-G16RevA.03 25-Dec-2016
                11-Feb-2020 
 ******************************************
 %chk=checkpoint.chk
 %mem=3GB
 %nprocshared=4
 Will use up to    4 processors via shared memory.
 ----------------------------------------
 #t pop=none jul-cc-pvdz guess=read ub97d
 ----------------------------------------
 ------------------------
 theory_abbreviation b97d
 ------------------------
 Symbolic Z-matrix:
 Charge =  0 Multiplicity = 6
 O                    -0.35763  -0.27333  -0.59723 
 C                    -1.46353  -1.17361  -0.34036 
 C                    -2.69827  -0.15626  -0.31963 
 C                    -1.97476   1.17247  -0.23038 
 C                    -1.8208    2.01989  -1.42878 
 Fe                    1.38231   0.01696   0.00843 
 Cl                    1.78763   2.03119  -0.84584 
 C                    -1.62447   1.75941   1.07899 
 Cl                    2.61289  -1.6498   -0.70725 
 Cl                    1.34026   0.16045   2.22341 
 H                    -3.1771   -0.20318  -1.30268 
 H                    -2.52268   2.29787   1.42686 
 H                    -1.37588   1.01089   1.83149 
 H                    -0.80918   2.4812    0.99171 
 H                    -2.48853   2.88997  -1.31788 
 H                    -0.79546   2.40978  -1.47008 
 H                    -2.06316   1.49388  -2.35225 
 C                    -3.76415  -0.38273   0.7552 
 H                    -4.56286   0.36358   0.68077 
 H                    -4.22011  -1.36704   0.61292 
 H                    -3.35311  -0.34712   1.76668 
 C                    -1.2548   -1.92493   0.96924 
 H                    -2.08443  -2.61112   1.16682 
 H                    -0.33712  -2.51692   0.88915 
 H                    -1.13379  -1.25493   1.82236 
 C                    -1.56636  -2.14133  -1.51226 
 H                    -0.65726  -2.74918  -1.55978 
 H                    -2.42967  -2.80794  -1.40063 
 H                    -1.65898  -1.59289  -2.45447 
 
                    Distance matrix (angstroms):
                    1          2          3          4          5
     1  O    0.000000
     2  C    1.448961   0.000000
     3  C    2.359942   1.600000   0.000000
     4  C    2.200001   2.403647   1.515568   0.000000
     5  C    2.844503   3.392751   2.595345   1.475807   0.000000
     6  Fe   1.865067   3.104492   4.097401   3.558387   4.041928
     7  Cl   3.158284   4.593066   5.018474   3.907911   3.655225
     8  C    2.923457   3.262371   2.603651   1.477040   2.528888
     9  Cl   3.275784   4.120497   5.530752   5.407319   5.800416
    10  Cl   3.320692   4.026642   4.782998   4.246718   5.175740
    11  H    2.907228   2.191831   1.094467   2.118452   2.607203
    12  H    3.923696   4.036831   3.017254   2.076817   2.953736
    13  H    2.929966   3.081658   2.781772   2.153149   3.441712
    14  H    3.211863   3.944645   3.499211   2.136553   2.663628
    15  H    3.881565   4.303355   3.212480   2.096770   1.102365
    16  H    2.855280   3.816181   3.395403   2.111528   1.097739
    17  H    3.018602   3.394522   2.694046   2.147901   1.090059
    18  C    3.666799   2.668075   1.530578   2.567472   3.784044
    19  H    4.441041   3.607146   2.178933   2.860547   3.835685
    20  H    4.192779   2.923168   2.156765   3.493109   4.625638
    21  H    3.816590   2.948424   2.194980   2.863075   4.261650
    22  C    2.446733   1.524169   2.621633   3.398716   4.651071
    23  H    3.399843   2.173369   2.934730   4.034809   5.315344
    24  H    2.691362   2.141251   3.550892   4.188883   5.306292
    25  H    2.724031   2.189222   2.871026   3.288342   4.665439
    26  C    2.405766   1.523282   2.577599   3.576479   4.169826
    27  H    2.673225   2.149300   3.525181   4.345394   4.910710
    28  H    3.370911   2.174542   2.876120   4.173732   4.866158
    29  H    2.623753   2.164127   2.775160   3.562790   3.759045
                    6          7          8          9         10
     6  Fe   0.000000
     7  Cl   2.225127   0.000000
     8  C    3.636331   3.926983   0.000000
     9  Cl   2.191944   3.774914   5.724379   0.000000
    10  Cl   2.220017   3.622166   3.557526   3.672236   0.000000
    11  H    4.749278   5.463480   3.454672   5.997598   5.742130
    12  H    4.739553   4.880061   1.103509   6.820007   4.486128
    13  H    3.452394   4.268126   1.090113   5.425375   2.873027
    14  H    3.441214   3.212867   1.092376   5.626918   3.394569
    15  H    4.999668   4.387012   2.787422   6.856158   5.886480
    16  H    3.557278   2.684276   2.758250   5.355271   4.823133
    17  H    4.430049   4.169714   3.469344   5.869768   5.856446
    18  C    5.215694   6.261997   3.044976   6.664146   5.339078
    19  H    5.993091   6.740928   3.277356   7.581000   6.104735
    20  H    5.802408   7.054704   4.090145   6.965102   5.987042
    21  H    5.064397   6.237688   2.810444   6.588653   4.742778
    22  C    3.412976   5.310532   3.704468   4.224366   3.557542
    23  H    4.501877   6.371392   4.395546   5.147911   4.530617
    24  H    3.186321   5.311314   4.469931   3.464524   3.429601
    25  H    3.352423   5.143199   3.143185   4.537881   2.878375
    26  C    3.957945   5.394743   4.683339   4.284361   5.263251
    27  H    3.777653   5.416562   5.312816   3.553771   5.173835
    28  H    4.949411   6.442870   5.259043   5.220099   6.013098
    29  H    4.231656   5.253641   4.870770   4.615720   5.826849
                   11         12         13         14         15
    11  H    0.000000
    12  H    3.759502   0.000000
    13  H    3.813309   1.770646   0.000000
    14  H    4.251721   1.777366   1.785558   0.000000
    15  H    3.168900   2.808079   3.832421   2.884697   0.000000
    16  H    3.539459   3.374615   3.632371   2.462857   1.766423
    17  H    2.285277   3.890914   4.267237   3.705308   1.788839
    18  C    2.147492   3.029520   2.967222   4.121881   4.078653
    19  H    2.485078   2.908684   3.449630   4.321004   3.831458
    20  H    2.472234   4.120110   3.902444   5.156246   4.984821
    21  H    3.077765   2.793034   2.399540   3.882207   4.554196
    22  C    3.438206   4.432713   3.062213   4.428667   5.471404
    23  H    3.618080   4.935365   3.750032   5.252491   6.049710
    24  H    4.268836   5.314877   3.796368   5.021411   6.223663
    25  H    3.879067   3.835073   2.278726   3.841096   5.373695
    26  C    2.528796   5.409191   4.599275   5.311395   5.118802
    27  H    3.591357   6.154065   5.114219   5.821522   5.933983
    28  H    2.711646   5.837171   5.112773   6.026962   5.698816
    29  H    2.358515   5.563149   5.022867   5.403378   4.698514
                   16         17         18         19         20
    16  H    0.000000
    17  H    1.795593   0.000000
    18  C    4.643607   4.008904   0.000000
    19  H    4.796495   4.089661   1.095646   0.000000
    20  H    5.507398   4.650757   1.094076   1.765533   0.000000
    21  H    4.961715   4.692423   1.092392   1.774196   1.767229
    22  C    4.995091   4.834667   2.953143   4.032830   3.038304
    23  H    5.815845   5.406970   2.820749   3.902264   2.532922
    24  H    5.481638   5.438051   4.039459   5.118348   4.059079
    25  H    4.938082   5.084000   2.969579   3.959962   3.316736
[...]
 NAtoms=   29 NActive=   29 NUniq=   29 SFac= 1.00D+00 NAtFMM=   60 NAOKFM=F Big=F
 Nuclear repulsion after empirical dispersion term =     1658.1228809034 Hartrees.
 Initial guess from the checkpoint file:  "checkpoint.chk"
 B after Tr=     0.000000    0.000000    0.000000
         Rot=    1.000000    0.000000    0.000000    0.000000 Ang=   0.00 deg.
 Initial guess <Sx>= 0.0000 <Sy>= 0.0000 <Sz>= 2.5000 <S**2>= 8.7621 S= 2.5020
 SCF Done:  E(UM06L) =  -3034.19289994     A.U. after   16 cycles
            NFock= 16  Conv=0.91D-08     -V/T= 2.0021
 <Sx>= 0.0000 <Sy>= 0.0000 <Sz>= 2.5000 <S**2>= 8.7627 S= 2.5021
 <L.S>= 0.000000000000E+00
 Annihilation of the first spin contaminant:
 S**2 before annihilation     8.7627,   after     8.7501
 1\1\GINC-HOLY7C04109\SP\UM06L\Jul-CC-pVDZ\C8H16Cl3Fe1O1(6)\EKWAN\11-Fe
 b-2020\0\\#t pop=none jul-cc-pvdz guess=read um06l empiricaldispersion
 =gd3\\theory_abbreviation m06l_d3\\0,6\O,0,-0.357632,-0.273329,-0.5972
 28\C,0,-1.463526,-1.173609,-0.34036\C,0,-2.698265,-0.156264,-0.319634\
 C,0,-1.974761,1.172465,-0.230377\C,0,-1.820797,2.019894,-1.428778\Fe,0
 ,1.382306,0.016961,0.008432\Cl,0,1.787627,2.031192,-0.845839\C,0,-1.62
 4466,1.759413,1.078986\Cl,0,2.612886,-1.649802,-0.707245\Cl,0,1.340262
 ,0.160451,2.223408\H,0,-3.177099,-0.203178,-1.302678\H,0,-2.522678,2.2
 97867,1.426857\H,0,-1.375883,1.010885,1.831488\H,0,-0.809184,2.481204,
 0.991707\H,0,-2.488534,2.889972,-1.317875\H,0,-0.79546,2.409779,-1.470
 076\H,0,-2.063156,1.493883,-2.352252\C,0,-3.764154,-0.38273,0.755197\H
 ,0,-4.562856,0.363578,0.680773\H,0,-4.220112,-1.367037,0.612915\H,0,-3
 .353107,-0.347119,1.766677\C,0,-1.254799,-1.92493,0.969236\H,0,-2.0844
 28,-2.611119,1.166815\H,0,-0.337124,-2.516917,0.889151\H,0,-1.133785,-
 1.254926,1.822359\C,0,-1.566362,-2.141325,-1.512255\H,0,-0.657257,-2.7
 49182,-1.559782\H,0,-2.42967,-2.807939,-1.400626\H,0,-1.658981,-1.5928
 88,-2.454467\\Version=ES64L-G16RevA.03\HF=-3034.1928999\S2=8.762743\S2
 -1=0.\S2A=8.750052\RMSD=9.087e-09\PG=C01 [X(C8H16Cl3Fe1O1)]\\@


 TIME IS IN FACT THE HERO OF THE PLOT. THE TIME
 WITH WHICH WE HAVE TO DEAL IS OF THE ORDER OF TWO
 BILLION YEARS...GIVEN SO MUCH TIME, THE "IMPOSSIBLE"
 BECOMES POSSIBLE, THE POSSIBLE PROBABLE, THE PROBABLE
 VIRTUALLY CERTAIN.  ONE HAS ONLY TO WAIT, TIME
 ITSELF PERFORMS THE MIRACLES.
 "ORIGIN OF LIFE" LECTURES, GEORGE WALD, 1954
 Job cpu time:       0 days  1 hours 13 minutes 40.4 seconds.
 Elapsed time:       0 days  0 hours 18 minutes 44.5 seconds.
 File lengths (MBytes):  RWF=    174 Int=      0 D2E=      0 Chk=     13 Scr=      1
 Normal termination of Gaussian 16 at Tue Feb 11 23:00:51 2020.
 Initial command:
 /n/sw/g16_nehalem/g16/l1.exe "/scratch/Gau-261446.inp" -scrdir="/scratch/"
 Entering Link 1 = /n/sw/g16_nehalem/g16/l1.exe PID=    315184.
  
 Copyright (c) 1988,1990,1992,1993,1995,1998,2003,2009,2016,
            Gaussian, Inc.  All Rights Reserved.
  
 This is part of the Gaussian(R) 16 program.  It is based on
 the Gaussian(R) 09 system (copyright 2009, Gaussian, Inc.),
 the Gaussian(R) 03 system (copyright 2003, Gaussian, Inc.),
 the Gaussian(R) 98 system (copyright 1998, Gaussian, Inc.),
 the Gaussian(R) 94 system (copyright 1995, Gaussian, Inc.),
 the Gaussian 92(TM) system (copyright 1992, Gaussian, Inc.),
 the Gaussian 90(TM) system (copyright 1990, Gaussian, Inc.),
 the Gaussian 88(TM) system (copyright 1988, Gaussian, Inc.),
 the Gaussian 86(TM) system (copyright 1986, Carnegie Mellon
 University), and the Gaussian 82(TM) system (copyright 1983,
 Carnegie Mellon University). Gaussian is a federally registered
 trademark of Gaussian, Inc.
  
 This software contains proprietary and confidential information,
 including trade secrets, belonging to Gaussian, Inc.
  
 This software is provided under written license and may be
 used, copied, transmitted, or stored only in accord with that
 written license.
  
 The following legend is applicable only to US Government
 contracts under FAR:
  
                    RESTRICTED RIGHTS LEGEND
  
 Use, reproduction and disclosure by the US Government is
 subject to restrictions as set forth in subparagraphs (a)
 and (c) of the Commercial Computer Software - Restricted
 Rights clause in FAR 52.227-19.
  
 Gaussian, Inc.
 340 Quinnipiac St., Bldg. 40, Wallingford CT 06492
  
  
 ---------------------------------------------------------------
 Warning -- This program may not be used in any manner that
 competes with the business of Gaussian, Inc. or will provide
 assistance to any competitor of Gaussian, Inc.  The licensee
 of this program is prohibited from giving any competitor of
 Gaussian, Inc. access to this program.  By using this program,
 the user acknowledges that Gaussian, Inc. is engaged in the
 business of creating and licensing software in the field of
 computational chemistry and represents and warrants to the
 licensee that it is not a competitor of Gaussian, Inc. and that
 it will not use this program in any manner prohibited above.
 ---------------------------------------------------------------
  

 Cite this work as:
 Gaussian 16, Revision A.03,
 M. J. Frisch, G. W. Trucks, H. B. Schlegel, G. E. Scuseria, 
 M. A. Robb, J. R. Cheeseman, G. Scalmani, V. Barone, 
 G. A. Petersson, H. Nakatsuji, X. Li, M. Caricato, A. V. Marenich, 
 J. Bloino, B. G. Janesko, R. Gomperts, B. Mennucci, H. P. Hratchian, 
 J. V. Ortiz, A. F. Izmaylov, J. L. Sonnenberg, D. Williams-Young, 
 F. Ding, F. Lipparini, F. Egidi, J. Goings, B. Peng, A. Petrone, 
 T. Henderson, D. Ranasinghe, V. G. Zakrzewski, J. Gao, N. Rega, 
 G. Zheng, W. Liang, M. Hada, M. Ehara, K. Toyota, R. Fukuda, 
 J. Hasegawa, M. Ishida, T. Nakajima, Y. Honda, O. Kitao, H. Nakai, 
 T. Vreven, K. Throssell, J. A. Montgomery, Jr., J. E. Peralta, 
 F. Ogliaro, M. J. Bearpark, J. J. Heyd, E. N. Brothers, K. N. Kudin, 
 V. N. Staroverov, T. A. Keith, R. Kobayashi, J. Normand, 
 K. Raghavachari, A. P. Rendell, J. C. Burant, S. S. Iyengar, 
 J. Tomasi, M. Cossi, J. M. Millam, M. Klene, C. Adamo, R. Cammi, 
 J. W. Ochterski, R. L. Martin, K. Morokuma, O. Farkas, 
 J. B. Foresman, and D. J. Fox, Gaussian, Inc., Wallingford CT, 2016.
 
 ******************************************
 Gaussian 16:  ES64L-G16RevA.03 25-Dec-2016
                11-Feb-2020 
 ******************************************
 %chk=checkpoint.chk
 %mem=3GB
 %nprocshared=4
 Will use up to    4 processors via shared memory.
 -------------------------------------------------------------------
 #t pop=none jul-cc-pvdz guess=read ub97d3 empiricaldispersion=gd3bj
 -------------------------------------------------------------------
 ------------------------------
 theory_abbreviation b97d3_d3bj
 ------------------------------
 Symbolic Z-matrix:
 Charge =  0 Multiplicity = 6
 O                    -0.35763  -0.27333  -0.59723 
 C                    -1.46353  -1.17361  -0.34036 
 C                    -2.69827  -0.15626  -0.31963 
 C                    -1.97476   1.17247  -0.23038 
 C                    -1.8208    2.01989  -1.42878 
 Fe                    1.38231   0.01696   0.00843 
 Cl                    1.78763   2.03119  -0.84584 
 C                    -1.62447   1.75941   1.07899 
 Cl                    2.61289  -1.6498   -0.70725 
 Cl                    1.34026   0.16045   2.22341 
 H                    -3.1771   -0.20318  -1.30268 
 H                    -2.52268   2.29787   1.42686 
 H                    -1.37588   1.01089   1.83149 
 H                    -0.80918   2.4812    0.99171 
 H                    -2.48853   2.88997  -1.31788 
 H                    -0.79546   2.40978  -1.47008 
 H                    -2.06316   1.49388  -2.35225 
 C                    -3.76415  -0.38273   0.7552 
 H                    -4.56286   0.36358   0.68077 
 H                    -4.22011  -1.36704   0.61292 
 H                    -3.35311  -0.34712   1.76668 
 C                    -1.2548   -1.92493   0.96924 
 H                    -2.08443  -2.61112   1.16682 
 H                    -0.33712  -2.51692   0.88915 
 H                    -1.13379  -1.25493   1.82236 
 C                    -1.56636  -2.14133  -1.51226 
 H                    -0.65726  -2.74918  -1.55978 
 H                    -2.42967  -2.80794  -1.40063 
 H                    -1.65898  -1.59289  -2.45447 
 
                    Distance matrix (angstroms):
                    1          2          3          4          5
     1  O    0.000000
     2  C    1.448961   0.000000
     3  C    2.359942   1.600000   0.000000
     4  C    2.200001   2.403647   1.515568   0.000000
     5  C    2.844503   3.392751   2.595345   1.475807   0.000000
     6  Fe   1.865067   3.104492   4.097401   3.558387   4.041928
     7  Cl   3.158284   4.593066   5.018474   3.907911   3.655225
     8  C    2.923457   3.262371   2.603651   1.477040   2.528888
     9  Cl   3.275784   4.120497   5.530752   5.407319   5.800416
    10  Cl   3.320692   4.026642   4.782998   4.246718   5.175740
    11  H    2.907228   2.191831   1.094467   2.118452   2.607203
    12  H    3.923696   4.036831   3.017254   2.076817   2.953736
    13  H    2.929966   3.081658   2.781772   2.153149   3.441712
    14  H    3.211863   3.944645   3.499211   2.136553   2.663628
    15  H    3.881565   4.303355   3.212480   2.096770   1.102365
    16  H    2.855280   3.816181   3.395403   2.111528   1.097739
    17  H    3.018602   3.394522   2.694046   2.147901   1.090059
    18  C    3.666799   2.668075   1.530578   2.567472   3.784044
    19  H    4.441041   3.607146   2.178933   2.860547   3.835685
    20  H    4.192779   2.923168   2.156765   3.493109   4.625638
    21  H    3.816590   2.948424   2.194980   2.863075   4.261650
    22  C    2.446733   1.524169   2.621633   3.398716   4.651071
    23  H    3.399843   2.173369   2.934730   4.034809   5.315344
    24  H    2.691362   2.141251   3.550892   4.188883   5.306292
    25  H    2.724031   2.189222   2.871026   3.288342   4.665439
    26  C    2.405766   1.523282   2.577599   3.576479   4.169826
    27  H    2.673225   2.149300   3.525181   4.345394   4.910710
    28  H    3.370911   2.174542   2.876120   4.173732   4.866158
    29  H    2.623753   2.164127   2.775160   3.562790   3.759045
                    6          7          8          9         10
     6  Fe   0.000000
     7  Cl   2.225127   0.000000
     8  C    3.636331   3.926983   0.000000
     9  Cl   2.191944   3.774914   5.724379   0.000000
    10  Cl   2.220017   3.622166   3.557526   3.672236   0.000000
    11  H    4.749278   5.463480   3.454672   5.997598   5.742130
    12  H    4.739553   4.880061   1.103509   6.820007   4.486128
    13  H    3.452394   4.268126   1.090113   5.425375   2.873027
    14  H    3.441214   3.212867   1.092376   5.626918   3.394569
    15  H    4.999668   4.387012   2.787422   6.856158   5.886480
    16  H    3.557278   2.684276   2.758250   5.355271   4.823133
    17  H    4.430049   4.169714   3.469344   5.869768   5.856446
    18  C    5.215694   6.261997   3.044976   6.664146   5.339078
    19  H    5.993091   6.740928   3.277356   7.581000   6.104735
    20  H    5.802408   7.054704   4.090145   6.965102   5.987042
    21  H    5.064397   6.237688   2.810444   6.588653   4.742778
    22  C    3.412976   5.310532   3.704468   4.224366   3.557542
    23  H    4.501877   6.371392   4.395546   5.147911   4.530617
    24  H    3.186321   5.311314   4.469931   3.464524   3.429601
    25  H    3.352423   5.143199   3.143185   4.537881   2.878375
    26  C    3.957945   5.394743   4.683339   4.284361   5.263251
    27  H    3.777653   5.416562   5.312816   3.553771   5.173835
    28  H    4.949411   6.442870   5.259043   5.220099   6.013098
    29  H    4.231656   5.253641   4.870770   4.615720   5.826849
                   11         12         13         14         15
    11  H    0.000000
    12  H    3.759502   0.000000
    13  H    3.813309   1.770646   0.000000
    14  H    4.251721   1.777366   1.785558   0.000000
    15  H    3.168900   2.808079   3.832421   2.884697   0.000000
    16  H    3.539459   3.374615   3.632371   2.462857   1.766423
    17  H    2.285277   3.890914   4.267237   3.705308   1.788839
    18  C    2.147492   3.029520   2.967222   4.121881   4.078653
    19  H    2.485078   2.908684   3.449630   4.321004   3.831458
    20  H    2.472234   4.120110   3.902444   5.156246   4.984821
    21  H    3.077765   2.793034   2.399540   3.882207   4.554196
    22  C    3.438206   4.432713   3.062213   4.428667   5.471404
    23  H    3.618080   4.935365   3.750032   5.252491   6.049710
    24  H    4.268836   5.314877   3.796368   5.021411   6.223663
    25  H    3.879067   3.835073   2.278726   3.841096   5.373695
    26  C    2.528796   5.409191   4.599275   5.311395   5.118802
    27  H    3.591357   6.154065   5.114219   5.821522   5.933983
    28  H    2.711646   5.837171   5.112773   6.026962   5.698816
    29  H    2.358515   5.563149   5.022867   5.403378   4.698514
                   16         17         18         19         20
    16  H    0.000000
    17  H    1.795593   0.000000
    18  C    4.643607   4.008904   0.000000
    19  H    4.796495   4.089661   1.095646   0.000000
    20  H    5.507398   4.650757   1.094076   1.765533   0.000000
    21  H    4.961715   4.692423   1.092392   1.774196   1.767229
    22  C    4.995091   4.834667   2.953143   4.032830   3.038304
    23  H    5.815845   5.406970   2.820749   3.902264   2.532922
    24  H    5.481638   5.438051   4.039459   5.118348   4.059079
    25  H    4.938082   5.084000   2.969579   3.959962   3.316736
    26  C    4.616126   3.763926   3.614455   4.479161   3.486869
    27  H    5.161591   4.539621   4.540048   5.473853   4.396006
    28  H    5.468094   4.421040   3.508569   4.352152   3.055524
    29  H    4.211417   3.114797   4.024696   4.699998   4.002403
                   21         22         23         24         25
    21  H    0.000000
    22  C    2.743774   0.000000
    23  H    2.663659   1.094613   0.000000
    24  H    3.817621   1.094984   1.771734   0.000000
    25  H    2.398459   1.091498   1.781213   1.760161   0.000000
    26  C    4.142828   2.510318   2.768847   2.723756   3.477424
    27  H    4.909465   2.726239   3.080618   2.480666   3.728104
    28  H    4.115845   2.788597   2.598015   3.115529   3.805102
    29  H    4.715937   3.463431   3.785694   3.712266   4.322186
                   26         27         28         29
    26  C    0.000000
    27  H    1.094633   0.000000
    28  H    1.096420   1.780514   0.000000
    29  H    1.094132   1.772266   1.783505   0.000000
 Framework group  C1[X(C8H16Cl3FeO)]
 Deg. of freedom    81
                         Standard orientation:                         
 ---------------------------------------------------------------------
 Center     Atomic      Atomic             Coordinates (Angstroms)
 Number     Number       Type             X           Y           Z
 ---------------------------------------------------------------------
      1          8           0       -0.357632   -0.273329   -0.597228
      2          6           0       -1.463526   -1.173609   -0.340360
      3          6           0       -2.698265   -0.156264   -0.319634
      4          6           0       -1.974761    1.172465   -0.230377
      5          6           0       -1.820797    2.019894   -1.428778
      6         26           0        1.382306    0.016961    0.008432
      7         17           0        1.787627    2.031192   -0.845839
      8          6           0       -1.624466    1.759413    1.078986
      9         17           0        2.612886   -1.649802   -0.707245
     10         17           0        1.340262    0.160451    2.223408
     11          1           0       -3.177099   -0.203178   -1.302678
     12          1           0       -2.522678    2.297867    1.426857
     13          1           0       -1.375883    1.010885    1.831488
     14          1           0       -0.809184    2.481204    0.991707
     15          1           0       -2.488534    2.889972   -1.317875
     16          1           0       -0.795460    2.409779   -1.470076
     17          1           0       -2.063156    1.493883   -2.352252
     18          6           0       -3.764154   -0.382730    0.755197
     19          1           0       -4.562856    0.363578    0.680773
     20          1           0       -4.220112   -1.367037    0.612915
     21          1           0       -3.353107   -0.347119    1.766677
     22          6           0       -1.254799   -1.924930    0.969236
     23          1           0       -2.084428   -2.611119    1.166815
     24          1           0       -0.337124   -2.516917    0.889151
     25          1           0       -1.133785   -1.254926    1.822359
     26          6           0       -1.566362   -2.141325   -1.512255
     27          1           0       -0.657257   -2.749182   -1.559782
     28          1           0       -2.429670   -2.807939   -1.400626
     29          1           0       -1.658981   -1.592888   -2.454467
 ---------------------------------------------------------------------
 Rotational constants (GHZ):           0.5793036           0.3592773           0.3184428
   427 basis functions,  1056 primitive gaussians,   461 cartesian basis functions
    77 alpha electrons       72 beta electrons
       nuclear repulsion energy      1658.1252863848 Hartrees.
 NAtoms=   29 NActive=   29 NUniq=   29 SFac= 1.00D+00 NAtFMM=   60 NAOKFM=F Big=F
 Nuclear repulsion after empirical dispersion term =     1658.0244900408 Hartrees.
 Initial guess from the checkpoint file:  "checkpoint.chk"
 B after Tr=     0.000000    0.000000    0.000000
         Rot=    1.000000    0.000000    0.000000    0.000000 Ang=   0.00 deg.
 Initial guess <Sx>= 0.0000 <Sy>= 0.0000 <Sz>= 2.5000 <S**2>= 8.7627 S= 2.5021
 EnCoef did     3 forward-backward iterations
 EnCoef did     4 forward-backward iterations
 SCF Done:  E(UB97D3) =  -3034.61404558     A.U. after   16 cycles
            NFock= 16  Conv=0.44D-08     -V/T= 2.0020
 <Sx>= 0.0000 <Sy>= 0.0000 <Sz>= 2.5000 <S**2>= 8.7613 S= 2.5019
 <L.S>= 0.000000000000E+00
 Annihilation of the first spin contaminant:
 S**2 before annihilation     8.7613,   after     8.7500
 1\1\GINC-HOLY7C04109\SP\UB97D3\Jul-CC-pVDZ\C8H16Cl3Fe1O1(6)\EKWAN\11-F
 eb-2020\0\\#t pop=none jul-cc-pvdz guess=read ub97d3 empiricaldispersi
 on=gd3bj\\theory_abbreviation b97d3_d3bj\\0,6\O,0,-0.357632,-0.273329,
 -0.597228\C,0,-1.463526,-1.173609,-0.34036\C,0,-2.698265,-0.156264,-0.
 319634\C,0,-1.974761,1.172465,-0.230377\C,0,-1.820797,2.019894,-1.4287
 78\Fe,0,1.382306,0.016961,0.008432\Cl,0,1.787627,2.031192,-0.845839\C,
 0,-1.624466,1.759413,1.078986\Cl,0,2.612886,-1.649802,-0.707245\Cl,0,1
 .340262,0.160451,2.223408\H,0,-3.177099,-0.203178,-1.302678\H,0,-2.522
 678,2.297867,1.426857\H,0,-1.375883,1.010885,1.831488\H,0,-0.809184,2.
 481204,0.991707\H,0,-2.488534,2.889972,-1.317875\H,0,-0.79546,2.409779
 ,-1.470076\H,0,-2.063156,1.493883,-2.352252\C,0,-3.764154,-0.38273,0.7
 55197\H,0,-4.562856,0.363578,0.680773\H,0,-4.220112,-1.367037,0.612915
 \H,0,-3.353107,-0.347119,1.766677\C,0,-1.254799,-1.92493,0.969236\H,0,
 -2.084428,-2.611119,1.166815\H,0,-0.337124,-2.516917,0.889151\H,0,-1.1
 33785,-1.254926,1.822359\C,0,-1.566362,-2.141325,-1.512255\H,0,-0.6572
 57,-2.749182,-1.559782\H,0,-2.42967,-2.807939,-1.400626\H,0,-1.658981,
 -1.592888,-2.454467\\Version=ES64L-G16RevA.03\HF=-3034.6140456\S2=8.76
 1261\S2-1=0.\S2A=8.75004\RMSD=4.376e-09\PG=C01 [X(C8H16Cl3Fe1O1)]\\@


 YOU KNOW YOU'RE A TEACHER WHEN YOU SAY 2, WRITE 3, AND MEAN 4.
 -- RONALD ANSTROM, HIGH SCHOOL TEACHER, UNDERWOOD, N.D. 1974
 Job cpu time:       0 days  0 hours 51 minutes  2.7 seconds.
 Elapsed time:       0 days  0 hours 12 minutes 47.8 seconds.
 File lengths (MBytes):  RWF=    174 Int=      0 D2E=      0 Chk=     13 Scr=      1
 Normal termination of Gaussian 16 at Tue Feb 11 23:13:39 2020.
