 Entering Gaussian System, Link 0=g16
 Input=prenyl-first_step-ts1a-b3lyp_d3bj-juldz-water.gjf
 Output=prenyl-first_step-ts1a-b3lyp_d3bj-juldz-water.out
 Initial command:
 /SFS/product/gaussian/g16.a03/x86_64/avx/g16/l1.exe "/scratch/kwaneu.3017182.bmbhpcps002/Gau-56314.inp" -scrdir="/scratch/kwaneu.3017182.bmbhpcps002/"
 Entering Link 1 = /SFS/product/gaussian/g16.a03/x86_64/avx/g16/l1.exe PID=     56315.
  
 Copyright (c) 1988,1990,1992,1993,1995,1998,2003,2009,2016,
            Gaussian, Inc.  All Rights Reserved.
  
 This is part of the Gaussian(R) 16 program.  It is based on
 the Gaussian(R) 09 system (copyright 2009, Gaussian, Inc.),
 the Gaussian(R) 03 system (copyright 2003, Gaussian, Inc.),
 the Gaussian(R) 98 system (copyright 1998, Gaussian, Inc.),
 the Gaussian(R) 94 system (copyright 1995, Gaussian, Inc.),
 the Gaussian 92(TM) system (copyright 1992, Gaussian, Inc.),
 the Gaussian 90(TM) system (copyright 1990, Gaussian, Inc.),
 the Gaussian 88(TM) system (copyright 1988, Gaussian, Inc.),
 the Gaussian 86(TM) system (copyright 1986, Carnegie Mellon
 University), and the Gaussian 82(TM) system (copyright 1983,
 Carnegie Mellon University). Gaussian is a federally registered
 trademark of Gaussian, Inc.
  
 This software contains proprietary and confidential information,
 including trade secrets, belonging to Gaussian, Inc.
  
 This software is provided under written license and may be
 used, copied, transmitted, or stored only in accord with that
 written license.
  
 The following legend is applicable only to US Government
 contracts under FAR:
  
                    RESTRICTED RIGHTS LEGEND
  
 Use, reproduction and disclosure by the US Government is
 subject to restrictions as set forth in subparagraphs (a)
 and (c) of the Commercial Computer Software - Restricted
 Rights clause in FAR 52.227-19.
  
 Gaussian, Inc.
 340 Quinnipiac St., Bldg. 40, Wallingford CT 06492
  
  
 ---------------------------------------------------------------
 Warning -- This program may not be used in any manner that
 competes with the business of Gaussian, Inc. or will provide
 assistance to any competitor of Gaussian, Inc.  The licensee
 of this program is prohibited from giving any competitor of
 Gaussian, Inc. access to this program.  By using this program,
 the user acknowledges that Gaussian, Inc. is engaged in the
 business of creating and licensing software in the field of
 computational chemistry and represents and warrants to the
 licensee that it is not a competitor of Gaussian, Inc. and that
 it will not use this program in any manner prohibited above.
 ---------------------------------------------------------------
  

 Cite this work as:
 Gaussian 16, Revision A.03,
 M. J. Frisch, G. W. Trucks, H. B. Schlegel, G. E. Scuseria, 
 M. A. Robb, J. R. Cheeseman, G. Scalmani, V. Barone, 
 G. A. Petersson, H. Nakatsuji, X. Li, M. Caricato, A. V. Marenich, 
 J. Bloino, B. G. Janesko, R. Gomperts, B. Mennucci, H. P. Hratchian, 
 J. V. Ortiz, A. F. Izmaylov, J. L. Sonnenberg, D. Williams-Young, 
 F. Ding, F. Lipparini, F. Egidi, J. Goings, B. Peng, A. Petrone, 
 T. Henderson, D. Ranasinghe, V. G. Zakrzewski, J. Gao, N. Rega, 
 G. Zheng, W. Liang, M. Hada, M. Ehara, K. Toyota, R. Fukuda, 
 J. Hasegawa, M. Ishida, T. Nakajima, Y. Honda, O. Kitao, H. Nakai, 
 T. Vreven, K. Throssell, J. A. Montgomery, Jr., J. E. Peralta, 
 F. Ogliaro, M. J. Bearpark, J. J. Heyd, E. N. Brothers, K. N. Kudin, 
 V. N. Staroverov, T. A. Keith, R. Kobayashi, J. Normand, 
 K. Raghavachari, A. P. Rendell, J. C. Burant, S. S. Iyengar, 
 J. Tomasi, M. Cossi, J. M. Millam, M. Klene, C. Adamo, R. Cammi, 
 J. W. Ochterski, R. L. Martin, K. Morokuma, O. Farkas, 
 J. B. Foresman, and D. J. Fox, Gaussian, Inc., Wallingford CT, 2016.
 
 ******************************************
 Gaussian 16:  ES64L-G16RevA.03 25-Dec-2016
                13-Jul-2021 
 ******************************************
 %nprocshared=16
 Will use up to   16 processors via shared memory.
 %mem=16GB
 ----------------------------------------------------------------------
 #p opt=(calcfc,ts,noeigentest,maxstep=5) freq=noraman b3lyp scrf=(solv
 ent=water,pcm) pop=none empiricaldispersion=gd3bj jul-cc-pvdz
 ----------------------------------------------------------------------
 1/5=1,8=5,10=4,11=1,18=20,26=3,38=1/1,3;
 2/9=110,12=2,17=6,18=5,40=1/2;
 3/5=16,7=50,11=2,25=1,30=1,70=2201,71=2,72=1,74=-5,124=41,140=1/1,2,3;
 4//1;
 5/5=2,38=5,53=1/2;
 8/6=4,10=90,11=11/1;
 11/6=1,8=1,9=11,15=111,16=1/1,2,10;
 10/6=1,13=1/2;
 7/10=1,18=20,25=1/1,2,3,16;
 1/5=1,8=5,10=4,11=1,18=20,26=3/3(2);
 2/9=110/2;
 99//99;
 2/9=110/2;
 3/5=16,7=50,11=2,25=1,30=1,70=2205,71=1,72=1,74=-5,124=41/1,2,3;
 4/5=5,16=3,69=1/1;
 5/5=2,38=5,53=1/2;
 7//1,2,3,16;
 1/5=1,8=5,11=1,18=20,26=3/3(-5);
 2/9=110/2;
 99/9=1/99;
 Leave Link    1 at Tue Jul 13 11:47:46 2021, MaxMem=  2147483648 cpu:               3.4 elap:               0.3
 (Enter /SFS/product/gaussian/g16.a03/x86_64/avx/g16/l101.exe)
 -----
 title
 -----
 Symbolic Z-matrix:
 Charge =  0 Multiplicity = 6
 C                     2.85917   1.33891  -0.40596 
 C                     1.59337   0.80394  -0.69176 
 C                     1.43135   0.02033  -1.83875 
 C                     2.51712  -0.23231  -2.68265 
 C                     3.77695   0.29526  -2.38927 
 C                     3.94396   1.08467  -1.24534 
 C                     0.43462   1.03674   0.2645 
 C                     0.71356   0.52593   1.73548 
 C                     0.8703    1.76462   2.61999 
 C                    -0.11033   2.76398   1.99818 
 C                     0.15769   2.60782   0.50133 
 C                    -0.89628   2.91559  -0.47949 
 C                    -0.52632   3.07208  -1.88589 
 O                    -0.76416   0.52035  -0.25901 
 Fe                   -1.95442  -0.87631  -0.16989 
 Cl                   -1.40811  -2.50139  -1.64842 
 C                    -2.27507   3.16762  -0.06482 
 Cl                   -3.94494   0.022    -0.7746 
 Cl                   -2.12258  -1.79828   1.88692 
 H                     0.45833  -0.40788  -2.06143 
 H                     2.37512  -0.84863  -3.57106 
 H                     4.6243    0.09654  -3.04635 
 H                     4.92146   1.50402  -1.00564 
 H                     3.01203   1.9522    0.48166 
 H                    -0.19694  -0.01218   2.02345 
 C                     1.84991  -0.46671   1.81996 
 H                     0.64708   1.54692   3.67054 
 H                     1.89979   2.14287   2.57086 
 H                    -1.13813   2.47683   2.25231 
 H                     0.04582   3.79553   2.33357 
 H                     1.06752   3.14854   0.21167 
 H                    -2.96886   3.25933  -0.90316 
 H                    -2.61295   2.40143   0.64474 
 H                    -2.25618   4.11231   0.51222 
 H                    -0.47948   4.17178  -2.03098 
 H                     0.45678   2.66084  -2.13006 
 H                    -1.31529   2.71048  -2.55551 
 O                     1.58155  -1.55569   1.08934 
 O                     2.87576  -0.30784   2.45622 
 C                     2.65466  -2.52329   0.92447 
 C                     2.19595  -3.5307   -0.10693 
 H                     3.55209  -1.98049   0.60166 
 H                     2.85665  -2.98541   1.89959 
 H                     2.98457  -4.28136  -0.25459 
 H                     1.28283  -4.04354   0.22331 
 H                     1.99521  -3.03706  -1.06667 
 
 ITRead=  0  0  0  0  0  0  0  0  0  0  0  0  0  0  0  0  0  0  0  0
 ITRead=  0  0  0  0  0  0  0  0  0  0  0  0  0  0  0  0  0  0  0  0
 ITRead=  0  0  0  0  0  0
 MicOpt= -1 -1 -1 -1 -1 -1 -1 -1 -1 -1 -1 -1 -1 -1 -1 -1 -1 -1 -1 -1
 MicOpt= -1 -1 -1 -1 -1 -1 -1 -1 -1 -1 -1 -1 -1 -1 -1 -1 -1 -1 -1 -1
 MicOpt= -1 -1 -1 -1 -1 -1
 NAtoms=     46 NQM=       46 NQMF=       0 NMMI=      0 NMMIF=      0
                NMic=       0 NMicF=      0.
                    Isotopes and Nuclear Properties:
 (Nuclear quadrupole moments (NQMom) in fm**2, nuclear magnetic moments (NMagM)
  in nuclear magnetons)

  Atom         1           2           3           4           5           6           7           8           9          10
 IAtWgt=          12          12          12          12          12          12          12          12          12          12
 AtmWgt=  12.0000000  12.0000000  12.0000000  12.0000000  12.0000000  12.0000000  12.0000000  12.0000000  12.0000000  12.0000000
 NucSpn=           0           0           0           0           0           0           0           0           0           0
 AtZEff=  -0.0000000  -0.0000000  -0.0000000  -0.0000000  -0.0000000  -0.0000000  -0.0000000  -0.0000000  -0.0000000  -0.0000000
 NQMom=    0.0000000   0.0000000   0.0000000   0.0000000   0.0000000   0.0000000   0.0000000   0.0000000   0.0000000   0.0000000
 NMagM=    0.0000000   0.0000000   0.0000000   0.0000000   0.0000000   0.0000000   0.0000000   0.0000000   0.0000000   0.0000000
 AtZNuc=   6.0000000   6.0000000   6.0000000   6.0000000   6.0000000   6.0000000   6.0000000   6.0000000   6.0000000   6.0000000

  Atom        11          12          13          14          15          16          17          18          19          20
 IAtWgt=          12          12          12          16          56          35          12          35          35           1
 AtmWgt=  12.0000000  12.0000000  12.0000000  15.9949146  55.9349393  34.9688527  12.0000000  34.9688527  34.9688527   1.0078250
 NucSpn=           0           0           0           0           0           3           0           3           3           1
 AtZEff=  -0.0000000  -0.0000000  -0.0000000  -0.0000000  -0.0000000  -0.0000000  -0.0000000  -0.0000000  -0.0000000  -0.0000000
 NQMom=    0.0000000   0.0000000   0.0000000   0.0000000   0.0000000  -8.1650000   0.0000000  -8.1650000  -8.1650000   0.0000000
 NMagM=    0.0000000   0.0000000   0.0000000   0.0000000   0.0000000   0.8218740   0.0000000   0.8218740   0.8218740   2.7928460
 AtZNuc=   6.0000000   6.0000000   6.0000000   8.0000000  26.0000000  17.0000000   6.0000000  17.0000000  17.0000000   1.0000000

  Atom        21          22          23          24          25          26          27          28          29          30
 IAtWgt=           1           1           1           1           1          12           1           1           1           1
 AtmWgt=   1.0078250   1.0078250   1.0078250   1.0078250   1.0078250  12.0000000   1.0078250   1.0078250   1.0078250   1.0078250
 NucSpn=           1           1           1           1           1           0           1           1           1           1
 AtZEff=  -0.0000000  -0.0000000  -0.0000000  -0.0000000  -0.0000000  -0.0000000  -0.0000000  -0.0000000  -0.0000000  -0.0000000
 NQMom=    0.0000000   0.0000000   0.0000000   0.0000000   0.0000000   0.0000000   0.0000000   0.0000000   0.0000000   0.0000000
 NMagM=    2.7928460   2.7928460   2.7928460   2.7928460   2.7928460   0.0000000   2.7928460   2.7928460   2.7928460   2.7928460
 AtZNuc=   1.0000000   1.0000000   1.0000000   1.0000000   1.0000000   6.0000000   1.0000000   1.0000000   1.0000000   1.0000000

  Atom        31          32          33          34          35          36          37          38          39          40
 IAtWgt=           1           1           1           1           1           1           1          16          16          12
 AtmWgt=   1.0078250   1.0078250   1.0078250   1.0078250   1.0078250   1.0078250   1.0078250  15.9949146  15.9949146  12.0000000
 NucSpn=           1           1           1           1           1           1           1           0           0           0
 AtZEff=  -0.0000000  -0.0000000  -0.0000000  -0.0000000  -0.0000000  -0.0000000  -0.0000000  -0.0000000  -0.0000000  -0.0000000
 NQMom=    0.0000000   0.0000000   0.0000000   0.0000000   0.0000000   0.0000000   0.0000000   0.0000000   0.0000000   0.0000000
 NMagM=    2.7928460   2.7928460   2.7928460   2.7928460   2.7928460   2.7928460   2.7928460   0.0000000   0.0000000   0.0000000
 AtZNuc=   1.0000000   1.0000000   1.0000000   1.0000000   1.0000000   1.0000000   1.0000000   8.0000000   8.0000000   6.0000000

  Atom        41          42          43          44          45          46
 IAtWgt=          12           1           1           1           1           1
 AtmWgt=  12.0000000   1.0078250   1.0078250   1.0078250   1.0078250   1.0078250
 NucSpn=           0           1           1           1           1           1
 AtZEff=  -0.0000000  -0.0000000  -0.0000000  -0.0000000  -0.0000000  -0.0000000
 NQMom=    0.0000000   0.0000000   0.0000000   0.0000000   0.0000000   0.0000000
 NMagM=    0.0000000   2.7928460   2.7928460   2.7928460   2.7928460   2.7928460
 AtZNuc=   6.0000000   1.0000000   1.0000000   1.0000000   1.0000000   1.0000000
 Leave Link  101 at Tue Jul 13 11:47:47 2021, MaxMem=  2147483648 cpu:               6.0 elap:               0.4
 (Enter /SFS/product/gaussian/g16.a03/x86_64/avx/g16/l103.exe)

 GradGradGradGradGradGradGradGradGradGradGradGradGradGradGradGradGradGrad
 Berny optimization.
 Initialization pass.
                           ----------------------------
                           !    Initial Parameters    !
                           ! (Angstroms and Degrees)  !
 --------------------------                            --------------------------
 ! Name  Definition              Value          Derivative Info.                !
 --------------------------------------------------------------------------------
 ! R1    R(1,2)                  1.4036         calculate D2E/DX2 analytically  !
 ! R2    R(1,6)                  1.395          calculate D2E/DX2 analytically  !
 ! R3    R(1,24)                 1.0897         calculate D2E/DX2 analytically  !
 ! R4    R(2,3)                  1.3985         calculate D2E/DX2 analytically  !
 ! R5    R(2,7)                  1.5203         calculate D2E/DX2 analytically  !
 ! R6    R(3,4)                  1.3982         calculate D2E/DX2 analytically  !
 ! R7    R(3,20)                 1.0861         calculate D2E/DX2 analytically  !
 ! R8    R(4,5)                  1.397          calculate D2E/DX2 analytically  !
 ! R9    R(4,21)                 1.0905         calculate D2E/DX2 analytically  !
 ! R10   R(5,6)                  1.3999         calculate D2E/DX2 analytically  !
 ! R11   R(5,22)                 1.0905         calculate D2E/DX2 analytically  !
 ! R12   R(6,23)                 1.0903         calculate D2E/DX2 analytically  !
 ! R13   R(7,8)                  1.5819         calculate D2E/DX2 analytically  !
 ! R14   R(7,11)                 1.6128         calculate D2E/DX2 analytically  !
 ! R15   R(7,14)                 1.4063         calculate D2E/DX2 analytically  !
 ! R16   R(8,9)                  1.5301         calculate D2E/DX2 analytically  !
 ! R17   R(8,25)                 1.0961         calculate D2E/DX2 analytically  !
 ! R18   R(8,26)                 1.5112         calculate D2E/DX2 analytically  !
 ! R19   R(9,10)                 1.532          calculate D2E/DX2 analytically  !
 ! R20   R(9,27)                 1.0958         calculate D2E/DX2 analytically  !
 ! R21   R(9,28)                 1.0979         calculate D2E/DX2 analytically  !
 ! R22   R(10,11)                1.5286         calculate D2E/DX2 analytically  !
 ! R23   R(10,29)                1.097          calculate D2E/DX2 analytically  !
 ! R24   R(10,30)                1.0959         calculate D2E/DX2 analytically  !
 ! R25   R(11,12)                1.4723         calculate D2E/DX2 analytically  !
 ! R26   R(11,31)                1.0973         calculate D2E/DX2 analytically  !
 ! R27   R(12,13)                1.4626         calculate D2E/DX2 analytically  !
 ! R28   R(12,17)                1.4617         calculate D2E/DX2 analytically  !
 ! R29   R(13,35)                1.1102         calculate D2E/DX2 analytically  !
 ! R30   R(13,36)                1.0933         calculate D2E/DX2 analytically  !
 ! R31   R(13,37)                1.0962         calculate D2E/DX2 analytically  !
 ! R32   R(14,15)                1.8372         calculate D2E/DX2 analytically  !
 ! R33   R(15,16)                2.2639         calculate D2E/DX2 analytically  !
 ! R34   R(15,18)                2.266          calculate D2E/DX2 analytically  !
 ! R35   R(15,19)                2.2603         calculate D2E/DX2 analytically  !
 ! R36   R(17,32)                1.092          calculate D2E/DX2 analytically  !
 ! R37   R(17,33)                1.0976         calculate D2E/DX2 analytically  !
 ! R38   R(17,34)                1.1071         calculate D2E/DX2 analytically  !
 ! R39   R(26,38)                1.3385         calculate D2E/DX2 analytically  !
 ! R40   R(26,39)                1.2175         calculate D2E/DX2 analytically  !
 ! R41   R(38,40)                1.4543         calculate D2E/DX2 analytically  !
 ! R42   R(40,41)                1.513          calculate D2E/DX2 analytically  !
 ! R43   R(40,42)                1.0974         calculate D2E/DX2 analytically  !
 ! R44   R(40,43)                1.0978         calculate D2E/DX2 analytically  !
 ! R45   R(41,44)                1.0987         calculate D2E/DX2 analytically  !
 ! R46   R(41,45)                1.0981         calculate D2E/DX2 analytically  !
 ! R47   R(41,46)                1.0978         calculate D2E/DX2 analytically  !
 ! A1    A(2,1,6)              120.6175         calculate D2E/DX2 analytically  !
 ! A2    A(2,1,24)             120.4569         calculate D2E/DX2 analytically  !
 ! A3    A(6,1,24)             118.9229         calculate D2E/DX2 analytically  !
 ! A4    A(1,2,3)              119.0143         calculate D2E/DX2 analytically  !
 ! A5    A(1,2,7)              120.0606         calculate D2E/DX2 analytically  !
 ! A6    A(3,2,7)              120.8876         calculate D2E/DX2 analytically  !
 ! A7    A(2,3,4)              120.4172         calculate D2E/DX2 analytically  !
 ! A8    A(2,3,20)             119.5269         calculate D2E/DX2 analytically  !
 ! A9    A(4,3,20)             120.046          calculate D2E/DX2 analytically  !
 ! A10   A(3,4,5)              120.3526         calculate D2E/DX2 analytically  !
 ! A11   A(3,4,21)             119.5181         calculate D2E/DX2 analytically  !
 ! A12   A(5,4,21)             120.1288         calculate D2E/DX2 analytically  !
 ! A13   A(4,5,6)              119.4831         calculate D2E/DX2 analytically  !
 ! A14   A(4,5,22)             120.3557         calculate D2E/DX2 analytically  !
 ! A15   A(6,5,22)             120.1611         calculate D2E/DX2 analytically  !
 ! A16   A(1,6,5)              120.1129         calculate D2E/DX2 analytically  !
 ! A17   A(1,6,23)             119.6561         calculate D2E/DX2 analytically  !
 ! A18   A(5,6,23)             120.231          calculate D2E/DX2 analytically  !
 ! A19   A(2,7,8)              113.6428         calculate D2E/DX2 analytically  !
 ! A20   A(2,7,11)             111.8637         calculate D2E/DX2 analytically  !
 ! A21   A(2,7,14)             111.0587         calculate D2E/DX2 analytically  !
 ! A22   A(8,7,11)             102.0217         calculate D2E/DX2 analytically  !
 ! A23   A(8,7,14)             112.2027         calculate D2E/DX2 analytically  !
 ! A24   A(11,7,14)            105.4259         calculate D2E/DX2 analytically  !
 ! A25   A(7,8,9)              107.1083         calculate D2E/DX2 analytically  !
 ! A26   A(7,8,25)             104.8523         calculate D2E/DX2 analytically  !
 ! A27   A(7,8,26)             113.3703         calculate D2E/DX2 analytically  !
 ! A28   A(9,8,25)             109.3073         calculate D2E/DX2 analytically  !
 ! A29   A(9,8,26)             114.9866         calculate D2E/DX2 analytically  !
 ! A30   A(25,8,26)            106.7063         calculate D2E/DX2 analytically  !
 ! A31   A(8,9,10)             103.1728         calculate D2E/DX2 analytically  !
 ! A32   A(8,9,27)             111.8686         calculate D2E/DX2 analytically  !
 ! A33   A(8,9,28)             110.4313         calculate D2E/DX2 analytically  !
 ! A34   A(10,9,27)            112.8495         calculate D2E/DX2 analytically  !
 ! A35   A(10,9,28)            110.9359         calculate D2E/DX2 analytically  !
 ! A36   A(27,9,28)            107.5993         calculate D2E/DX2 analytically  !
 ! A37   A(9,10,11)            102.6249         calculate D2E/DX2 analytically  !
 ! A38   A(9,10,29)            109.5689         calculate D2E/DX2 analytically  !
 ! A39   A(9,10,30)            113.4908         calculate D2E/DX2 analytically  !
 ! A40   A(11,10,29)           111.3688         calculate D2E/DX2 analytically  !
 ! A41   A(11,10,30)           111.7687         calculate D2E/DX2 analytically  !
 ! A42   A(29,10,30)           107.9987         calculate D2E/DX2 analytically  !
 ! A43   A(7,11,10)            105.8676         calculate D2E/DX2 analytically  !
 ! A44   A(7,11,12)            103.2224         calculate D2E/DX2 analytically  !
 ! A45   A(7,11,31)            107.3917         calculate D2E/DX2 analytically  !
 ! A46   A(10,11,12)           120.3622         calculate D2E/DX2 analytically  !
 ! A47   A(10,11,31)           110.7029         calculate D2E/DX2 analytically  !
 ! A48   A(12,11,31)           108.3423         calculate D2E/DX2 analytically  !
 ! A49   A(11,12,13)           118.8079         calculate D2E/DX2 analytically  !
 ! A50   A(11,12,17)           121.4883         calculate D2E/DX2 analytically  !
 ! A51   A(13,12,17)           119.5333         calculate D2E/DX2 analytically  !
 ! A52   A(12,13,35)           104.023          calculate D2E/DX2 analytically  !
 ! A53   A(12,13,36)           113.7005         calculate D2E/DX2 analytically  !
 ! A54   A(12,13,37)           111.7172         calculate D2E/DX2 analytically  !
 ! A55   A(35,13,36)           107.787          calculate D2E/DX2 analytically  !
 ! A56   A(35,13,37)           106.0983         calculate D2E/DX2 analytically  !
 ! A57   A(36,13,37)           112.7491         calculate D2E/DX2 analytically  !
 ! A58   A(7,14,15)            144.4225         calculate D2E/DX2 analytically  !
 ! A59   A(14,15,16)           110.9571         calculate D2E/DX2 analytically  !
 ! A60   A(14,15,18)           104.761          calculate D2E/DX2 analytically  !
 ! A61   A(14,15,19)           113.7304         calculate D2E/DX2 analytically  !
 ! A62   A(16,15,18)           108.7992         calculate D2E/DX2 analytically  !
 ! A63   A(16,15,19)           108.6297         calculate D2E/DX2 analytically  !
 ! A64   A(18,15,19)           109.8277         calculate D2E/DX2 analytically  !
 ! A65   A(12,17,32)           113.3267         calculate D2E/DX2 analytically  !
 ! A66   A(12,17,33)           110.6967         calculate D2E/DX2 analytically  !
 ! A67   A(12,17,34)           106.194          calculate D2E/DX2 analytically  !
 ! A68   A(32,17,33)           111.0593         calculate D2E/DX2 analytically  !
 ! A69   A(32,17,34)           109.8337         calculate D2E/DX2 analytically  !
 ! A70   A(33,17,34)           105.3046         calculate D2E/DX2 analytically  !
 ! A71   A(8,26,38)            110.6779         calculate D2E/DX2 analytically  !
 ! A72   A(8,26,39)            125.2439         calculate D2E/DX2 analytically  !
 ! A73   A(38,26,39)           124.0775         calculate D2E/DX2 analytically  !
 ! A74   A(26,38,40)           117.0799         calculate D2E/DX2 analytically  !
 ! A75   A(38,40,41)           107.2527         calculate D2E/DX2 analytically  !
 ! A76   A(38,40,42)           107.9199         calculate D2E/DX2 analytically  !
 ! A77   A(38,40,43)           108.369          calculate D2E/DX2 analytically  !
 ! A78   A(41,40,42)           112.1333         calculate D2E/DX2 analytically  !
 ! A79   A(41,40,43)           112.3967         calculate D2E/DX2 analytically  !
 ! A80   A(42,40,43)           108.6044         calculate D2E/DX2 analytically  !
 ! A81   A(40,41,44)           109.2035         calculate D2E/DX2 analytically  !
 ! A82   A(40,41,45)           110.9815         calculate D2E/DX2 analytically  !
 ! A83   A(40,41,46)           110.611          calculate D2E/DX2 analytically  !
 ! A84   A(44,41,45)           108.5527         calculate D2E/DX2 analytically  !
 ! A85   A(44,41,46)           108.722          calculate D2E/DX2 analytically  !
 ! A86   A(45,41,46)           108.7154         calculate D2E/DX2 analytically  !
 ! D1    D(6,1,2,3)             -0.562          calculate D2E/DX2 analytically  !
 ! D2    D(6,1,2,7)            177.2326         calculate D2E/DX2 analytically  !
 ! D3    D(24,1,2,3)          -179.9632         calculate D2E/DX2 analytically  !
 ! D4    D(24,1,2,7)            -2.1685         calculate D2E/DX2 analytically  !
 ! D5    D(2,1,6,5)              0.3193         calculate D2E/DX2 analytically  !
 ! D6    D(2,1,6,23)          -179.692          calculate D2E/DX2 analytically  !
 ! D7    D(24,1,6,5)           179.7296         calculate D2E/DX2 analytically  !
 ! D8    D(24,1,6,23)           -0.2818         calculate D2E/DX2 analytically  !
 ! D9    D(1,2,3,4)              0.3946         calculate D2E/DX2 analytically  !
 ! D10   D(1,2,3,20)           179.2527         calculate D2E/DX2 analytically  !
 ! D11   D(7,2,3,4)           -177.3813         calculate D2E/DX2 analytically  !
 ! D12   D(7,2,3,20)             1.4769         calculate D2E/DX2 analytically  !
 ! D13   D(1,2,7,8)            -57.4852         calculate D2E/DX2 analytically  !
 ! D14   D(1,2,7,11)            57.3905         calculate D2E/DX2 analytically  !
 ! D15   D(1,2,7,14)           174.8823         calculate D2E/DX2 analytically  !
 ! D16   D(3,2,7,8)            120.2675         calculate D2E/DX2 analytically  !
 ! D17   D(3,2,7,11)          -124.8567         calculate D2E/DX2 analytically  !
 ! D18   D(3,2,7,14)            -7.365          calculate D2E/DX2 analytically  !
 ! D19   D(2,3,4,5)              0.0146         calculate D2E/DX2 analytically  !
 ! D20   D(2,3,4,21)           179.7561         calculate D2E/DX2 analytically  !
 ! D21   D(20,3,4,5)          -178.8376         calculate D2E/DX2 analytically  !
 ! D22   D(20,3,4,21)            0.9039         calculate D2E/DX2 analytically  !
 ! D23   D(3,4,5,6)             -0.2624         calculate D2E/DX2 analytically  !
 ! D24   D(3,4,5,22)           179.8741         calculate D2E/DX2 analytically  !
 ! D25   D(21,4,5,6)           179.9977         calculate D2E/DX2 analytically  !
 ! D26   D(21,4,5,22)            0.1342         calculate D2E/DX2 analytically  !
 ! D27   D(4,5,6,1)              0.096          calculate D2E/DX2 analytically  !
 ! D28   D(4,5,6,23)          -179.8926         calculate D2E/DX2 analytically  !
 ! D29   D(22,5,6,1)           179.9598         calculate D2E/DX2 analytically  !
 ! D30   D(22,5,6,23)           -0.0288         calculate D2E/DX2 analytically  !
 ! D31   D(2,7,8,9)            109.4479         calculate D2E/DX2 analytically  !
 ! D32   D(2,7,8,25)          -134.4785         calculate D2E/DX2 analytically  !
 ! D33   D(2,7,8,26)           -18.4655         calculate D2E/DX2 analytically  !
 ! D34   D(11,7,8,9)           -11.1402         calculate D2E/DX2 analytically  !
 ! D35   D(11,7,8,25)          104.9333         calculate D2E/DX2 analytically  !
 ! D36   D(11,7,8,26)         -139.0536         calculate D2E/DX2 analytically  !
 ! D37   D(14,7,8,9)          -123.5144         calculate D2E/DX2 analytically  !
 ! D38   D(14,7,8,25)           -7.4408         calculate D2E/DX2 analytically  !
 ! D39   D(14,7,8,26)          108.5723         calculate D2E/DX2 analytically  !
 ! D40   D(2,7,11,10)         -137.9954         calculate D2E/DX2 analytically  !
 ! D41   D(2,7,11,12)           94.6617         calculate D2E/DX2 analytically  !
 ! D42   D(2,7,11,31)          -19.6905         calculate D2E/DX2 analytically  !
 ! D43   D(8,7,11,10)          -16.1754         calculate D2E/DX2 analytically  !
 ! D44   D(8,7,11,12)         -143.5182         calculate D2E/DX2 analytically  !
 ! D45   D(8,7,11,31)          102.1296         calculate D2E/DX2 analytically  !
 ! D46   D(14,7,11,10)         101.1832         calculate D2E/DX2 analytically  !
 ! D47   D(14,7,11,12)         -26.1597         calculate D2E/DX2 analytically  !
 ! D48   D(14,7,11,31)        -140.5119         calculate D2E/DX2 analytically  !
 ! D49   D(2,7,14,15)          102.2985         calculate D2E/DX2 analytically  !
 ! D50   D(8,7,14,15)          -26.1129         calculate D2E/DX2 analytically  !
 ! D51   D(11,7,14,15)        -136.3552         calculate D2E/DX2 analytically  !
 ! D52   D(7,8,9,10)            34.3878         calculate D2E/DX2 analytically  !
 ! D53   D(7,8,9,27)           155.9664         calculate D2E/DX2 analytically  !
 ! D54   D(7,8,9,28)           -84.2195         calculate D2E/DX2 analytically  !
 ! D55   D(25,8,9,10)          -78.6919         calculate D2E/DX2 analytically  !
 ! D56   D(25,8,9,27)           42.8866         calculate D2E/DX2 analytically  !
 ! D57   D(25,8,9,28)          162.7008         calculate D2E/DX2 analytically  !
 ! D58   D(26,8,9,10)          161.3534         calculate D2E/DX2 analytically  !
 ! D59   D(26,8,9,27)          -77.0681         calculate D2E/DX2 analytically  !
 ! D60   D(26,8,9,28)           42.7461         calculate D2E/DX2 analytically  !
 ! D61   D(7,8,26,38)          -60.7014         calculate D2E/DX2 analytically  !
 ! D62   D(7,8,26,39)          118.9993         calculate D2E/DX2 analytically  !
 ! D63   D(9,8,26,38)          175.592          calculate D2E/DX2 analytically  !
 ! D64   D(9,8,26,39)           -4.7074         calculate D2E/DX2 analytically  !
 ! D65   D(25,8,26,38)          54.2113         calculate D2E/DX2 analytically  !
 ! D66   D(25,8,26,39)        -126.088          calculate D2E/DX2 analytically  !
 ! D67   D(8,9,10,11)          -44.2504         calculate D2E/DX2 analytically  !
 ! D68   D(8,9,10,29)           74.1681         calculate D2E/DX2 analytically  !
 ! D69   D(8,9,10,30)         -165.0302         calculate D2E/DX2 analytically  !
 ! D70   D(27,9,10,11)        -165.1639         calculate D2E/DX2 analytically  !
 ! D71   D(27,9,10,29)         -46.7454         calculate D2E/DX2 analytically  !
 ! D72   D(27,9,10,30)          74.0563         calculate D2E/DX2 analytically  !
 ! D73   D(28,9,10,11)          74.005          calculate D2E/DX2 analytically  !
 ! D74   D(28,9,10,29)        -167.5765         calculate D2E/DX2 analytically  !
 ! D75   D(28,9,10,30)         -46.7748         calculate D2E/DX2 analytically  !
 ! D76   D(9,10,11,7)           37.4145         calculate D2E/DX2 analytically  !
 ! D77   D(9,10,11,12)         153.6526         calculate D2E/DX2 analytically  !
 ! D78   D(9,10,11,31)         -78.6649         calculate D2E/DX2 analytically  !
 ! D79   D(29,10,11,7)         -79.7286         calculate D2E/DX2 analytically  !
 ! D80   D(29,10,11,12)         36.5095         calculate D2E/DX2 analytically  !
 ! D81   D(29,10,11,31)        164.1919         calculate D2E/DX2 analytically  !
 ! D82   D(30,10,11,7)         159.372          calculate D2E/DX2 analytically  !
 ! D83   D(30,10,11,12)        -84.3899         calculate D2E/DX2 analytically  !
 ! D84   D(30,10,11,31)         43.2925         calculate D2E/DX2 analytically  !
 ! D85   D(7,11,12,13)         -77.0873         calculate D2E/DX2 analytically  !
 ! D86   D(7,11,12,17)         107.6807         calculate D2E/DX2 analytically  !
 ! D87   D(10,11,12,13)        165.3225         calculate D2E/DX2 analytically  !
 ! D88   D(10,11,12,17)         -9.9096         calculate D2E/DX2 analytically  !
 ! D89   D(31,11,12,13)         36.5769         calculate D2E/DX2 analytically  !
 ! D90   D(31,11,12,17)       -138.6552         calculate D2E/DX2 analytically  !
 ! D91   D(11,12,13,35)        -99.968          calculate D2E/DX2 analytically  !
 ! D92   D(11,12,13,36)         17.0005         calculate D2E/DX2 analytically  !
 ! D93   D(11,12,13,37)        146.0081         calculate D2E/DX2 analytically  !
 ! D94   D(17,12,13,35)         75.3592         calculate D2E/DX2 analytically  !
 ! D95   D(17,12,13,36)       -167.6723         calculate D2E/DX2 analytically  !
 ! D96   D(17,12,13,37)        -38.6646         calculate D2E/DX2 analytically  !
 ! D97   D(11,12,17,32)       -172.8515         calculate D2E/DX2 analytically  !
 ! D98   D(11,12,17,33)        -47.3142         calculate D2E/DX2 analytically  !
 ! D99   D(11,12,17,34)         66.4852         calculate D2E/DX2 analytically  !
 ! D100  D(13,12,17,32)         11.9503         calculate D2E/DX2 analytically  !
 ! D101  D(13,12,17,33)        137.4876         calculate D2E/DX2 analytically  !
 ! D102  D(13,12,17,34)       -108.713          calculate D2E/DX2 analytically  !
 ! D103  D(7,14,15,16)         -91.0634         calculate D2E/DX2 analytically  !
 ! D104  D(7,14,15,18)         151.6931         calculate D2E/DX2 analytically  !
 ! D105  D(7,14,15,19)          31.7596         calculate D2E/DX2 analytically  !
 ! D106  D(8,26,38,40)         171.9417         calculate D2E/DX2 analytically  !
 ! D107  D(39,26,38,40)         -7.7632         calculate D2E/DX2 analytically  !
 ! D108  D(26,38,40,41)       -170.8844         calculate D2E/DX2 analytically  !
 ! D109  D(26,38,40,42)        -49.8833         calculate D2E/DX2 analytically  !
 ! D110  D(26,38,40,43)         67.5475         calculate D2E/DX2 analytically  !
 ! D111  D(38,40,41,44)       -179.832          calculate D2E/DX2 analytically  !
 ! D112  D(38,40,41,45)        -60.2002         calculate D2E/DX2 analytically  !
 ! D113  D(38,40,41,46)         60.5558         calculate D2E/DX2 analytically  !
 ! D114  D(42,40,41,44)         61.8654         calculate D2E/DX2 analytically  !
 ! D115  D(42,40,41,45)       -178.5029         calculate D2E/DX2 analytically  !
 ! D116  D(42,40,41,46)        -57.7468         calculate D2E/DX2 analytically  !
 ! D117  D(43,40,41,44)        -60.8269         calculate D2E/DX2 analytically  !
 ! D118  D(43,40,41,45)         58.8048         calculate D2E/DX2 analytically  !
 ! D119  D(43,40,41,46)        179.5608         calculate D2E/DX2 analytically  !
 --------------------------------------------------------------------------------
 Trust Radius=5.00D-02 FncErr=1.00D-07 GrdErr=1.00D-06 EigMax=2.50D+02 EigMin=1.00D-04
 Number of steps in this run=    262 maximum allowed number of steps=    276.
 Search for a saddle point of order  1.
 GradGradGradGradGradGradGradGradGradGradGradGradGradGradGradGradGradGrad

 Leave Link  103 at Tue Jul 13 11:47:47 2021, MaxMem=  2147483648 cpu:               0.4 elap:               0.1
 (Enter /SFS/product/gaussian/g16.a03/x86_64/avx/g16/l202.exe)
                          Input orientation:                          
 ---------------------------------------------------------------------
 Center     Atomic      Atomic             Coordinates (Angstroms)
 Number     Number       Type             X           Y           Z
 ---------------------------------------------------------------------
      1          6           0        2.859167    1.338912   -0.405959
      2          6           0        1.593369    0.803944   -0.691758
      3          6           0        1.431346    0.020332   -1.838746
      4          6           0        2.517124   -0.232313   -2.682654
      5          6           0        3.776950    0.295257   -2.389269
      6          6           0        3.943956    1.084670   -1.245336
      7          6           0        0.434617    1.036736    0.264502
      8          6           0        0.713564    0.525927    1.735482
      9          6           0        0.870298    1.764623    2.619990
     10          6           0       -0.110332    2.763982    1.998177
     11          6           0        0.157692    2.607816    0.501333
     12          6           0       -0.896275    2.915586   -0.479493
     13          6           0       -0.526316    3.072085   -1.885891
     14          8           0       -0.764158    0.520347   -0.259009
     15         26           0       -1.954421   -0.876311   -0.169889
     16         17           0       -1.408108   -2.501391   -1.648424
     17          6           0       -2.275071    3.167620   -0.064819
     18         17           0       -3.944940    0.022002   -0.774601
     19         17           0       -2.122580   -1.798279    1.886918
     20          1           0        0.458328   -0.407877   -2.061429
     21          1           0        2.375119   -0.848631   -3.571060
     22          1           0        4.624296    0.096543   -3.046349
     23          1           0        4.921462    1.504024   -1.005641
     24          1           0        3.012030    1.952203    0.481655
     25          1           0       -0.196944   -0.012177    2.023446
     26          6           0        1.849913   -0.466713    1.819963
     27          1           0        0.647076    1.546921    3.670541
     28          1           0        1.899791    2.142866    2.570855
     29          1           0       -1.138126    2.476830    2.252305
     30          1           0        0.045817    3.795526    2.333570
     31          1           0        1.067521    3.148545    0.211668
     32          1           0       -2.968859    3.259330   -0.903158
     33          1           0       -2.612953    2.401434    0.644742
     34          1           0       -2.256181    4.112311    0.512220
     35          1           0       -0.479475    4.171785   -2.030976
     36          1           0        0.456777    2.660835   -2.130063
     37          1           0       -1.315292    2.710481   -2.555511
     38          8           0        1.581553   -1.555690    1.089340
     39          8           0        2.875758   -0.307844    2.456221
     40          6           0        2.654657   -2.523291    0.924468
     41          6           0        2.195953   -3.530696   -0.106926
     42          1           0        3.552087   -1.980486    0.601655
     43          1           0        2.856652   -2.985407    1.899594
     44          1           0        2.984568   -4.281362   -0.254590
     45          1           0        1.282826   -4.043541    0.223308
     46          1           0        1.995212   -3.037059   -1.066668
 ---------------------------------------------------------------------
                    Distance matrix (angstroms):
                    1          2          3          4          5
     1  C    0.000000
     2  C    1.403608   0.000000
     3  C    2.414582   1.398528   0.000000
     4  C    2.787307   2.427101   1.398186   0.000000
     5  C    2.421789   2.812176   2.424978   1.396985   0.000000
     6  C    1.394977   2.431155   2.792519   2.415818   1.399874
     7  C    2.533628   1.520306   2.539724   3.825317   4.331683
     8  C    3.138523   2.596699   3.680481   4.831944   5.143065
     9  C    3.645984   3.523267   4.820545   5.900663   5.974976
    10  C    4.077820   3.738997   4.962496   6.147478   6.360444
    11  C    3.119497   2.595879   3.713925   4.875554   5.177117
    12  C    4.073653   3.271455   3.955741   5.139502   5.687917
    13  C    4.081125   3.326181   3.625998   4.562500   5.146092
    14  O    3.717543   2.413635   2.750604   4.148176   5.020989
    15  Fe   5.304109   3.960103   3.879751   5.169472   6.256743
    16  Cl   5.873779   4.566105   3.802342   4.650354   5.937585
    17  C    5.460856   4.576554   5.175883   6.432553   7.090874
    18  Cl   6.940174   5.593850   5.480589   6.742671   7.893631
    19  Cl   6.317995   5.218181   5.460614   6.697768   7.581103
    20  H    3.399394   2.152400   1.086147   2.157634   3.408097
    21  H    3.877823   3.410648   2.155624   1.090540   2.161074
    22  H    3.410399   3.902696   3.414534   2.163468   1.090521
    23  H    2.154052   3.415382   3.882823   3.407063   2.164590
    24  H    1.089657   2.169792   3.408071   3.876841   3.401878
    25  H    4.131255   3.353149   4.191529   5.437095   5.946293
    26  C    3.038685   2.826504   3.714642   4.557815   4.691663
    27  H    4.642679   4.525167   5.770424   6.857539   6.934268
    28  H    3.229267   3.539951   4.916215   5.798442   5.616068
    29  H    4.933516   4.350531   5.419711   6.712237   7.103622
    30  H    4.631944   4.527371   5.794825   6.891542   6.962646
    31  H    2.620349   2.567070   3.757963   4.680668   4.716686
    32  H    6.156387   5.185319   5.543306   6.741972   7.516661
    33  H    5.672479   4.693757   5.309775   6.657768   7.380519
    34  H    5.890805   5.216693   5.989089   7.201904   7.706310
    35  H    4.670373   4.175229   4.574139   5.366598   5.768275
    36  H    3.239057   2.609331   2.829648   3.594536   4.084935
    37  H    4.891614   3.945728   3.910841   4.833592   5.638428
    38  O    3.499562   2.956404   3.328678   4.105430   4.510709
    39  O    3.302144   3.576362   4.543211   5.151928   4.965345
    40  C    4.090046   3.848248   3.949919   4.275374   4.492728
    41  C    4.923653   4.415228   4.024130   4.197244   4.727215
    42  H    3.537489   3.641778   3.802154   3.861857   3.764996
    43  H    4.900542   4.761320   5.004113   5.356473   5.477595
    44  H    5.623710   5.290263   4.840105   4.744344   5.111767
    45  H    5.643725   4.942863   4.559516   4.949097   5.645474
    46  H    4.509110   3.880121   3.203387   3.278781   4.003523
                    6          7          8          9         10
     6  C    0.000000
     7  C    3.820650   0.000000
     8  C    4.430903   1.581935   0.000000
     9  C    4.985023   2.503590   1.530127   0.000000
    10  C    5.456896   2.507185   2.399313   1.531994   0.000000
    11  C    4.439214   1.612783   2.483220   2.389035   1.528649
    12  C    5.231310   2.419686   3.634304   3.748639   2.603755
    13  C    4.933909   3.112913   4.597235   4.895197   3.918412
    14  O    4.843309   1.406337   2.482275   3.536708   3.249042
    15  Fe   6.308160   3.091269   3.565789   4.768332   4.620921
    16  Cl   6.454991   4.424168   5.011683   6.450532   6.534988
    17  C    6.663978   3.462879   4.376250   4.366915   3.017444
    18  Cl   7.974054   4.614102   5.315648   6.143817   5.469092
    19  Cl   7.411158   4.148349   3.669956   4.710518   4.987559
    20  H    3.878570   2.738142   3.918376   5.177370   5.183094
    21  H    3.407036   4.693793   5.727963   6.886413   7.088359
    22  H    2.164002   5.422094   6.192262   6.998742   7.414794
    23  H    1.090335   4.686512   5.116330   5.442889   5.994111
    24  H    2.145600   2.743774   2.981491   3.032273   3.564824
    25  H    5.388419   2.143122   1.096131   2.156824   2.777625
    26  C    4.023414   2.585127   1.511212   2.564868   3.783082
    27  H    5.937082   3.450584   2.188904   1.095847   2.202659
    28  H    4.456647   2.947800   2.172435   1.097879   2.180445
    29  H    6.324489   2.915262   2.738957   2.162452   1.096995
    30  H    5.945822   3.470321   3.390261   2.210514   1.095880
    31  H    3.828357   2.205243   3.053755   2.784628   2.174130
    32  H    7.254877   4.229303   5.290950   5.420871   4.102961
    33  H    6.949771   3.360754   3.971518   4.054648   2.868160
    34  H    7.120204   4.094010   4.814344   4.441757   2.937810
    35  H    5.451078   3.991656   5.376042   5.408124   4.283953
    36  H    3.927780   2.893463   4.423371   4.851515   4.168287
    37  H    5.658578   3.716998   5.225051   5.697127   4.710718
    38  O    4.243013   2.952371   2.346068   3.724681   4.727370
    39  O    4.096543   3.545518   2.426875   2.888565   4.308440
    40  C    4.403149   4.247108   3.704499   4.944182   6.062448
    41  C    5.064888   4.909348   4.695544   6.101953   7.026619
    42  H    3.600016   4.351542   3.952832   5.029066   6.154150
    43  H    5.257218   4.971661   4.116944   5.198784   6.470563
    44  H    5.540424   5.920631   5.676960   7.020490   8.018119
    45  H    5.961298   5.150764   4.846727   6.296748   7.171710
    46  H    4.562694   4.561061   4.710577   6.157356   6.890477
                   11         12         13         14         15
    11  C    0.000000
    12  C    1.472273   0.000000
    13  C    2.526312   1.462640   0.000000
    14  O    2.405297   2.408991   3.035569   0.000000
    15  Fe   4.129249   3.948925   4.535855   1.837205   0.000000
    16  Cl   5.759964   5.565250   5.647794   3.387631   2.263937
    17  C    2.559735   1.461696   2.526574   3.054279   4.057984
    18  Cl   5.014582   4.213582   4.714336   3.260607   2.266012
    19  Cl   5.151035   5.415187   6.364165   3.438945   2.260256
    20  H    3.968946   3.922101   3.620839   2.367444   3.101405
    21  H    5.783459   5.867635   5.160439   4.764330   5.505783
    22  H    6.232423   6.709132   6.060472   6.081473   7.245687
    23  H    5.116916   6.009609   5.736893   5.818192   7.324087
    24  H    2.928730   4.138449   4.402193   4.105897   5.752446
    25  H    3.050731   3.914788   4.990398   2.411413   2.940437
    26  C    3.749017   4.926357   5.648266   3.482783   4.312799
    27  H    3.377703   4.634432   5.880213   4.299628   5.233426
    28  H    2.744815   4.209478   5.158685   4.211570   5.610887
    29  H    2.182248   2.777358   4.225317   3.205367   4.216268
    30  H    2.186381   3.094375   4.319092   4.254917   5.665185
    31  H    1.097307   2.094867   2.635511   3.237902   5.047493
    32  H    3.488895   2.143188   2.639477   3.574586   4.320914
    33  H    2.782020   2.115476   3.347825   2.788063   3.441061
    34  H    2.844364   2.065185   3.134556   3.965240   5.044074
    35  H    3.043776   2.039328   1.110218   4.068650   5.578744
    36  H    2.648869   2.149425   1.093260   3.094061   4.708244
    37  H    3.394778   2.127791   1.096190   3.220925   4.354854
    38  O    4.439360   5.347259   5.891639   3.410328   3.814489
    39  O    4.439656   5.765167   6.469309   4.615990   5.527227
    40  C    5.722074   6.645420   7.023172   4.727859   5.015352
    41  C    6.496600   7.159276   7.360175   5.019595   4.927000
    42  H    5.708283   6.702860   6.953397   5.062102   5.668872
    43  H    6.365820   7.386896   7.903643   5.482713   5.646014
    44  H    7.484879   8.179706   8.310273   6.091747   5.999597
    45  H    6.751576   7.326108   7.638969   5.025122   4.545956
    46  H    6.140010   6.643753   6.659645   4.574011   4.590495
                   16         17         18         19         20
    16  Cl   0.000000
    17  C    5.949547   0.000000
    18  Cl   3.683286   3.631414   0.000000
    19  Cl   3.674708   5.337854   3.703796   0.000000
    20  H    2.834953   4.923627   4.607547   4.917697   0.000000
    21  H    4.554223   7.074480   6.965725   7.135871   2.479383
    22  H    6.715158   8.119255   8.865563   8.570170   4.310429
    23  H    7.517977   7.445991   8.992378   8.300038   4.968865
    24  H    6.626414   5.452459   7.328253   6.511920   4.307975
    25  H    4.598449   4.334809   4.677361   2.629995   4.155979
    26  C    5.175357   5.811736   6.367961   4.190257   4.123733
    27  H    6.993139   5.011838   6.570485   4.694962   6.059071
    28  H    7.093210   5.042457   7.060526   5.672730   5.481073
    29  H    6.330187   2.671872   4.802764   4.402183   5.429411
    30  H    7.590872   3.396035   6.310812   6.015987   6.095472
    31  H    6.442861   3.354062   5.989388   6.119990   4.264531
    32  H    6.014754   1.092046   3.383719   5.837818   5.151273
    33  H    5.545084   1.097580   3.074154   4.406933   4.964711
    34  H    7.009184   1.107146   4.608519   6.069820   5.867225
    35  H    6.748332   2.845749   5.550552   7.327438   4.674795
    36  H    5.509841   3.461944   5.308091   6.532451   3.069480
    37  H    5.291033   2.708080   4.161083   6.380894   3.621326
    38  O    4.162664   6.206069   6.041979   3.796786   3.536447
    39  O    6.325446   6.705634   7.554398   5.246798   5.124757
    40  C    4.808982   7.593904   7.274616   4.926860   4.267835
    41  C    4.052769   8.053525   7.125870   5.062253   4.073257
    42  H    5.471538   7.804034   7.880955   5.821250   4.374524
    43  H    5.568741   8.249439   7.903005   5.118807   5.299559
    44  H    4.940311   9.120699   8.173581   6.069161   4.964921
    45  H    3.622531   8.046272   6.697313   4.405178   4.372399
    46  H    3.493990   7.598491   6.687942   5.216748   3.203773
                   21         22         23         24         25
    21  H    0.000000
    22  H    2.495490   0.000000
    23  H    4.312798   2.496758   0.000000
    24  H    4.967376   4.299964   2.461472   0.000000
    25  H    6.213989   6.997071   6.137778   4.066131   0.000000
    26  C    5.429994   5.629871   4.615437   2.998790   2.106569
    27  H    7.820843   7.939678   6.335526   3.990771   2.419934
    28  H    6.848220   6.569882   4.725456   2.374486   3.056168
    29  H    7.570546   8.182115   6.948321   4.542492   2.670834
    30  H    7.865017   7.974238   6.338235   3.952954   3.828017
    31  H    5.656524   5.707893   4.363388   2.298966   3.856368
    32  H    7.249217   8.500147   8.083858   6.276729   5.191462
    33  H    7.294983   8.444788   7.765083   5.645249   3.682858
    34  H    7.920420   8.725295   7.786246   5.693948   4.851357
    35  H    5.977051   6.609619   6.110514   4.840503   5.832984
    36  H    4.251219   4.978292   4.747204   3.721901   4.982367
    37  H    5.226639   6.507864   6.538711   5.340887   5.443383
    38  O    4.780064   5.393708   4.990570   3.836777   2.533385
    39  O    6.072167   5.787849   4.410472   3.004213   3.117084
    40  C    4.805455   5.148825   5.008292   4.511524   3.955385
    41  C    4.384723   5.262501   5.795213   5.574459   4.758615
    42  H    4.480837   4.332622   4.074359   3.971411   4.466650
    43  H    5.892855   6.089773   5.732261   5.139522   4.263788
    44  H    4.811865   5.445060   6.147058   6.276953   5.791149
    45  H    5.079152   6.244708   6.747256   6.245465   4.656405
    46  H    3.347466   4.544302   5.402601   5.322026   4.848120
                   26         27         28         29         30
    26  C    0.000000
    27  H    2.987671   0.000000
    28  H    2.715921   1.770241   0.000000
    29  H    4.216603   2.462330   3.072775   0.000000
    30  H    4.656741   2.684256   2.494957   1.774059   0.000000
    31  H    4.033465   3.834811   2.696262   3.079006   2.442321
    32  H    6.672282   6.076681   6.084325   3.731064   4.455579
    33  H    5.433653   4.529177   4.913413   2.182901   3.444516
    34  H    6.287898   4.998512   5.038729   2.636805   2.952433
    35  H    6.463083   6.377015   5.563656   4.653299   4.412116
    36  H    5.227341   5.909655   4.944614   4.667196   4.623898
    37  H    6.265609   6.630874   6.077711   4.816749   5.189706
    38  O    1.338543   4.142709   3.996934   5.001036   5.704569
    39  O    1.217547   3.143525   2.640385   4.889505   4.986106
    40  C    2.383073   5.304519   5.005341   6.414793   6.979904
    41  C    3.636019   6.515403   6.280727   7.264463   8.015774
    42  H    2.583250   5.504521   4.858998   6.677605   6.975369
    43  H    2.713611   5.344200   5.259787   6.776333   7.353243
    44  H    4.488069   7.405363   7.101450   8.303872   8.976132
    45  H    3.957852   6.598550   6.645544   7.245211   8.211843
    46  H    3.867871   6.728409   6.330269   7.157958   7.876927
                   31         32         33         34         35
    31  H    0.000000
    32  H    4.188970   0.000000
    33  H    3.780425   1.805173   0.000000
    34  H    3.473640   1.799661   1.752697   0.000000
    35  H    2.910270   2.881246   3.852965   3.102913   0.000000
    36  H    2.468719   3.687611   4.146091   4.055685   1.780269
    37  H    3.677904   2.401206   3.467139   3.501624   1.763274
    38  O    4.812937   6.918144   5.783630   6.869316   6.840188
    39  O    4.500485   7.626907   6.383384   7.046539   7.173535
    40  C    5.932690   8.270602   7.216570   8.265440   7.961248
    41  C    6.781380   8.568181   7.673379   8.866814   8.377834
    42  H    5.712453   8.499581   7.563782   8.418204   7.812469
    43  H    6.608741   8.988256   7.778772   8.856832   8.820687
    44  H    7.687391   9.629432   8.763607   9.925079   9.306494
    45  H    7.195317   8.525120   7.542705   8.895278   8.699373
    46  H    6.384078   8.019554   7.330847   8.466447   7.682538
                   36         37         38         39         40
    36  H    0.000000
    37  H    1.823102   0.000000
    38  O    5.422984   6.314813   0.000000
    39  O    5.974824   7.196711   2.258418   0.000000
    40  C    6.405935   7.433917   1.454299   2.702473   0.000000
    41  C    6.741875   7.568137   2.389391   4.173564   1.512960
    42  H    6.211690   7.460848   2.073956   2.587386   1.097372
    43  H    7.340135   8.348426   2.080019   2.734875   1.097827
    44  H    7.622416   8.524606   3.347221   4.811360   2.142389
    45  H    7.153277   7.751701   2.651160   4.634519   2.164418
    46  H    5.996965   6.797816   2.648384   4.542546   2.159502
                   41         42         43         44         45
    41  C    0.000000
    42  H    2.178150   0.000000
    43  H    2.181739   1.782734   0.000000
    44  H    1.098735   2.519775   2.517215   0.000000
    45  H    1.098119   3.090127   2.531109   1.783500   0.000000
    46  H    1.097761   2.514659   3.089249   1.785101   1.784527
                   46
    46  H    0.000000
 Stoichiometry    C17H22Cl3FeO3(6)
 Framework group  C1[X(C17H22Cl3FeO3)]
 Deg. of freedom   132
 Full point group                 C1      NOp   1
 Largest Abelian subgroup         C1      NOp   1
 Largest concise Abelian subgroup C1      NOp   1
                         Standard orientation:                         
 ---------------------------------------------------------------------
 Center     Atomic      Atomic             Coordinates (Angstroms)
 Number     Number       Type             X           Y           Z
 ---------------------------------------------------------------------
      1          6           0        2.859167    1.338912   -0.405959
      2          6           0        1.593369    0.803944   -0.691758
      3          6           0        1.431346    0.020332   -1.838746
      4          6           0        2.517124   -0.232313   -2.682654
      5          6           0        3.776950    0.295257   -2.389269
      6          6           0        3.943956    1.084670   -1.245336
      7          6           0        0.434617    1.036736    0.264502
      8          6           0        0.713564    0.525927    1.735482
      9          6           0        0.870298    1.764623    2.619990
     10          6           0       -0.110332    2.763982    1.998177
     11          6           0        0.157692    2.607816    0.501333
     12          6           0       -0.896275    2.915586   -0.479493
     13          6           0       -0.526316    3.072085   -1.885891
     14          8           0       -0.764158    0.520347   -0.259009
     15         26           0       -1.954421   -0.876311   -0.169889
     16         17           0       -1.408108   -2.501391   -1.648424
     17          6           0       -2.275071    3.167620   -0.064819
     18         17           0       -3.944940    0.022002   -0.774601
     19         17           0       -2.122580   -1.798279    1.886918
     20          1           0        0.458328   -0.407877   -2.061429
     21          1           0        2.375119   -0.848631   -3.571060
     22          1           0        4.624296    0.096543   -3.046349
     23          1           0        4.921462    1.504024   -1.005641
     24          1           0        3.012030    1.952203    0.481655
     25          1           0       -0.196944   -0.012177    2.023446
     26          6           0        1.849913   -0.466713    1.819963
     27          1           0        0.647076    1.546921    3.670541
     28          1           0        1.899791    2.142866    2.570855
     29          1           0       -1.138126    2.476830    2.252305
     30          1           0        0.045817    3.795526    2.333570
     31          1           0        1.067521    3.148545    0.211668
     32          1           0       -2.968859    3.259330   -0.903158
     33          1           0       -2.612953    2.401434    0.644742
     34          1           0       -2.256181    4.112311    0.512220
     35          1           0       -0.479475    4.171785   -2.030976
     36          1           0        0.456777    2.660835   -2.130063
     37          1           0       -1.315292    2.710481   -2.555511
     38          8           0        1.581553   -1.555690    1.089340
     39          8           0        2.875758   -0.307844    2.456221
     40          6           0        2.654657   -2.523291    0.924468
     41          6           0        2.195953   -3.530696   -0.106926
     42          1           0        3.552087   -1.980486    0.601655
     43          1           0        2.856652   -2.985407    1.899594
     44          1           0        2.984568   -4.281362   -0.254590
     45          1           0        1.282826   -4.043541    0.223308
     46          1           0        1.995212   -3.037059   -1.066668
 ---------------------------------------------------------------------
 Rotational constants (GHZ):           0.2153072           0.1635719           0.1413615
 Leave Link  202 at Tue Jul 13 11:47:47 2021, MaxMem=  2147483648 cpu:               0.3 elap:               0.0
 (Enter /SFS/product/gaussian/g16.a03/x86_64/avx/g16/l301.exe)
 Standard basis: Jul-CC-pVDZ (5D, 7F)
 Ernie: Thresh=  0.10000D-02 Tol=  0.10000D-05 Strict=F.
 Ernie:  134 primitive shells out of 958 were deleted.
 There are   766 symmetry adapted cartesian basis functions of A   symmetry.
 There are   710 symmetry adapted basis functions of A   symmetry.
   710 basis functions,  1571 primitive gaussians,   766 cartesian basis functions
   115 alpha electrons      110 beta electrons
       nuclear repulsion energy      3369.7011424077 Hartrees.
 IExCor=  402 DFT=T Ex+Corr=B3LYP ExCW=0 ScaHFX=  0.200000
 ScaDFX=  0.800000  0.720000  1.000000  0.810000 ScalE2=  1.000000  1.000000
 IRadAn=      5 IRanWt=     -1 IRanGd=            0 ICorTp=0 IEmpDi=141
 NAtoms=   46 NActive=   46 NUniq=   46 SFac= 1.00D+00 NAtFMM=   60 NAOKFM=F Big=F
 Integral buffers will be    131072 words long.
 Raffenetti 2 integral format.
 Two-electron integral symmetry is turned on.
 R6Disp:  Grimme-D3(BJ) Dispersion energy=       -0.1216155062 Hartrees.
 Nuclear repulsion after empirical dispersion term =     3369.5795269015 Hartrees.
 Force inversion solution in PCM.
 ------------------------------------------------------------------------------
 Polarizable Continuum Model (PCM)
 =================================
 Model                : PCM.
 Atomic radii         : UFF (Universal Force Field).
 Polarization charges : Total charges.
 Charge compensation  : None.
 Solution method      : Matrix inversion.
 Cavity type          : Scaled VdW (van der Waals Surface) (Alpha=1.100).
 Cavity algorithm     : GePol (No added spheres)
                        Default sphere list used, NSphG=   46.
                        Lebedev-Laikov grids with approx.  5.0 points / Ang**2.
                        Smoothing algorithm: York/Karplus (Gamma=1.0000).
                        Polarization charges: spherical gaussians, with
                                              point-specific exponents (IZeta= 3).
                        Self-potential: point-specific (ISelfS= 7).
                        Self-field    : sphere-specific E.n sum rule (ISelfD= 2).
 1st derivatives      : Analytical E(r).r(x)/FMM algorithm (CHGder, D1EAlg=3).
                        Cavity 1st derivative terms included.
 2nd derivatives      : Analytical E(r).r(xy)/FMM algorithm (CHGder, D2EAlg=3).
                        Cavity 2nd derivative terms included.
 Solvent              : Water, Eps=  78.355300 Eps(inf)=   1.777849
 ------------------------------------------------------------------------------
 GePol: Number of generator spheres                  =      46
 GePol: Total number of spheres                      =      46
 GePol: Number of exposed spheres                    =      46 (100.00%)
 GePol: Number of points                             =    3282
 GePol: Average weight of points                     =       0.14
 GePol: Minimum weight of points                     =   0.86D-11
 GePol: Maximum weight of points                     =    0.21616
 GePol: Number of points with low weight             =     205
 GePol: Fraction of low-weight points (<1% of avg)   =       6.25%
 GePol: Cavity surface area                          =    446.273 Ang**2
 GePol: Cavity volume                                =    517.270 Ang**3
 Leave Link  301 at Tue Jul 13 11:47:47 2021, MaxMem=  2147483648 cpu:               1.9 elap:               0.2
 (Enter /SFS/product/gaussian/g16.a03/x86_64/avx/g16/l302.exe)
 NPDir=0 NMtPBC=     1 NCelOv=     1 NCel=       1 NClECP=     1 NCelD=      1
         NCelK=      1 NCelE2=     1 NClLst=     1 CellRange=     0.0.
 One-electron integrals computed using PRISM.
 One-electron integral symmetry used in STVInt
 NBasis=   710 RedAO= T EigKep=  1.24D-06  NBF=   710
 NBsUse=   710 1.00D-06 EigRej= -1.00D+00 NBFU=   710
 Precomputing XC quadrature grid using
 IXCGrd= 4 IRadAn=           5 IRanWt=          -1 IRanGd=           0 AccXCQ= 0.00D+00.
 Generated NRdTot=       0 NPtTot=           0 NUsed=           0 NTot=          32
 NSgBfM=   764   763   764   764   764 MxSgAt=    46 MxSgA2=    46.
 Leave Link  302 at Tue Jul 13 11:47:49 2021, MaxMem=  2147483648 cpu:              22.0 elap:               1.4
 (Enter /SFS/product/gaussian/g16.a03/x86_64/avx/g16/l303.exe)
 DipDrv:  MaxL=1.
 Leave Link  303 at Tue Jul 13 11:47:49 2021, MaxMem=  2147483648 cpu:               3.3 elap:               0.3
 (Enter /SFS/product/gaussian/g16.a03/x86_64/avx/g16/l401.exe)
 ExpMin= 1.40D-02 ExpMax= 4.32D+06 ExpMxC= 4.91D+03 IAcc=3 IRadAn=         5 AccDes= 0.00D+00
 Harris functional with IExCor=  402 and IRadAn=       5 diagonalized for initial guess.
 HarFok:  IExCor=  402 AccDes= 0.00D+00 IRadAn=         5 IDoV= 1 UseB2=F ITyADJ=14
 ICtDFT=  3500011 ScaDFX=  1.000000  1.000000  1.000000  1.000000
 FoFCou: FMM=F IPFlag=           0 FMFlag=      100000 FMFlg1=           0
         NFxFlg=           0 DoJE=T BraDBF=F KetDBF=T FulRan=T
         wScrn=  0.000000 ICntrl=       500 IOpCl=  0 I1Cent=   200000004 NGrid=           0
         NMat0=    1 NMatS0=      1 NMatT0=    0 NMatD0=    1 NMtDS0=    0 NMtDT0=    0
 Petite list used in FoFCou.
 Harris En= -3531.20517327222    
 JPrj=0 DoOrth=F DoCkMO=F.
 Initial guess <Sx>= 0.0000 <Sy>= 0.0000 <Sz>= 2.5000 <S**2>= 8.7500 S= 2.5000
 Leave Link  401 at Tue Jul 13 11:47:58 2021, MaxMem=  2147483648 cpu:             134.0 elap:               8.4
 (Enter /SFS/product/gaussian/g16.a03/x86_64/avx/g16/l502.exe)
 Integral symmetry usage will be decided dynamically.
 UHF open shell SCF:
 Using DIIS extrapolation, IDIIS=  1040.
 NGot=  2147483648 LenX=  2146290678 LenY=  2145703156
 Requested convergence on RMS density matrix=1.00D-08 within 128 cycles.
 Requested convergence on MAX density matrix=1.00D-06.
 Requested convergence on             energy=1.00D-06.
 No special actions if energy rises.
 Fock matrices will be formed incrementally for  20 cycles.

 Cycle   1  Pass 1  IDiag  1:
 FoFJK:  IHMeth= 1 ICntrl=       0 DoSepK=F KAlg= 0 I1Cent=           0 FoldK=F
 IRaf= 930000000 NMat=       1 IRICut=       1 DoRegI=T DoRafI=F ISym2E= 0 IDoP0=0 IntGTp=1.
 FoFCou: FMM=F IPFlag=           0 FMFlag=      100000 FMFlg1=           0
         NFxFlg=           0 DoJE=F BraDBF=F KetDBF=F FulRan=T
         wScrn=  0.000000 ICntrl=         0 IOpCl=  1 I1Cent=           0 NGrid=           0
         NMat0=    1 NMatS0=      1 NMatT0=    0 NMatD0=    1 NMtDS0=    0 NMtDT0=    0
 Symmetry not used in FoFCou.
 Inv3:  Mode=1 IEnd=    32314572.
 Iteration    1 A*A^-1 deviation from unit magnitude is 8.55D-15 for   3277.
 Iteration    1 A*A^-1 deviation from orthogonality  is 2.66D-15 for   2472    695.
 Iteration    1 A^-1*A deviation from unit magnitude is 7.66D-15 for   3277.
 Iteration    1 A^-1*A deviation from orthogonality  is 1.04D-12 for   2138   2112.
 E= -3530.52070263210    
 DIIS: error= 2.24D-02 at cycle   1 NSaved=   1.
 NSaved= 1 IEnMin= 1 EnMin= -3530.52070263210     IErMin= 1 ErrMin= 2.24D-02
 ErrMax= 2.24D-02  0.00D+00 EMaxC= 1.00D-01 BMatC= 4.56D+00 BMatP= 4.56D+00
 IDIUse=3 WtCom= 7.76D-01 WtEn= 2.24D-01
 Coeff-Com:  0.100D+01
 Coeff-En:   0.100D+01
 Coeff:      0.100D+01
 Gap=     0.106 Goal=   None    Shift=    0.000
 Gap=     0.076 Goal=   None    Shift=    0.000
 GapD=    0.076 DampG=0.500 DampE=0.250 DampFc=0.1250 IDamp=-1.
 Damping current iteration by 1.25D-01
 RMSDP=3.67D-02 MaxDP=1.09D+01              OVMax= 7.75D-01

 Cycle   2  Pass 1  IDiag  1:
 RMSU=  2.79D-03    CP:  9.56D-01
 E= -3530.84608880353     Delta-E=       -0.325386171431 Rises=F Damp=T
 DIIS: error= 7.37D-03 at cycle   2 NSaved=   2.
 NSaved= 2 IEnMin= 2 EnMin= -3530.84608880353     IErMin= 2 ErrMin= 7.37D-03
 ErrMax= 7.37D-03  0.00D+00 EMaxC= 1.00D-01 BMatC= 1.24D+00 BMatP= 4.56D+00
 IDIUse=3 WtCom= 9.26D-01 WtEn= 7.37D-02
 Coeff-Com: -0.487D+00 0.149D+01
 Coeff-En:   0.000D+00 0.100D+01
 Coeff:     -0.451D+00 0.145D+01
 Gap=     0.312 Goal=   None    Shift=    0.000
 Gap=    -0.014 Goal=   None    Shift=    0.000
 RMSDP=3.12D-02 MaxDP=9.64D+00 DE=-3.25D-01 OVMax= 9.98D-01

 Cycle   3  Pass 1  IDiag  1:
 RMSU=  8.86D-03    CP:  5.98D-01  1.65D+00
 E= -3530.48478301763     Delta-E=        0.361305785903 Rises=F Damp=F
 DIIS: error= 3.39D-02 at cycle   3 NSaved=   3.
 NSaved= 3 IEnMin= 2 EnMin= -3530.84608880353     IErMin= 2 ErrMin= 7.37D-03
 ErrMax= 3.39D-02  0.00D+00 EMaxC= 1.00D-01 BMatC= 4.88D+00 BMatP= 1.24D+00
 IDIUse=2 WtCom= 0.00D+00 WtEn= 1.00D+00
 Coeff-En:   0.000D+00 0.685D+00 0.315D+00
 Coeff:      0.000D+00 0.685D+00 0.315D+00
 Gap=    -0.359 Goal=   None    Shift=    0.000
 Gap=    -0.219 Goal=   None    Shift=    0.000
 RMSDP=1.13D-02 MaxDP=1.17D+00 DE= 3.61D-01 OVMax= 7.96D-01

 Cycle   4  Pass 1  IDiag  1:
 RMSU=  6.17D-03    CP:  6.34D-01  3.00D+00  3.12D-01
 E= -3523.04358965891     Delta-E=        7.441193358713 Rises=F Damp=F
 DIIS: error= 9.58D-02 at cycle   4 NSaved=   4.
 NSaved= 4 IEnMin= 2 EnMin= -3530.84608880353     IErMin= 2 ErrMin= 7.37D-03
 ErrMax= 9.58D-02  0.00D+00 EMaxC= 1.00D-01 BMatC= 4.67D+01 BMatP= 1.24D+00
 IDIUse=2 WtCom= 0.00D+00 WtEn= 1.00D+00
 EnCoef did   100 forward-backward iterations
 Coeff-En:   0.273D+00 0.383D-01 0.507D+00 0.182D+00
 Coeff:      0.273D+00 0.383D-01 0.507D+00 0.182D+00
 Gap=     0.135 Goal=   None    Shift=    0.000
 Gap=     0.030 Goal=   None    Shift=    0.000
 RMSDP=7.40D-03 MaxDP=1.12D+00 DE= 7.44D+00 OVMax= 9.47D-01

 Cycle   5  Pass 1  IDiag  1:
 RMSU=  4.38D-03    CP:  6.42D-01  2.27D+00  5.37D-01  4.73D-01
 E= -3530.80345116744     Delta-E=       -7.759861508529 Rises=F Damp=F
 DIIS: error= 3.56D-02 at cycle   5 NSaved=   5.
 NSaved= 5 IEnMin= 2 EnMin= -3530.84608880353     IErMin= 2 ErrMin= 7.37D-03
 ErrMax= 3.56D-02  0.00D+00 EMaxC= 1.00D-01 BMatC= 4.94D+00 BMatP= 1.24D+00
 IDIUse=2 WtCom= 0.00D+00 WtEn= 1.00D+00
 Coeff-En:   0.000D+00 0.000D+00 0.442D+00 0.000D+00 0.558D+00
 Coeff:      0.000D+00 0.000D+00 0.442D+00 0.000D+00 0.558D+00
 Gap=     0.079 Goal=   None    Shift=    0.000
 Gap=     0.093 Goal=   None    Shift=    0.000
 RMSDP=4.44D-03 MaxDP=4.40D-01 DE=-7.76D+00 OVMax= 3.59D-01

 Cycle   6  Pass 1  IDiag  1:
 RMSU=  3.04D-03    CP:  6.46D-01  1.50D+00  6.67D-01  3.48D-01  5.52D-01
 E= -3531.47286566223     Delta-E=       -0.669414494789 Rises=F Damp=F
 DIIS: error= 7.60D-03 at cycle   6 NSaved=   6.
 NSaved= 6 IEnMin= 6 EnMin= -3531.47286566223     IErMin= 2 ErrMin= 7.37D-03
 ErrMax= 7.60D-03  0.00D+00 EMaxC= 1.00D-01 BMatC= 4.68D-01 BMatP= 1.24D+00
 IDIUse=3 WtCom= 9.24D-01 WtEn= 7.60D-02
 Coeff-Com: -0.316D+00 0.525D+00 0.200D+00-0.113D-02 0.146D+00 0.446D+00
 Coeff-En:   0.000D+00 0.000D+00 0.000D+00 0.000D+00 0.153D+00 0.847D+00
 Coeff:     -0.292D+00 0.486D+00 0.185D+00-0.105D-02 0.146D+00 0.477D+00
 Gap=     0.123 Goal=   None    Shift=    0.000
 Gap=     0.123 Goal=   None    Shift=    0.000
 RMSDP=2.72D-03 MaxDP=4.19D-01 DE=-6.69D-01 OVMax= 1.21D-01

 Cycle   7  Pass 1  IDiag  1:
 RMSU=  1.52D-03    CP:  6.33D-01  1.80D+00  6.60D-01  4.04D-01  7.31D-01
                    CP:  4.79D-01
 E= -3531.52696351404     Delta-E=       -0.054097851807 Rises=F Damp=F
 DIIS: error= 4.29D-03 at cycle   7 NSaved=   7.
 NSaved= 7 IEnMin= 7 EnMin= -3531.52696351404     IErMin= 7 ErrMin= 4.29D-03
 ErrMax= 4.29D-03  0.00D+00 EMaxC= 1.00D-01 BMatC= 1.65D-01 BMatP= 4.68D-01
 IDIUse=3 WtCom= 9.57D-01 WtEn= 4.29D-02
 Coeff-Com: -0.116D+00 0.162D+00 0.302D-01 0.722D-02-0.552D-01 0.332D+00
 Coeff-Com:  0.640D+00
 Coeff-En:   0.000D+00 0.000D+00 0.000D+00 0.000D+00 0.000D+00 0.328D+00
 Coeff-En:   0.672D+00
 Coeff:     -0.111D+00 0.155D+00 0.289D-01 0.691D-02-0.528D-01 0.332D+00
 Coeff:      0.641D+00
 Gap=     0.127 Goal=   None    Shift=    0.000
 Gap=     0.138 Goal=   None    Shift=    0.000
 RMSDP=1.43D-03 MaxDP=1.96D-01 DE=-5.41D-02 OVMax= 8.94D-02

 Cycle   8  Pass 1  IDiag  1:
 RMSU=  9.98D-04    CP:  6.36D-01  1.67D+00  6.83D-01  3.94D-01  6.75D-01
                    CP:  7.37D-01  7.42D-01
 E= -3531.56163801168     Delta-E=       -0.034674497635 Rises=F Damp=F
 DIIS: error= 1.87D-03 at cycle   8 NSaved=   8.
 NSaved= 8 IEnMin= 8 EnMin= -3531.56163801168     IErMin= 8 ErrMin= 1.87D-03
 ErrMax= 1.87D-03  0.00D+00 EMaxC= 1.00D-01 BMatC= 2.52D-02 BMatP= 1.65D-01
 IDIUse=3 WtCom= 9.81D-01 WtEn= 1.87D-02
 Coeff-Com: -0.511D-01 0.687D-01 0.364D-03 0.574D-02-0.347D-01 0.122D+00
 Coeff-Com:  0.373D+00 0.516D+00
 Coeff-En:   0.000D+00 0.000D+00 0.000D+00 0.000D+00 0.000D+00 0.000D+00
 Coeff-En:   0.102D+00 0.898D+00
 Coeff:     -0.501D-01 0.674D-01 0.357D-03 0.563D-02-0.340D-01 0.120D+00
 Coeff:      0.367D+00 0.523D+00
 Gap=     0.116 Goal=   None    Shift=    0.000
 Gap=     0.121 Goal=   None    Shift=    0.000
 RMSDP=5.66D-04 MaxDP=1.20D-01 DE=-3.47D-02 OVMax= 2.25D-02

 Cycle   9  Pass 1  IDiag  1:
 RMSU=  3.62D-04    CP:  6.35D-01  1.67D+00  6.80D-01  4.01D-01  6.56D-01
                    CP:  7.77D-01  9.39D-01  7.30D-01
 E= -3531.56499419780     Delta-E=       -0.003356186121 Rises=F Damp=F
 DIIS: error= 1.40D-03 at cycle   9 NSaved=   9.
 NSaved= 9 IEnMin= 9 EnMin= -3531.56499419780     IErMin= 9 ErrMin= 1.40D-03
 ErrMax= 1.40D-03  0.00D+00 EMaxC= 1.00D-01 BMatC= 1.14D-02 BMatP= 2.52D-02
 IDIUse=3 WtCom= 9.86D-01 WtEn= 1.40D-02
 Coeff-Com: -0.659D-02 0.722D-02-0.112D-01 0.108D-02 0.274D-01-0.958D-01
 Coeff-Com: -0.904D-01 0.197D+00 0.971D+00
 Coeff-En:   0.000D+00 0.000D+00 0.000D+00 0.000D+00 0.000D+00 0.000D+00
 Coeff-En:   0.000D+00 0.000D+00 0.100D+01
 Coeff:     -0.650D-02 0.712D-02-0.110D-01 0.106D-02 0.271D-01-0.945D-01
 Coeff:     -0.891D-01 0.194D+00 0.972D+00
 Gap=     0.123 Goal=   None    Shift=    0.000
 Gap=     0.120 Goal=   None    Shift=    0.000
 RMSDP=3.32D-04 MaxDP=5.24D-02 DE=-3.36D-03 OVMax= 1.30D-02

 Cycle  10  Pass 1  IDiag  1:
 RMSU=  2.25D-04    CP:  6.37D-01  1.69D+00  6.70D-01  4.06D-01  6.67D-01
                    CP:  7.79D-01  9.60D-01  8.56D-01  1.27D+00
 E= -3531.56695128428     Delta-E=       -0.001957086480 Rises=F Damp=F
 DIIS: error= 2.25D-04 at cycle  10 NSaved=  10.
 NSaved=10 IEnMin=10 EnMin= -3531.56695128428     IErMin=10 ErrMin= 2.25D-04
 ErrMax= 2.25D-04  0.00D+00 EMaxC= 1.00D-01 BMatC= 6.40D-04 BMatP= 1.14D-02
 IDIUse=3 WtCom= 9.98D-01 WtEn= 2.25D-03
 Coeff-Com:  0.462D-02-0.678D-02-0.631D-02 0.991D-04 0.154D-01-0.527D-01
 Coeff-Com: -0.552D-01 0.453D-01 0.485D+00 0.571D+00
 Coeff-En:   0.000D+00 0.000D+00 0.000D+00 0.000D+00 0.000D+00 0.000D+00
 Coeff-En:   0.000D+00 0.000D+00 0.000D+00 0.100D+01
 Coeff:      0.461D-02-0.676D-02-0.630D-02 0.989D-04 0.154D-01-0.526D-01
 Coeff:     -0.551D-01 0.452D-01 0.484D+00 0.572D+00
 Gap=     0.123 Goal=   None    Shift=    0.000
 Gap=     0.119 Goal=   None    Shift=    0.000
 RMSDP=9.22D-05 MaxDP=2.02D-02 DE=-1.96D-03 OVMax= 3.85D-03

 Cycle  11  Pass 1  IDiag  1:
 RMSU=  7.53D-05    CP:  6.36D-01  1.69D+00  6.70D-01  4.06D-01  6.65D-01
                    CP:  7.80D-01  9.69D-01  8.62D-01  1.33D+00  9.25D-01
 E= -3531.56704755557     Delta-E=       -0.000096271298 Rises=F Damp=F
 DIIS: error= 1.68D-04 at cycle  11 NSaved=  11.
 NSaved=11 IEnMin=11 EnMin= -3531.56704755557     IErMin=11 ErrMin= 1.68D-04
 ErrMax= 1.68D-04  0.00D+00 EMaxC= 1.00D-01 BMatC= 2.28D-04 BMatP= 6.40D-04
 IDIUse=3 WtCom= 9.98D-01 WtEn= 1.68D-03
 Coeff-Com:  0.445D-02-0.555D-02-0.218D-02 0.192D-04 0.191D-02-0.957D-02
 Coeff-Com:  0.266D-02 0.342D-03 0.102D+00 0.370D+00 0.536D+00
 Coeff-En:   0.000D+00 0.000D+00 0.000D+00 0.000D+00 0.000D+00 0.000D+00
 Coeff-En:   0.000D+00 0.000D+00 0.000D+00 0.235D+00 0.765D+00
 Coeff:      0.444D-02-0.554D-02-0.218D-02 0.192D-04 0.191D-02-0.955D-02
 Coeff:      0.265D-02 0.342D-03 0.102D+00 0.370D+00 0.536D+00
 Gap=     0.123 Goal=   None    Shift=    0.000
 Gap=     0.120 Goal=   None    Shift=    0.000
 RMSDP=3.97D-05 MaxDP=5.22D-03 DE=-9.63D-05 OVMax= 1.72D-03

 Cycle  12  Pass 1  IDiag  1:
 RMSU=  3.16D-05    CP:  6.36D-01  1.69D+00  6.70D-01  4.06D-01  6.65D-01
                    CP:  7.80D-01  9.72D-01  8.48D-01  1.31D+00  9.18D-01
                    CP:  7.75D-01
 E= -3531.56708791384     Delta-E=       -0.000040358262 Rises=F Damp=F
 DIIS: error= 3.59D-05 at cycle  12 NSaved=  12.
 NSaved=12 IEnMin=12 EnMin= -3531.56708791384     IErMin=12 ErrMin= 3.59D-05
 ErrMax= 3.59D-05  0.00D+00 EMaxC= 1.00D-01 BMatC= 2.40D-05 BMatP= 2.28D-04
 IDIUse=1 WtCom= 1.00D+00 WtEn= 0.00D+00
 Coeff-Com:  0.169D-02-0.171D-02-0.544D-03 0.679D-05-0.861D-03 0.899D-03
 Coeff-Com:  0.113D-01-0.241D-02 0.464D-02 0.143D+00 0.315D+00 0.528D+00
 Coeff:      0.169D-02-0.171D-02-0.544D-03 0.679D-05-0.861D-03 0.899D-03
 Coeff:      0.113D-01-0.241D-02 0.464D-02 0.143D+00 0.315D+00 0.528D+00
 Gap=     0.123 Goal=   None    Shift=    0.000
 Gap=     0.120 Goal=   None    Shift=    0.000
 RMSDP=1.86D-05 MaxDP=1.56D-03 DE=-4.04D-05 OVMax= 4.55D-04

 Cycle  13  Pass 1  IDiag  1:
 RMSU=  1.36D-05    CP:  6.36D-01  1.69D+00  6.69D-01  4.06D-01  6.66D-01
                    CP:  7.77D-01  9.73D-01  8.43D-01  1.30D+00  9.26D-01
                    CP:  7.64D-01  9.30D-01
 E= -3531.56709346795     Delta-E=       -0.000005554118 Rises=F Damp=F
 DIIS: error= 9.66D-06 at cycle  13 NSaved=  13.
 NSaved=13 IEnMin=13 EnMin= -3531.56709346795     IErMin=13 ErrMin= 9.66D-06
 ErrMax= 9.66D-06  0.00D+00 EMaxC= 1.00D-01 BMatC= 1.79D-06 BMatP= 2.40D-05
 IDIUse=1 WtCom= 1.00D+00 WtEn= 0.00D+00
 Coeff-Com:  0.414D-03-0.428D-03-0.524D-04-0.767D-05-0.336D-03 0.111D-02
 Coeff-Com:  0.339D-02-0.166D-02-0.975D-02 0.362D-02 0.562D-01 0.208D+00
 Coeff-Com:  0.739D+00
 Coeff:      0.414D-03-0.428D-03-0.524D-04-0.767D-05-0.336D-03 0.111D-02
 Coeff:      0.339D-02-0.166D-02-0.975D-02 0.362D-02 0.562D-01 0.208D+00
 Coeff:      0.739D+00
 Gap=     0.123 Goal=   None    Shift=    0.000
 Gap=     0.120 Goal=   None    Shift=    0.000
 RMSDP=7.37D-06 MaxDP=1.01D-03 DE=-5.55D-06 OVMax= 3.39D-04

 Cycle  14  Pass 1  IDiag  1:
 RMSU=  5.16D-06    CP:  6.36D-01  1.69D+00  6.69D-01  4.06D-01  6.66D-01
                    CP:  7.77D-01  9.72D-01  8.46D-01  1.30D+00  9.35D-01
                    CP:  7.91D-01  9.74D-01  1.07D+00
 E= -3531.56709397293     Delta-E=       -0.000000504980 Rises=F Damp=F
 DIIS: error= 6.46D-06 at cycle  14 NSaved=  14.
 NSaved=14 IEnMin=14 EnMin= -3531.56709397293     IErMin=14 ErrMin= 6.46D-06
 ErrMax= 6.46D-06  0.00D+00 EMaxC= 1.00D-01 BMatC= 7.15D-07 BMatP= 1.79D-06
 IDIUse=1 WtCom= 1.00D+00 WtEn= 0.00D+00
 Coeff-Com: -0.253D-03 0.325D-03 0.125D-03-0.106D-04 0.621D-04 0.121D-04
 Coeff-Com: -0.167D-02-0.406D-03-0.382D-02-0.372D-01-0.505D-01-0.279D-01
 Coeff-Com:  0.436D+00 0.685D+00
 Coeff:     -0.253D-03 0.325D-03 0.125D-03-0.106D-04 0.621D-04 0.121D-04
 Coeff:     -0.167D-02-0.406D-03-0.382D-02-0.372D-01-0.505D-01-0.279D-01
 Coeff:      0.436D+00 0.685D+00
 Gap=     0.123 Goal=   None    Shift=    0.000
 Gap=     0.120 Goal=   None    Shift=    0.000
 RMSDP=4.20D-06 MaxDP=5.86D-04 DE=-5.05D-07 OVMax= 2.22D-04

 Cycle  15  Pass 1  IDiag  1:
 RMSU=  2.39D-06    CP:  6.36D-01  1.69D+00  6.69D-01  4.06D-01  6.66D-01
                    CP:  7.77D-01  9.73D-01  8.46D-01  1.31D+00  9.33D-01
                    CP:  7.94D-01  1.03D+00  1.20D+00  1.03D+00
 E= -3531.56709417136     Delta-E=       -0.000000198425 Rises=F Damp=F
 DIIS: error= 4.58D-06 at cycle  15 NSaved=  15.
 NSaved=15 IEnMin=15 EnMin= -3531.56709417136     IErMin=15 ErrMin= 4.58D-06
 ErrMax= 4.58D-06  0.00D+00 EMaxC= 1.00D-01 BMatC= 1.99D-07 BMatP= 7.15D-07
 IDIUse=1 WtCom= 1.00D+00 WtEn= 0.00D+00
 Coeff-Com: -0.935D-04 0.853D-04 0.510D-04-0.325D-05 0.923D-04-0.239D-03
 Coeff-Com: -0.156D-02 0.136D-03 0.119D-02-0.192D-01-0.334D-01-0.459D-01
 Coeff-Com:  0.114D+00 0.334D+00 0.651D+00
 Coeff:     -0.935D-04 0.853D-04 0.510D-04-0.325D-05 0.923D-04-0.239D-03
 Coeff:     -0.156D-02 0.136D-03 0.119D-02-0.192D-01-0.334D-01-0.459D-01
 Coeff:      0.114D+00 0.334D+00 0.651D+00
 Gap=     0.123 Goal=   None    Shift=    0.000
 Gap=     0.120 Goal=   None    Shift=    0.000
 RMSDP=1.55D-06 MaxDP=1.14D-04 DE=-1.98D-07 OVMax= 9.55D-05

 Cycle  16  Pass 1  IDiag  1:
 RMSU=  9.43D-07    CP:  6.36D-01  1.69D+00  6.69D-01  4.06D-01  6.66D-01
                    CP:  7.77D-01  9.73D-01  8.47D-01  1.31D+00  9.31D-01
                    CP:  7.96D-01  1.05D+00  1.25D+00  1.07D+00  1.05D+00
 E= -3531.56709421844     Delta-E=       -0.000000047082 Rises=F Damp=F
 DIIS: error= 1.73D-06 at cycle  16 NSaved=  16.
 NSaved=16 IEnMin=16 EnMin= -3531.56709421844     IErMin=16 ErrMin= 1.73D-06
 ErrMax= 1.73D-06  0.00D+00 EMaxC= 1.00D-01 BMatC= 2.18D-08 BMatP= 1.99D-07
 IDIUse=1 WtCom= 1.00D+00 WtEn= 0.00D+00
 Coeff-Com: -0.306D-04 0.425D-04 0.170D-04-0.594D-06 0.113D-04-0.107D-03
 Coeff-Com: -0.347D-03 0.204D-03 0.166D-02-0.156D-02-0.524D-02-0.177D-01
 Coeff-Com: -0.416D-01 0.813D-02 0.307D+00 0.750D+00
 Coeff:     -0.306D-04 0.425D-04 0.170D-04-0.594D-06 0.113D-04-0.107D-03
 Coeff:     -0.347D-03 0.204D-03 0.166D-02-0.156D-02-0.524D-02-0.177D-01
 Coeff:     -0.416D-01 0.813D-02 0.307D+00 0.750D+00
 Gap=     0.123 Goal=   None    Shift=    0.000
 Gap=     0.120 Goal=   None    Shift=    0.000
 RMSDP=7.43D-07 MaxDP=1.23D-04 DE=-4.71D-08 OVMax= 3.85D-05

 Cycle  17  Pass 1  IDiag  1:
 RMSU=  4.92D-07    CP:  6.36D-01  1.69D+00  6.69D-01  4.06D-01  6.66D-01
                    CP:  7.77D-01  9.73D-01  8.47D-01  1.31D+00  9.31D-01
                    CP:  7.99D-01  1.06D+00  1.27D+00  1.14D+00  1.12D+00
                    CP:  9.58D-01
 E= -3531.56709422397     Delta-E=       -0.000000005528 Rises=F Damp=F
 DIIS: error= 4.57D-07 at cycle  17 NSaved=  17.
 NSaved=17 IEnMin=17 EnMin= -3531.56709422397     IErMin=17 ErrMin= 4.57D-07
 ErrMax= 4.57D-07  0.00D+00 EMaxC= 1.00D-01 BMatC= 2.95D-09 BMatP= 2.18D-08
 IDIUse=1 WtCom= 1.00D+00 WtEn= 0.00D+00
 Coeff-Com:  0.647D-05-0.439D-05-0.107D-05-0.196D-06 0.280D-05-0.539D-04
 Coeff-Com: -0.405D-04 0.951D-04 0.904D-03 0.151D-02 0.114D-02-0.439D-02
 Coeff-Com: -0.378D-01-0.399D-01 0.787D-01 0.430D+00 0.570D+00
 Coeff:      0.647D-05-0.439D-05-0.107D-05-0.196D-06 0.280D-05-0.539D-04
 Coeff:     -0.405D-04 0.951D-04 0.904D-03 0.151D-02 0.114D-02-0.439D-02
 Coeff:     -0.378D-01-0.399D-01 0.787D-01 0.430D+00 0.570D+00
 Gap=     0.123 Goal=   None    Shift=    0.000
 Gap=     0.120 Goal=   None    Shift=    0.000
 RMSDP=2.70D-07 MaxDP=3.81D-05 DE=-5.53D-09 OVMax= 1.43D-05

 Cycle  18  Pass 1  IDiag  1:
[...]
 -0.00000671,-0.00000647,-0.00000401,-0.00002606,0.00004420,-0.00002151
 ,0.00000803,-0.00000766,-0.00000679,-0.00000573,-0.00000198,-0.0000009
 8,0.00000411,0.00000014,-0.00000856,0.00000181,-0.00000714,-0.00000686
 ,-0.00000418,-0.00000736,-0.00000270,-0.00000212,-0.00000899,0.0000069
 2,0.00000307,-0.00000409,-0.00000243,-0.01393796,0.02455136,-0.0199489
 7,0.00171019,0.00124451,0.00125470,-0.05504673,0.01108394,-0.03241193,
 -0.00081391,0.00299605,-0.00904300,0.00609272,-0.01127388,0.02219997,0
 .06261688,0.00005005,0.00003327,0.00002497,0.00003292,0.00002059,-0.00
 008189,-0.00005231,-0.00000035,-0.00001694,0.00002045,0.00001537,-0.00
 000762,-0.00005159,-0.00004887,-0.00001745,0.00002186,0.00000048,0.000
 06618,-0.00028698,0.00015844,-0.00029302,0.00019060,-0.00006393,-0.000
 85783,0.00021400,0.00001018,0.00009495,-0.00006328,-0.00005399,-0.0000
 7212,0.00011052,-0.00007038,0.00008500,-0.00013017,0.00002161,-0.00011
 104,0.00000715,-0.00003863,0.00003150,0.00018816,0.00009559,0.00007012
 ,-0.00018878,-0.00015274,-0.00007582,-0.00007249,0.00006700,0.00003182
 ,0.00003098,-0.00000207,-0.00001442,0.00003905,-0.00000779,0.00001331,
 0.00006799,0.00003011,-0.00001022,0.00000352,-0.00000018,-0.00001120,-
 0.00000192,0.00000328,0.00001926,-0.00000735,0.00000336,0.00000554,-0.
 00001353,0.00000288,-0.00000153,0.00001484,0.00001529,-0.00000818,0.00
 000060,-0.00009574,0.00003230,0.00409508,0.00428785,0.00512633,0.00000
 835,-0.00002268,-0.00003078,-0.00002401,-0.00000882,-0.00000087,0.0000
 0437,0.00000906,-0.00000023,0.00002960,-0.00004735,0.00002256,-0.00000
 987,0.00001649,0.00000630,0.00000677,0.00000336,0.00000117,-0.00000246
 ,0.00000037,0.00000758,-0.00000171,0.00000788,0.00000789,0.00000224,0.
 00000788,0.00000318,-0.00000015,0.00001090,-0.00000804,-0.00000286,0.0
 0000587,0.00000296,0.01356498,-0.02165505,0.01478368,-0.00280761,-0.00
 018901,-0.00107688,0.01345550,-0.09149711,0.09637402,-0.00420166,0.010
 90531,-0.02136415,0.00150037,-0.00517818,0.01441736,-0.02456482,0.1047
 0998,0.00001177,-0.00000066,-0.00001968,0.00001557,-0.00002880,0.00000
 251,0.00000974,0.00001219,0.00000342,-0.00001343,0.00002421,0.00001256
 ,-0.00001835,0.00000860,0.00001125,-0.00001691,0.00002147,0.00000654,-
 0.00002688,-0.00001923,0.00001654,0.00035465,0.00038606,-0.00051416,0.
 00001717,0.00001987,-0.00002104,-0.00000133,0.00000181,-0.00000631,-0.
 00002969,0.00004632,-0.00001655,0.00003607,-0.00000133,0.00002691,-0.0
 0000123,0.00000439,-0.00000498,-0.00003004,-0.00001585,0.00000286,0.00
 003840,-0.00001030,-0.00002848,-0.00009066,0.00003765,-0.00000169,-0.0
 0000804,-0.00000069,0.00000812,-0.00001235,0.00000510,-0.00000153,-0.0
 0000767,0.00000269,0.00001431,0.00001250,-0.00000763,0.00000860,0.0000
 0106,-0.00000667,0.00000851,0.00000354,-0.00000091,-0.00000274,0.00000
 183,0.00000120,-0.00000029,-0.00000127,-0.00000274,0.00000069,0.000114
 38,-0.00007977,0.00002841,-0.00014576,-0.00177533,-0.00010368,-0.00000
 690,-0.00000425,0.00000296,-0.00000856,0.00000081,-0.00000218,-0.00000
 311,-0.00000124,-0.00000129,-0.00000287,-0.00000053,0.00000419,0.00000
 259,-0.00000684,-0.00000041,-0.00000145,-0.00000142,-0.00000042,-0.000
 00139,-0.00000003,-0.00000431,-0.00000100,-0.00000143,-0.00000295,0.00
 000071,-0.00000211,-0.00000033,0.00000240,-0.00000539,0.00000266,0.000
 00009,-0.00000118,0.00000001,-0.00065076,-0.00277989,0.00987243,0.0004
 5172,-0.00051945,0.00045597,-0.03632320,0.10168748,-0.26348660,-0.0023
 3245,0.00868322,-0.01789917,-0.00208659,0.00305811,-0.00777752,0.04191
 603,-0.10513492,0.27939771,0.00001156,0.00000308,-0.00000091,-0.000003
 02,-0.00002204,-0.00001408,0.00000187,0.00002613,-0.00001464,-0.000012
 38,0.00003032,0.00001139,-0.00001947,-0.00000860,-0.00001088,-0.000000
 63,0.00000488,0.00001410,-0.00001345,-0.00001848,-0.00003521,-0.000067
 40,-0.00020682,-0.00006279,0.00004368,-0.00003107,0.00003187,-0.000008
 24,-0.00001734,-0.00001058,0.00001061,-0.00001091,0.00000040,-0.000008
 28,-0.00001668,-0.00000477,0.00000207,0.00000384,0.00000091,0.00002074
 ,0.00004830,0.00000941,0.00002963,-0.00009358,-0.00007248,-0.00028281,
 0.00015472,-0.00007623,0.00000154,0.00000222,0.00000157,-0.00002264,0.
 00001354,-0.00000100,-0.00001426,0.00000761,0.00002163,0.00001099,-0.0
 0001189,0.00001343,0.00000053,-0.00000646,0.00000496,0.00000303,0.0000
 0084,-0.00000125,0.00000081,0.00000044,0.00000150,0.00000113,-0.000001
 85,0.00000298,-0.00002428,0.00001632,-0.00000326,0.00098018,-0.0005039
 2,-0.00006396,-0.00000010,0.00000051,-0.00000171,-0.00000240,-0.000001
 36,0.00000095,0.00000075,0.00000021,-0.00000026,0.00000613,-0.00000642
 ,0.00000528,-0.00000059,0.00000027,0.00000061,-0.00000006,-0.00000009,
 0.00000015,0.00000014,-0.00000124,-0.00000119,-0.00000010,0.00000061,-
 0.00000021,0.00000042,0.00000060,0.00000019,0.00000007,-0.00000194,0.0
 0000125,-0.00000073,0.00000014,0.00000098,0.00092244,-0.00251334,-0.00
 208531,-0.00014343,0.00016785,0.00006669,0.00593282,-0.00698393,-0.001
 02283,-0.18477873,0.13196702,0.02539998,0.00028391,0.00044351,0.000539
 44,0.00034542,0.00034843,0.00031968,0.19740221,-0.00001408,-0.00000500
 ,0.00001603,0.00005222,0.00002740,0.00004665,-0.00004707,-0.00008202,0
 .00000589,0.00002641,-0.00004342,-0.00001538,0.00002052,0.00003031,0.0
 0002195,0.00001318,0.00000082,-0.00003091,-0.00011310,0.00005655,-0.00
 015772,-0.00018564,-0.00035101,-0.00014739,0.00013898,-0.00002308,0.00
 012441,-0.00002642,-0.00005483,-0.00003383,0.00009324,-0.00010117,0.00
 004594,-0.00010777,0.00000875,-0.00008629,0.00000736,-0.00002474,0.000
 02303,0.00013610,0.00007947,0.00005141,-0.00012134,-0.00006696,-0.0000
 1888,0.00002961,0.00003303,-0.00001138,0.00002654,-0.00000181,-0.00001
 407,0.00003000,-0.00000711,0.00000816,0.00002169,0.00003107,-0.0000033
 2,-0.00002435,0.00001320,-0.00002039,-0.00000458,0.00001420,-0.0000039
 9,-0.00000842,0.00000015,0.00000632,-0.00000842,-0.00000528,0.00000015
 ,0.00000699,0.00000834,-0.00000510,-0.00003343,-0.00001482,0.00001059,
 0.00204369,0.00143610,0.00121449,0.00000348,-0.00000682,-0.00001720,-0
 .00001077,0.00000309,0.00000190,0.00000696,0.00000376,0.00000272,0.000
 02073,-0.00002988,0.00001404,-0.00000826,0.00001284,0.00000340,0.00000
 483,0.00000259,0.00000096,-0.00000083,0.00000047,0.00000658,0.00000040
 ,0.00000642,0.00000734,-0.00000003,0.00000632,0.00000232,-0.00000135,0
 .00001129,-0.00000525,-0.00000157,0.00000436,0.00000265,-0.00145805,-0
 .00517273,-0.00511473,-0.00090948,-0.00026283,-0.00052577,0.01662506,-
 0.01256645,0.00114432,0.12949275,-0.16924950,-0.02443272,-0.00034363,0
 .00037600,0.00062281,-0.00004783,0.00067528,-0.00017298,-0.14337537,0.
 18313502,0.00003867,-0.00000051,0.00000811,0.00000759,-0.00004386,-0.0
 0006943,0.00000107,0.00006972,-0.00000451,-0.00000070,0.00006818,0.000
 00297,-0.00005271,-0.00001593,-0.00002641,0.00001450,0.00001325,0.0000
 3620,-0.00005366,0.00003502,-0.00014976,-0.00019601,-0.00035639,-0.000
 27940,0.00015678,-0.00003078,0.00009848,-0.00002365,-0.00005324,-0.000
 04230,0.00003380,-0.00003607,0.00002006,-0.00004530,-0.00000375,-0.000
 03524,0.00000103,-0.00000945,0.00001169,0.00006893,0.00006952,0.000048
 72,-0.00003880,-0.00010208,-0.00008245,-0.00024162,0.00008458,-0.00000
 402,0.00000930,-0.00000249,-0.00000185,-0.00000129,0.00000656,0.000003
 98,0.00003004,0.00000458,0.00001150,0.00003317,-0.00001005,0.00001689,
 0.00000087,-0.00000674,0.00001507,0.00000434,0.00000108,-0.00000067,-0
 .00000090,0.00000146,0.00000194,0.00001019,0.00001169,0.00000106,-0.00
 001593,-0.00001673,0.00001329,0.00187539,0.00031240,0.00127214,0.00000
 449,-0.00000867,-0.00001308,-0.00001058,0.00000205,0.00000066,0.000003
 45,0.00000412,0.00000283,0.00001868,-0.00002625,0.00001601,-0.00000161
 ,0.00000190,0.00000461,0.00000201,0.00000134,0.00000074,-0.00000246,-0
 .00000068,0.00000146,-0.00000085,0.00000421,0.00000226,0.00000168,0.00
 000321,0.00000118,0.00000356,-0.00000172,0.00000019,-0.00000222,0.0000
 0228,0.00000273,-0.00127230,-0.00605503,-0.00394038,-0.00068538,-0.000
 02573,-0.00041994,0.01749433,-0.01183770,-0.00197932,0.02340856,-0.023
 05739,-0.05057414,-0.00017951,0.00017461,0.00067108,0.00012533,0.00093
 040,0.00036774,-0.02665933,0.02869104,0.05161476,0.00001655,0.00001238
 ,0.00000586,0.00000059,0.00000837,-0.00000434,-0.00000240,-0.00001736,
 0.00001333,0.00000652,0.00001739,-0.00000968,-0.00000828,0.00001372,-0
 .00001925,0.00001169,0.00000779,0.00000809,-0.00004246,0.00002385,-0.0
 0006032,-0.00006854,-0.00007869,0.00001201,0.00003553,0.00000432,0.000
 04502,-0.00000936,-0.00000814,-0.00001469,0.00003121,-0.00002448,0.000
 02498,-0.00003590,-0.00001216,-0.00002833,0.00000103,-0.00000450,0.000
 00542,0.00007575,0.00006067,0.00001808,-0.00000217,-0.00015967,-0.0000
 7173,-0.00016411,0.00013976,-0.00002775,0.00000756,0.00000081,-0.00000
 352,-0.00000719,0.00001001,0.00000356,-0.00000451,-0.00000197,-0.00001
 932,-0.00000336,-0.00000190,-0.00000217,0.00000031,-0.00000172,0.00000
 660,-0.00000118,0.00000419,-0.00000164,-0.00000253,0.00000071,-0.00000
 007,0.00000294,0.00000679,-0.00000341,-0.00001519,-0.00001377,-0.00000
 107,0.00022318,0.00046060,0.00026663,0.00000184,-0.00000022,-0.0000057
 4,-0.00000197,0.00000203,-0.00000007,0.00000248,0.00000136,0.00000108,
 0.00000763,-0.00000931,0.00000578,-0.00000186,0.00000600,0.00000166,0.
 00000159,0.00000098,0.00000032,0.00000046,-0.00000066,0.00000135,-0.00
 000013,0.00000245,0.00000181,-0.00000009,0.00000209,0.00000034,-0.0000
 0141,0.00000142,-0.00000201,-0.00000037,0.00000180,0.00000107,0.001484
 20,-0.00006718,-0.00030589,-0.00000245,-0.00013348,-0.00010760,-0.0093
 9718,-0.00305761,0.00370490,-0.23023149,-0.10352972,0.06818385,0.00083
 534,-0.00099768,-0.00172085,0.00032632,0.00028977,-0.00015863,-0.01696
 914,-0.01095436,0.00634168,0.24823639,-0.00002784,-0.00001569,0.000016
 28,0.00001390,0.00002787,0.00003252,-0.00002709,-0.00001787,0.00000020
 ,0.00000461,-0.00004987,-0.00002137,0.00003925,0.00000545,0.00003795,0
 .00003390,-0.00001707,-0.00003675,-0.00004997,-0.00000200,-0.00000291,
 -0.00002194,0.00003583,0.00002451,0.00000126,0.00001425,0.00001680,-0.
 00000159,0.00000031,-0.00000502,0.00002284,-0.00001818,0.00000570,-0.0
 0001932,-0.00001117,-0.00001254,-0.00000054,-0.00000129,0.00000159,0.0
 0004948,0.00007331,-0.00000455,-0.00001722,-0.00009621,-0.00003845,-0.
 00030695,0.00022708,-0.00017290,0.00000524,0.00000314,-0.00000242,-0.0
 0001855,0.00001209,-0.00000113,-0.00004619,0.00003646,0.00002588,-0.00
 001528,0.00000899,-0.00000479,-0.00000255,0.00000907,-0.00001206,-0.00
 000423,0.00000190,0.00000231,-0.00000387,-0.00000044,-0.00000184,0.000
 00022,0.00000294,-0.00000211,0.00000279,-0.00000221,-0.00000074,-0.000
 38855,0.00010179,-0.00021557,0.00000097,0.00000040,-0.00000090,0.00000
 349,0.00000557,0.00000152,0.00000156,-0.00000087,0.00000003,0.00000215
 ,-0.00000227,0.00000130,-0.00000276,0.00000769,0.00000144,0.00000098,0
 .00000008,0.00000025,0.00000054,-0.00000103,0.00000025,0.00000005,0.00
 000117,0.00000120,-0.00000021,0.00000044,0.,-0.00000178,0.00000352,-0.
 00000175,0.00000130,0.00000010,0.00000068,-0.00021487,0.00216382,0.001
 18241,0.00047347,-0.00023153,-0.00002333,-0.01931111,-0.01235480,0.006
 95496,-0.10119284,-0.10251533,0.03915586,-0.00086630,-0.00195575,-0.00
 359446,0.00086080,0.00081846,0.00005330,0.01838528,0.01142914,-0.00706
 441,0.11459184,0.10895570,0.00004255,0.00001584,0.00001607,-0.00004086
 ,-0.00004528,-0.00005492,0.00004052,0.00005014,-0.00002075,-0.00001119
 ,0.00010293,0.00001101,-0.00007136,-0.00002230,-0.00005095,0.00000295,
 0.00001477,0.00003943,0.00002628,0.00000315,-0.00002887,0.00002481,0.0
 0001570,0.00001454,-0.00000698,0.00000489,0.00001419,0.00000047,0.0000
 0353,-0.00000031,-0.00000567,0.00000030,0.00000083,-0.00000094,0.00000
 952,-0.00000235,0.00000178,-0.00000129,0.00000265,-0.00001566,-0.00003
 623,0.00001640,-0.00000881,0.00008161,0.00005501,0.00034019,-0.0002691
 4,0.00003003,-0.00000099,-0.00000214,0.00000067,0.00002015,-0.00001269
 ,-0.00000017,0.00001666,-0.00000117,-0.00001584,0.00002002,-0.00000859
 ,0.00000798,0.00000584,-0.00001250,0.00002795,0.00000411,0.00000114,-0
 .00000158,0.00000168,0.00000301,0.00000355,0.00000332,0.00000964,0.000
 00132,-0.00000170,-0.00000056,0.00000613,-0.00046755,0.00019593,-0.000
 15147,-0.00000137,-0.00000018,0.00000047,0.00000129,0.00000329,0.00000
 120,0.00000034,0.00000086,0.00000155,0.00000024,-0.00000136,0.00000109
 ,0.00000108,-0.00000481,-0.00000078,-0.00000004,0.00000027,-0.00000005
 ,-0.00000112,0.00000084,0.00000157,-0.00000057,-0.00000018,0.00000030,
 -0.00000038,0.00000052,0.00000057,0.00000268,-0.00000306,0.00000140,-0
 .00000079,0.00000052,-0.00000056,0.00009069,0.00197179,0.00106314,0.00
 035375,-0.00032258,-0.00021554,-0.02231019,-0.01228217,0.00732761,0.07
 067973,0.04022831,-0.07353452,-0.00075327,-0.00372017,-0.00255182,0.00
 014198,0.00073008,0.00124701,0.00261631,0.00180341,-0.00224046,-0.0740
 2280,-0.03962255,0.07643131,0.00001995,0.00002039,0.00001046,-0.000009
 75,-0.00002151,-0.00001470,0.00000121,0.00000685,-0.00004819,0.0000091
 7,0.00015291,-0.00000441,-0.00007504,0.00001201,-0.00005538,-0.0000242
 9,0.00001676,0.00002861,0.00001152,0.00001780,-0.00004332,-0.00001944,
 -0.00004321,-0.00004950,0.00002803,-0.00000004,0.00002409,-0.00000936,
 -0.00000890,-0.00000889,0.00000326,-0.00000338,0.00000731,-0.00000859,
 0.00000844,-0.00000837,0.00000281,0.00000040,0.00000442,0.00001445,-0.
 00002997,0.00001881,-0.00000441,0.00002311,0.00002538,0.00015394,-0.00
 008597,0.00000813,0.00000141,-0.00000102,-0.00000052,0.00001671,-0.000
 00825,0.00000022,0.00001591,0.00000899,-0.00001912,-0.00000510,0.00003
 672,-0.00000502,-0.00000128,-0.00001709,0.00003401,0.00000533,-0.00000
 735,-0.00000809,0.00000175,0.00000076,0.00000282,0.00000093,0.00000598
 ,0.00000185,0.00000341,-0.00001298,0.00000469,0.00011104,0.00031956,0.
 00025969,0.00000089,-0.00000244,-0.00000310,-0.00000407,0.00000010,-0.
 00000082,0.00000150,0.00000187,0.00000172,0.00000443,-0.00000588,0.000
 00329,0.00000039,-0.00000428,0.00000027,0.00000048,-0.00000046,0.00000
 085,-0.00000146,-0.00000004,0.00000109,-0.00000028,0.00000045,0.000000
 34,0.00000010,0.00000024,0.00000133,-0.00000012,-0.00000391,-0.0000001
 8,-0.00000170,0.00000098,-0.00000045,0.00060245,-0.00056522,0.00076853
 ,-0.00012462,-0.00018595,-0.00008561,-0.00352129,0.00629037,-0.0095140
 0,-0.05552033,0.02026603,-0.04078131,0.00014424,0.00060322,0.00009399,
 0.00062474,-0.00181461,-0.00132938,-0.00364052,0.00900540,-0.02020462,
 0.00566417,-0.01195439,0.02328281,0.05552741,0.00004722,0.00002501,-0.
 00000051,-0.00002339,-0.00008125,-0.00007139,0.00007638,-0.00012976,0.
 00005478,-0.00008008,0.00001942,0.00009751,-0.00007353,-0.00000773,-0.
 00003606,-0.00000552,0.00003764,0.00007107,0.00010700,-0.00004150,-0.0
 0001589,-0.00001081,0.00008083,0.00003403,-0.00001926,-0.00000679,-0.0
 0000479,0.00000753,0.00001369,0.00000145,-0.00005428,0.00004878,-0.000
 01480,0.00004819,-0.00000343,0.00004167,-0.00000311,0.00001207,-0.0000
 0751,-0.00010449,-0.00003703,0.00001315,0.00004567,0.00012315,0.000074
 22,0.00039522,-0.00024353,-0.00004500,-0.00001567,-0.00000264,0.000013
 45,-0.00000029,-0.00000886,-0.00000689,-0.00000779,-0.00000054,-0.0000
 0462,0.00003227,-0.00005483,0.00002209,0.00000219,-0.00002345,0.000012
 77,0.00002763,-0.00000730,-0.00001991,0.00001199,0.00000806,0.00000472
 ,0.00000435,0.00000703,0.00000870,0.00000464,0.00000379,0.00001076,-0.
 00056889,-0.00013088,-0.00025378,-0.00000075,0.00000489,0.00000661,0.0
 0000283,0.00000245,-0.00000317,-0.00000156,-0.00000189,0.00000199,-0.0
 0000423,0.00000628,0.00000171,0.00000558,-0.00001666,0.00000152,-0.000
 00285,-0.00000123,-0.00000066,-0.00000208,0.00000119,-0.00000411,-0.00
 000132,-0.00000245,-0.00000422,0.00000189,-0.00000074,-0.00000199,0.00
 000776,-0.00001187,0.00001035,-0.00000230,-0.00000078,0.00000014,-0.00
 059149,0.00231169,0.00135157,0.00028842,-0.00024341,0.00014374,-0.0045
 1230,0.01012883,-0.02334037,0.02189963,-0.10330731,0.11046761,0.000478
 69,0.00104626,0.00071894,-0.00099672,-0.00280326,-0.00347295,0.0022066
 1,-0.00933651,0.01827245,0.00340349,-0.00665299,0.01111698,-0.02202246
 ,0.10927758,0.00006285,0.00000921,-0.00000630,-0.00008186,-0.00007423,
 -0.00018409,0.00000524,0.00032452,-0.00005560,-0.00001207,0.00028319,-
 0.00002306,-0.00010822,-0.00006560,-0.00007545,0.00000909,0.00003601,0
 .00007855,0.00004266,-0.00002689,-0.00008865,-0.00002563,0.00000210,-0
 .00003636,0.00001375,0.00000389,0.00002556,-0.00000454,-0.00000300,-0.
 00001626,-0.00002055,0.00002949,-0.00000514,0.00002327,-0.00001900,0.0
 0002029,-0.00000295,0.00001506,-0.00000129,-0.00000471,0.00003444,0.00
 002539,0.00003396,-0.00010640,-0.00014723,-0.00060757,0.00017448,-0.00
 008515,-0.00000905,0.00000226,0.00001139,-0.00003608,0.00002066,-0.000
 00019,-0.00000547,-0.00001406,0.00003721,0.00006994,-0.00001451,0.0000
 3938,0.00000604,-0.00002049,0.00001556,0.00001100,0.00000090,-0.000002
 13,0.00000644,0.00000477,0.00000232,0.00000580,0.00001233,0.00000480,0
 .00000790,-0.00001050,0.00000504,-0.00027278,-0.00003432,0.00002507,0.
 00000054,0.00000054,0.00000123,0.00000014,0.00000386,-0.00000216,-0.00
 000039,-0.00000102,0.00000178,0.00000289,-0.00000095,0.00000485,0.0000
 0401,-0.00000660,0.00000355,-0.00000146,-0.00000132,-0.00000005,-0.000
 00204,-0.00000196,-0.00000413,-0.00000208,-0.00000077,-0.00000345,0.00
 000217,-0.00000080,-0.00000106,0.00000679,-0.00001366,0.00000684,-0.00
 000277,-0.00000084,0.00000082,0.00006389,0.00115762,0.00172568,0.00031
 937,-0.00017444,0.00006750,-0.00451445,0.01071562,-0.02146641,-0.04033
 792,0.10660194,-0.24891247,0.00019096,-0.00016727,0.00118935,-0.001451
 14,-0.00369330,-0.00160561,0.00107726,-0.00306121,0.00561500,-0.002062
 54,0.00332561,-0.00745403,0.04760028,-0.11524537,0.27126909\\0.0000031
 9,-0.00000108,0.00001424,0.00000440,0.00000094,0.00000528,0.00001032,0
 .00000431,0.00000224,0.00001493,0.00000537,0.00000796,0.00001378,0.000
 00317,0.00001691,0.00000783,-0.00000010,0.00002000,-0.00000122,-0.0000
 0040,-0.00000093,-0.00001044,-0.00000484,-0.00000048,-0.00001420,-0.00
 000715,0.00000362,-0.00000957,-0.00000449,0.00000039,-0.00000073,-0.00
 000028,0.00000177,0.00000532,0.00000274,-0.00000374,0.00001391,0.00000
 624,-0.00000102,0.00000084,0.00000160,-0.00000954,0.00000569,-0.000002
 01,-0.00001941,0.00000172,0.00000766,-0.00002178,0.00000300,0.00000374
 ,-0.00001111,0.00000452,0.00001109,-0.00002908,-0.00001590,0.00000014,
 -0.00002483,0.00001100,0.00000591,-0.00000464,0.00001954,0.00000789,0.
 00000550,0.00001746,0.00000404,0.00002138,0.00000690,-0.00000179,0.000
 02695,-0.00000149,-0.00000391,0.00001672,-0.00001260,-0.00000448,-0.00
 000735,-0.00001203,-0.00000621,0.00000328,-0.00002077,-0.00000978,0.00
 000174,-0.00001371,-0.00000823,0.00001097,-0.00001142,-0.00000402,-0.0
 0000625,-0.00001045,-0.00000556,0.00000434,0.00000153,-0.00000070,0.00
 000866,0.00000807,0.00000660,-0.00001494,-0.00000211,0.00000203,-0.000
 01526,0.00000065,0.00000194,-0.00000865,0.00001600,0.00000684,0.000002
 07,0.00001485,0.00000599,0.00000357,0.00001751,0.00000915,-0.00000693,
 -0.00000849,-0.00000394,-0.00000091,-0.00001542,-0.00000893,0.00000999
 ,-0.00000897,-0.00000453,0.00000265,-0.00000394,-0.00000135,-0.0000027
 6,-0.00000644,-0.00000474,0.00000937,-0.00001522,-0.00000741,0.0000025
 8,-0.00000384,-0.00000173,-0.00000016,-0.00000632,-0.00000114,-0.00000
 967,0.00000232,0.00000143,-0.00000274\\\@


 Some scientists claim that hydrogen, because it is so
 plentiful, is the basic building block of the universe. 
 I dispute that. I say that stupidity is far more
 abundant than hydrogen, and THAT is the basic building 
 block of the universe.
                   --Frank Zappa
 Job cpu time:       5 days 18 hours 52 minutes  8.5 seconds.
 Elapsed time:       0 days  8 hours 41 minutes 24.8 seconds.
 File lengths (MBytes):  RWF=   7388 Int=      0 D2E=      0 Chk=     71 Scr=      1
 Normal termination of Gaussian 16 at Wed Jul 14 01:44:20 2021.
