 Entering Gaussian System, Link 0=g16
 Input=prenyl-first_betaine-gs3-b3lyp_d3bj-juldz-water.gjf
 Output=prenyl-first_betaine-gs3-b3lyp_d3bj-juldz-water.out
 Initial command:
 /SFS/product/gaussian/g16.a03/x86_64/avx/g16/l1.exe "/scratch/kwaneu.3005245.bmbhpcps002/Gau-26349.inp" -scrdir="/scratch/kwaneu.3005245.bmbhpcps002/"
 Entering Link 1 = /SFS/product/gaussian/g16.a03/x86_64/avx/g16/l1.exe PID=     26350.
  
 Copyright (c) 1988,1990,1992,1993,1995,1998,2003,2009,2016,
            Gaussian, Inc.  All Rights Reserved.
  
 This is part of the Gaussian(R) 16 program.  It is based on
 the Gaussian(R) 09 system (copyright 2009, Gaussian, Inc.),
 the Gaussian(R) 03 system (copyright 2003, Gaussian, Inc.),
 the Gaussian(R) 98 system (copyright 1998, Gaussian, Inc.),
 the Gaussian(R) 94 system (copyright 1995, Gaussian, Inc.),
 the Gaussian 92(TM) system (copyright 1992, Gaussian, Inc.),
 the Gaussian 90(TM) system (copyright 1990, Gaussian, Inc.),
 the Gaussian 88(TM) system (copyright 1988, Gaussian, Inc.),
 the Gaussian 86(TM) system (copyright 1986, Carnegie Mellon
 University), and the Gaussian 82(TM) system (copyright 1983,
 Carnegie Mellon University). Gaussian is a federally registered
 trademark of Gaussian, Inc.
  
 This software contains proprietary and confidential information,
 including trade secrets, belonging to Gaussian, Inc.
  
 This software is provided under written license and may be
 used, copied, transmitted, or stored only in accord with that
 written license.
  
 The following legend is applicable only to US Government
 contracts under FAR:
  
                    RESTRICTED RIGHTS LEGEND
  
 Use, reproduction and disclosure by the US Government is
 subject to restrictions as set forth in subparagraphs (a)
 and (c) of the Commercial Computer Software - Restricted
 Rights clause in FAR 52.227-19.
  
 Gaussian, Inc.
 340 Quinnipiac St., Bldg. 40, Wallingford CT 06492
  
  
 ---------------------------------------------------------------
 Warning -- This program may not be used in any manner that
 competes with the business of Gaussian, Inc. or will provide
 assistance to any competitor of Gaussian, Inc.  The licensee
 of this program is prohibited from giving any competitor of
 Gaussian, Inc. access to this program.  By using this program,
 the user acknowledges that Gaussian, Inc. is engaged in the
 business of creating and licensing software in the field of
 computational chemistry and represents and warrants to the
 licensee that it is not a competitor of Gaussian, Inc. and that
 it will not use this program in any manner prohibited above.
 ---------------------------------------------------------------
  

 Cite this work as:
 Gaussian 16, Revision A.03,
 M. J. Frisch, G. W. Trucks, H. B. Schlegel, G. E. Scuseria, 
 M. A. Robb, J. R. Cheeseman, G. Scalmani, V. Barone, 
 G. A. Petersson, H. Nakatsuji, X. Li, M. Caricato, A. V. Marenich, 
 J. Bloino, B. G. Janesko, R. Gomperts, B. Mennucci, H. P. Hratchian, 
 J. V. Ortiz, A. F. Izmaylov, J. L. Sonnenberg, D. Williams-Young, 
 F. Ding, F. Lipparini, F. Egidi, J. Goings, B. Peng, A. Petrone, 
 T. Henderson, D. Ranasinghe, V. G. Zakrzewski, J. Gao, N. Rega, 
 G. Zheng, W. Liang, M. Hada, M. Ehara, K. Toyota, R. Fukuda, 
 J. Hasegawa, M. Ishida, T. Nakajima, Y. Honda, O. Kitao, H. Nakai, 
 T. Vreven, K. Throssell, J. A. Montgomery, Jr., J. E. Peralta, 
 F. Ogliaro, M. J. Bearpark, J. J. Heyd, E. N. Brothers, K. N. Kudin, 
 V. N. Staroverov, T. A. Keith, R. Kobayashi, J. Normand, 
 K. Raghavachari, A. P. Rendell, J. C. Burant, S. S. Iyengar, 
 J. Tomasi, M. Cossi, J. M. Millam, M. Klene, C. Adamo, R. Cammi, 
 J. W. Ochterski, R. L. Martin, K. Morokuma, O. Farkas, 
 J. B. Foresman, and D. J. Fox, Gaussian, Inc., Wallingford CT, 2016.
 
 ******************************************
 Gaussian 16:  ES64L-G16RevA.03 25-Dec-2016
                29-Jun-2021 
 ******************************************
 %nprocshared=16
 Will use up to   16 processors via shared memory.
 %mem=16GB
 ----------------------------------------------------------------------
 #p opt=(maxstep=5) freq=noraman b3lyp jul-cc-pvdz pop=none empiricaldi
 spersion=gd3bj scrf=(pcm,solvent=water)
 ----------------------------------------------------------------------
 1/8=5,18=20,19=15,26=3,38=1/1,3;
 2/9=110,12=2,17=6,18=5,40=1/2;
 3/5=16,7=50,11=2,25=1,30=1,70=2201,71=1,72=1,74=-5,124=41/1,2,3;
 4//1;
 5/5=2,38=5,53=1/2;
 7//1,2,3,16;
 1/8=5,18=20,19=15,26=3/3(2);
 2/9=110/2;
 99//99;
 2/9=110/2;
 3/5=16,7=50,11=2,25=1,30=1,70=2205,71=1,72=1,74=-5,124=41/1,2,3;
 4/5=5,16=3,69=1/1;
 5/5=2,38=5,53=1/2;
 7//1,2,3,16;
 1/8=5,18=20,19=15,26=3/3(-5);
 2/9=110/2;
 99/9=1/99;
 Leave Link    1 at Tue Jun 29 18:21:37 2021, MaxMem=  2147483648 cpu:               1.1 elap:               0.1
 (Enter /SFS/product/gaussian/g16.a03/x86_64/avx/g16/l101.exe)
 -----
 title
 -----
 Symbolic Z-matrix:
 Charge =  0 Multiplicity = 6
 C                     1.84631   1.83153   1.74411 
 C                     1.24771   0.75197   1.07377 
 C                     1.40206  -0.53228   1.62022 
 C                     2.11597  -0.72976   2.80464 
 C                     2.69814   0.35419   3.46867 
 C                     2.56203   1.63597   2.93018 
 C                     0.50259   0.90634  -0.26866 
 C                     1.52858   0.87493  -1.47513 
 C                     2.08629   2.29427  -1.5592 
 C                     0.90363   3.23556  -1.24778 
 C                    -0.11486   2.37375  -0.37093 
 C                    -1.39501   2.53955  -1.06579 
 C                    -1.73297   1.87709  -2.32144 
 O                    -0.46736  -0.07488  -0.43515 
 Fe                   -1.88999  -0.96355   0.32252 
 Cl                   -3.5402   -1.04153  -1.24463 
 C                    -2.39497   3.41946  -0.44481 
 Cl                   -1.34094  -3.08254   0.87649 
 Cl                   -2.67308   0.21843   2.09076 
 H                     0.95603  -1.38874   1.11934 
 H                     2.21313  -1.73799   3.20998 
 H                     3.25189   0.20166   4.39616 
 H                     3.01085   2.49393   3.43271 
 H                     1.77085   2.84843   1.36203 
 H                     0.93701   0.63117  -2.36614 
 C                     2.60255  -0.19381  -1.35905 
 H                     2.51624   2.50721  -2.54509 
 H                     2.88281   2.42271  -0.81734 
 H                     0.43875   3.59006  -2.17677 
 H                     1.19048   4.12812  -0.68168 
 H                    -0.20403   2.80143   0.62996 
 H                    -1.92622   4.29486   0.02678 
 H                    -2.79837   2.82442   0.40211 
 H                    -3.21498   3.70375  -1.10985 
 H                    -2.31094   2.53807  -2.98039 
 H                    -2.43987   1.06573  -2.02458 
 H                    -0.89786   1.40537  -2.83978 
 O                     2.1259   -1.40225  -1.69263 
 O                     3.75394   0.01241  -1.02199 
 C                     3.05078  -2.52516  -1.59728 
 C                     2.29519  -3.77544  -1.99696 
 H                     3.42165  -2.57681  -0.56536 
 H                     3.90228  -2.32481  -2.26098 
 H                     2.96979  -4.64071  -1.93096 
 H                     1.92758  -3.70156  -3.02982 
 H                     1.4405   -3.94942  -1.32936 
 
 ITRead=  0  0  0  0  0  0  0  0  0  0  0  0  0  0  0  0  0  0  0  0
 ITRead=  0  0  0  0  0  0  0  0  0  0  0  0  0  0  0  0  0  0  0  0
 ITRead=  0  0  0  0  0  0
 MicOpt= -1 -1 -1 -1 -1 -1 -1 -1 -1 -1 -1 -1 -1 -1 -1 -1 -1 -1 -1 -1
 MicOpt= -1 -1 -1 -1 -1 -1 -1 -1 -1 -1 -1 -1 -1 -1 -1 -1 -1 -1 -1 -1
 MicOpt= -1 -1 -1 -1 -1 -1
 NAtoms=     46 NQM=       46 NQMF=       0 NMMI=      0 NMMIF=      0
                NMic=       0 NMicF=      0.
                    Isotopes and Nuclear Properties:
 (Nuclear quadrupole moments (NQMom) in fm**2, nuclear magnetic moments (NMagM)
  in nuclear magnetons)

  Atom         1           2           3           4           5           6           7           8           9          10
 IAtWgt=          12          12          12          12          12          12          12          12          12          12
 AtmWgt=  12.0000000  12.0000000  12.0000000  12.0000000  12.0000000  12.0000000  12.0000000  12.0000000  12.0000000  12.0000000
 NucSpn=           0           0           0           0           0           0           0           0           0           0
 AtZEff=  -0.0000000  -0.0000000  -0.0000000  -0.0000000  -0.0000000  -0.0000000  -0.0000000  -0.0000000  -0.0000000  -0.0000000
 NQMom=    0.0000000   0.0000000   0.0000000   0.0000000   0.0000000   0.0000000   0.0000000   0.0000000   0.0000000   0.0000000
 NMagM=    0.0000000   0.0000000   0.0000000   0.0000000   0.0000000   0.0000000   0.0000000   0.0000000   0.0000000   0.0000000
 AtZNuc=   6.0000000   6.0000000   6.0000000   6.0000000   6.0000000   6.0000000   6.0000000   6.0000000   6.0000000   6.0000000

  Atom        11          12          13          14          15          16          17          18          19          20
 IAtWgt=          12          12          12          16          56          35          12          35          35           1
 AtmWgt=  12.0000000  12.0000000  12.0000000  15.9949146  55.9349393  34.9688527  12.0000000  34.9688527  34.9688527   1.0078250
 NucSpn=           0           0           0           0           0           3           0           3           3           1
 AtZEff=  -0.0000000  -0.0000000  -0.0000000  -0.0000000  -0.0000000  -0.0000000  -0.0000000  -0.0000000  -0.0000000  -0.0000000
 NQMom=    0.0000000   0.0000000   0.0000000   0.0000000   0.0000000  -8.1650000   0.0000000  -8.1650000  -8.1650000   0.0000000
 NMagM=    0.0000000   0.0000000   0.0000000   0.0000000   0.0000000   0.8218740   0.0000000   0.8218740   0.8218740   2.7928460
 AtZNuc=   6.0000000   6.0000000   6.0000000   8.0000000  26.0000000  17.0000000   6.0000000  17.0000000  17.0000000   1.0000000

  Atom        21          22          23          24          25          26          27          28          29          30
 IAtWgt=           1           1           1           1           1          12           1           1           1           1
 AtmWgt=   1.0078250   1.0078250   1.0078250   1.0078250   1.0078250  12.0000000   1.0078250   1.0078250   1.0078250   1.0078250
 NucSpn=           1           1           1           1           1           0           1           1           1           1
 AtZEff=  -0.0000000  -0.0000000  -0.0000000  -0.0000000  -0.0000000  -0.0000000  -0.0000000  -0.0000000  -0.0000000  -0.0000000
 NQMom=    0.0000000   0.0000000   0.0000000   0.0000000   0.0000000   0.0000000   0.0000000   0.0000000   0.0000000   0.0000000
 NMagM=    2.7928460   2.7928460   2.7928460   2.7928460   2.7928460   0.0000000   2.7928460   2.7928460   2.7928460   2.7928460
 AtZNuc=   1.0000000   1.0000000   1.0000000   1.0000000   1.0000000   6.0000000   1.0000000   1.0000000   1.0000000   1.0000000

  Atom        31          32          33          34          35          36          37          38          39          40
 IAtWgt=           1           1           1           1           1           1           1          16          16          12
 AtmWgt=   1.0078250   1.0078250   1.0078250   1.0078250   1.0078250   1.0078250   1.0078250  15.9949146  15.9949146  12.0000000
 NucSpn=           1           1           1           1           1           1           1           0           0           0
 AtZEff=  -0.0000000  -0.0000000  -0.0000000  -0.0000000  -0.0000000  -0.0000000  -0.0000000  -0.0000000  -0.0000000  -0.0000000
 NQMom=    0.0000000   0.0000000   0.0000000   0.0000000   0.0000000   0.0000000   0.0000000   0.0000000   0.0000000   0.0000000
 NMagM=    2.7928460   2.7928460   2.7928460   2.7928460   2.7928460   2.7928460   2.7928460   0.0000000   0.0000000   0.0000000
 AtZNuc=   1.0000000   1.0000000   1.0000000   1.0000000   1.0000000   1.0000000   1.0000000   8.0000000   8.0000000   6.0000000

  Atom        41          42          43          44          45          46
 IAtWgt=          12           1           1           1           1           1
 AtmWgt=  12.0000000   1.0078250   1.0078250   1.0078250   1.0078250   1.0078250
 NucSpn=           0           1           1           1           1           1
 AtZEff=  -0.0000000  -0.0000000  -0.0000000  -0.0000000  -0.0000000  -0.0000000
 NQMom=    0.0000000   0.0000000   0.0000000   0.0000000   0.0000000   0.0000000
 NMagM=    0.0000000   2.7928460   2.7928460   2.7928460   2.7928460   2.7928460
 AtZNuc=   6.0000000   1.0000000   1.0000000   1.0000000   1.0000000   1.0000000
 Leave Link  101 at Tue Jun 29 18:21:37 2021, MaxMem=  2147483648 cpu:               5.2 elap:               0.4
 (Enter /SFS/product/gaussian/g16.a03/x86_64/avx/g16/l103.exe)

 GradGradGradGradGradGradGradGradGradGradGradGradGradGradGradGradGradGrad
 Berny optimization.
 Initialization pass.
                           ----------------------------
                           !    Initial Parameters    !
                           ! (Angstroms and Degrees)  !
 --------------------------                            --------------------------
 ! Name  Definition              Value          Derivative Info.                !
 --------------------------------------------------------------------------------
 ! R1    R(1,2)                  1.4047         estimate D2E/DX2                !
 ! R2    R(1,6)                  1.399          estimate D2E/DX2                !
 ! R3    R(1,24)                 1.0889         estimate D2E/DX2                !
 ! R4    R(2,3)                  1.4042         estimate D2E/DX2                !
 ! R5    R(2,7)                  1.5431         estimate D2E/DX2                !
 ! R6    R(3,4)                  1.397          estimate D2E/DX2                !
 ! R7    R(3,20)                 1.0878         estimate D2E/DX2                !
 ! R8    R(4,5)                  1.3981         estimate D2E/DX2                !
 ! R9    R(4,21)                 1.091          estimate D2E/DX2                !
 ! R10   R(5,6)                  1.3969         estimate D2E/DX2                !
 ! R11   R(5,22)                 1.0909         estimate D2E/DX2                !
 ! R12   R(6,23)                 1.0909         estimate D2E/DX2                !
 ! R13   R(7,8)                  1.584          estimate D2E/DX2                !
 ! R14   R(7,11)                 1.5953         estimate D2E/DX2                !
 ! R15   R(7,14)                 1.3897         estimate D2E/DX2                !
 ! R16   R(8,9)                  1.5273         estimate D2E/DX2                !
 ! R17   R(8,25)                 1.0969         estimate D2E/DX2                !
 ! R18   R(8,26)                 1.5196         estimate D2E/DX2                !
 ! R19   R(9,10)                 1.5433         estimate D2E/DX2                !
 ! R20   R(9,27)                 1.0964         estimate D2E/DX2                !
 ! R21   R(9,28)                 1.096          estimate D2E/DX2                !
 ! R22   R(10,11)                1.5965         estimate D2E/DX2                !
 ! R23   R(10,29)                1.0976         estimate D2E/DX2                !
 ! R24   R(10,30)                1.0952         estimate D2E/DX2                !
 ! R25   R(11,12)                1.466          estimate D2E/DX2                !
 ! R26   R(11,31)                1.0921         estimate D2E/DX2                !
 ! R27   R(12,13)                1.4594         estimate D2E/DX2                !
 ! R28   R(12,17)                1.4696         estimate D2E/DX2                !
 ! R29   R(13,35)                1.0978         estimate D2E/DX2                !
 ! R30   R(13,36)                1.1163         estimate D2E/DX2                !
 ! R31   R(13,37)                1.0902         estimate D2E/DX2                !
 ! R32   R(14,15)                1.8406         estimate D2E/DX2                !
 ! R33   R(15,16)                2.2771         estimate D2E/DX2                !
 ! R34   R(15,18)                2.258          estimate D2E/DX2                !
 ! R35   R(15,19)                2.2665         estimate D2E/DX2                !
 ! R36   R(17,32)                1.0993         estimate D2E/DX2                !
 ! R37   R(17,33)                1.1109         estimate D2E/DX2                !
 ! R38   R(17,34)                1.0934         estimate D2E/DX2                !
 ! R39   R(26,38)                1.3412         estimate D2E/DX2                !
 ! R40   R(26,39)                1.2173         estimate D2E/DX2                !
 ! R41   R(38,40)                1.4579         estimate D2E/DX2                !
 ! R42   R(40,41)                1.5145         estimate D2E/DX2                !
 ! R43   R(40,42)                1.0978         estimate D2E/DX2                !
 ! R44   R(40,43)                1.098          estimate D2E/DX2                !
 ! R45   R(41,44)                1.0992         estimate D2E/DX2                !
 ! R46   R(41,45)                1.0988         estimate D2E/DX2                !
 ! R47   R(41,46)                1.0984         estimate D2E/DX2                !
 ! A1    A(2,1,6)              121.0079         estimate D2E/DX2                !
 ! A2    A(2,1,24)             121.3812         estimate D2E/DX2                !
 ! A3    A(6,1,24)             117.6109         estimate D2E/DX2                !
 ! A4    A(1,2,3)              118.0566         estimate D2E/DX2                !
 ! A5    A(1,2,7)              122.9599         estimate D2E/DX2                !
 ! A6    A(3,2,7)              118.8897         estimate D2E/DX2                !
 ! A7    A(2,3,4)              121.0253         estimate D2E/DX2                !
 ! A8    A(2,3,20)             119.7234         estimate D2E/DX2                !
 ! A9    A(4,3,20)             119.2505         estimate D2E/DX2                !
 ! A10   A(3,4,5)              120.3891         estimate D2E/DX2                !
 ! A11   A(3,4,21)             119.4164         estimate D2E/DX2                !
 ! A12   A(5,4,21)             120.1942         estimate D2E/DX2                !
 ! A13   A(4,5,6)              119.1901         estimate D2E/DX2                !
 ! A14   A(4,5,22)             120.4471         estimate D2E/DX2                !
 ! A15   A(6,5,22)             120.3628         estimate D2E/DX2                !
 ! A16   A(1,6,5)              120.326          estimate D2E/DX2                !
 ! A17   A(1,6,23)             119.4112         estimate D2E/DX2                !
 ! A18   A(5,6,23)             120.2626         estimate D2E/DX2                !
 ! A19   A(2,7,8)              110.3558         estimate D2E/DX2                !
 ! A20   A(2,7,11)             109.5532         estimate D2E/DX2                !
 ! A21   A(2,7,14)             111.7528         estimate D2E/DX2                !
 ! A22   A(8,7,11)             102.715          estimate D2E/DX2                !
 ! A23   A(8,7,14)             110.2928         estimate D2E/DX2                !
 ! A24   A(11,7,14)            111.8169         estimate D2E/DX2                !
 ! A25   A(7,8,9)              105.0709         estimate D2E/DX2                !
 ! A26   A(7,8,25)             105.8878         estimate D2E/DX2                !
 ! A27   A(7,8,26)             114.427          estimate D2E/DX2                !
 ! A28   A(9,8,25)             111.0223         estimate D2E/DX2                !
 ! A29   A(9,8,26)             113.5612         estimate D2E/DX2                !
 ! A30   A(25,8,26)            106.673          estimate D2E/DX2                !
 ! A31   A(8,9,10)             106.0139         estimate D2E/DX2                !
 ! A32   A(8,9,27)             111.9116         estimate D2E/DX2                !
 ! A33   A(8,9,28)             109.6952         estimate D2E/DX2                !
 ! A34   A(10,9,27)            111.3149         estimate D2E/DX2                !
 ! A35   A(10,9,28)            110.4175         estimate D2E/DX2                !
 ! A36   A(27,9,28)            107.5103         estimate D2E/DX2                !
 ! A37   A(9,10,11)            105.6919         estimate D2E/DX2                !
 ! A38   A(9,10,29)            110.5338         estimate D2E/DX2                !
 ! A39   A(9,10,30)            113.6201         estimate D2E/DX2                !
 ! A40   A(11,10,29)           111.6537         estimate D2E/DX2                !
 ! A41   A(11,10,30)           108.852          estimate D2E/DX2                !
 ! A42   A(29,10,30)           106.5709         estimate D2E/DX2                !
 ! A43   A(7,11,10)            106.5482         estimate D2E/DX2                !
 ! A44   A(7,11,12)            118.19           estimate D2E/DX2                !
 ! A45   A(7,11,31)            109.4552         estimate D2E/DX2                !
 ! A46   A(10,11,12)           103.6326         estimate D2E/DX2                !
 ! A47   A(10,11,31)           110.1243         estimate D2E/DX2                !
 ! A48   A(12,11,31)           108.5917         estimate D2E/DX2                !
 ! A49   A(11,12,13)           123.9669         estimate D2E/DX2                !
 ! A50   A(11,12,17)           117.4902         estimate D2E/DX2                !
 ! A51   A(13,12,17)           118.5406         estimate D2E/DX2                !
 ! A52   A(12,13,35)           111.4115         estimate D2E/DX2                !
 ! A53   A(12,13,36)           104.3456         estimate D2E/DX2                !
 ! A54   A(12,13,37)           115.3463         estimate D2E/DX2                !
 ! A55   A(35,13,36)           105.2986         estimate D2E/DX2                !
 ! A56   A(35,13,37)           112.2361         estimate D2E/DX2                !
 ! A57   A(36,13,37)           107.2788         estimate D2E/DX2                !
 ! A58   A(7,14,15)            146.2072         estimate D2E/DX2                !
 ! A59   A(14,15,16)           107.0602         estimate D2E/DX2                !
 ! A60   A(14,15,18)           111.4785         estimate D2E/DX2                !
 ! A61   A(14,15,19)           109.6588         estimate D2E/DX2                !
 ! A62   A(16,15,18)           108.2354         estimate D2E/DX2                !
 ! A63   A(16,15,19)           107.7217         estimate D2E/DX2                !
 ! A64   A(18,15,19)           112.4582         estimate D2E/DX2                !
 ! A65   A(12,17,32)           111.5876         estimate D2E/DX2                !
 ! A66   A(12,17,33)           104.3892         estimate D2E/DX2                !
 ! A67   A(12,17,34)           114.1392         estimate D2E/DX2                !
 ! A68   A(32,17,33)           104.735          estimate D2E/DX2                !
 ! A69   A(32,17,34)           111.942          estimate D2E/DX2                !
 ! A70   A(33,17,34)           109.3076         estimate D2E/DX2                !
 ! A71   A(8,26,38)            111.3171         estimate D2E/DX2                !
 ! A72   A(8,26,39)            124.7845         estimate D2E/DX2                !
 ! A73   A(38,26,39)           123.8936         estimate D2E/DX2                !
 ! A74   A(26,38,40)           116.8896         estimate D2E/DX2                !
 ! A75   A(38,40,41)           107.583          estimate D2E/DX2                !
 ! A76   A(38,40,42)           108.1823         estimate D2E/DX2                !
 ! A77   A(38,40,43)           108.1734         estimate D2E/DX2                !
 ! A78   A(41,40,42)           112.1961         estimate D2E/DX2                !
 ! A79   A(41,40,43)           112.2093         estimate D2E/DX2                !
 ! A80   A(42,40,43)           108.3475         estimate D2E/DX2                !
 ! A81   A(40,41,44)           109.1364         estimate D2E/DX2                !
 ! A82   A(40,41,45)           111.0669         estimate D2E/DX2                !
 ! A83   A(40,41,46)           111.0121         estimate D2E/DX2                !
 ! A84   A(44,41,45)           108.3427         estimate D2E/DX2                !
 ! A85   A(44,41,46)           108.4439         estimate D2E/DX2                !
 ! A86   A(45,41,46)           108.7628         estimate D2E/DX2                !
 ! D1    D(6,1,2,3)             -0.7499         estimate D2E/DX2                !
 ! D2    D(6,1,2,7)           -177.1853         estimate D2E/DX2                !
 ! D3    D(24,1,2,3)           179.275          estimate D2E/DX2                !
 ! D4    D(24,1,2,7)             2.8396         estimate D2E/DX2                !
 ! D5    D(2,1,6,5)              0.2286         estimate D2E/DX2                !
 ! D6    D(2,1,6,23)          -179.6027         estimate D2E/DX2                !
 ! D7    D(24,1,6,5)          -179.7954         estimate D2E/DX2                !
 ! D8    D(24,1,6,23)            0.3733         estimate D2E/DX2                !
 ! D9    D(1,2,3,4)              0.7687         estimate D2E/DX2                !
 ! D10   D(1,2,3,20)          -179.5487         estimate D2E/DX2                !
 ! D11   D(7,2,3,4)            177.3529         estimate D2E/DX2                !
 ! D12   D(7,2,3,20)            -2.9645         estimate D2E/DX2                !
 ! D13   D(1,2,7,8)             83.6828         estimate D2E/DX2                !
 ! D14   D(1,2,7,11)           -28.7068         estimate D2E/DX2                !
 ! D15   D(1,2,7,14)          -153.2021         estimate D2E/DX2                !
 ! D16   D(3,2,7,8)            -92.7244         estimate D2E/DX2                !
 ! D17   D(3,2,7,11)           154.8861         estimate D2E/DX2                !
 ! D18   D(3,2,7,14)            30.3908         estimate D2E/DX2                !
 ! D19   D(2,3,4,5)             -0.2664         estimate D2E/DX2                !
 ! D20   D(2,3,4,21)           179.5356         estimate D2E/DX2                !
 ! D21   D(20,3,4,5)          -179.9504         estimate D2E/DX2                !
 ! D22   D(20,3,4,21)           -0.1484         estimate D2E/DX2                !
 ! D23   D(3,4,5,6)             -0.2739         estimate D2E/DX2                !
 ! D24   D(3,4,5,22)           179.7122         estimate D2E/DX2                !
 ! D25   D(21,4,5,6)           179.9256         estimate D2E/DX2                !
 ! D26   D(21,4,5,22)           -0.0883         estimate D2E/DX2                !
 ! D27   D(4,5,6,1)              0.2923         estimate D2E/DX2                !
 ! D28   D(4,5,6,23)          -179.8779         estimate D2E/DX2                !
 ! D29   D(22,5,6,1)          -179.6939         estimate D2E/DX2                !
 ! D30   D(22,5,6,23)            0.136          estimate D2E/DX2                !
 ! D31   D(2,7,8,9)            -82.0048         estimate D2E/DX2                !
 ! D32   D(2,7,8,25)           160.4203         estimate D2E/DX2                !
 ! D33   D(2,7,8,26)            43.2326         estimate D2E/DX2                !
 ! D34   D(11,7,8,9)            34.7173         estimate D2E/DX2                !
 ! D35   D(11,7,8,25)          -82.8576         estimate D2E/DX2                !
 ! D36   D(11,7,8,26)          159.9547         estimate D2E/DX2                !
 ! D37   D(14,7,8,9)           154.0335         estimate D2E/DX2                !
 ! D38   D(14,7,8,25)           36.4586         estimate D2E/DX2                !
 ! D39   D(14,7,8,26)          -80.729          estimate D2E/DX2                !
 ! D40   D(2,7,11,10)           98.1741         estimate D2E/DX2                !
 ! D41   D(2,7,11,12)         -145.8354         estimate D2E/DX2                !
 ! D42   D(2,7,11,31)          -20.8787         estimate D2E/DX2                !
 ! D43   D(8,7,11,10)          -19.1197         estimate D2E/DX2                !
 ! D44   D(8,7,11,12)           96.8708         estimate D2E/DX2                !
 ! D45   D(8,7,11,31)         -138.1725         estimate D2E/DX2                !
 ! D46   D(14,7,11,10)        -137.3679         estimate D2E/DX2                !
 ! D47   D(14,7,11,12)         -21.3774         estimate D2E/DX2                !
 ! D48   D(14,7,11,31)         103.5793         estimate D2E/DX2                !
 ! D49   D(2,7,14,15)           48.666          estimate D2E/DX2                !
 ! D50   D(8,7,14,15)          171.8168         estimate D2E/DX2                !
 ! D51   D(11,7,14,15)         -74.5552         estimate D2E/DX2                !
 ! D52   D(7,8,9,10)           -37.7495         estimate D2E/DX2                !
 ! D53   D(7,8,9,27)          -159.2871         estimate D2E/DX2                !
 ! D54   D(7,8,9,28)            81.4749         estimate D2E/DX2                !
 ! D55   D(25,8,9,10)           76.28           estimate D2E/DX2                !
 ! D56   D(25,8,9,27)          -45.2576         estimate D2E/DX2                !
 ! D57   D(25,8,9,28)         -164.4956         estimate D2E/DX2                !
 ! D58   D(26,8,9,10)         -163.5271         estimate D2E/DX2                !
 ! D59   D(26,8,9,27)           74.9353         estimate D2E/DX2                !
 ! D60   D(26,8,9,28)          -44.3027         estimate D2E/DX2                !
 ! D61   D(7,8,26,38)           78.2157         estimate D2E/DX2                !
 ! D62   D(7,8,26,39)         -102.5477         estimate D2E/DX2                !
 ! D63   D(9,8,26,38)         -161.1462         estimate D2E/DX2                !
 ! D64   D(9,8,26,39)           18.0904         estimate D2E/DX2                !
 ! D65   D(25,8,26,38)         -38.5211         estimate D2E/DX2                !
 ! D66   D(25,8,26,39)         140.7155         estimate D2E/DX2                !
 ! D67   D(8,9,10,11)           24.8868         estimate D2E/DX2                !
 ! D68   D(8,9,10,29)          -96.0779         estimate D2E/DX2                !
 ! D69   D(8,9,10,30)          144.1734         estimate D2E/DX2                !
 ! D70   D(27,9,10,11)         146.8067         estimate D2E/DX2                !
 ! D71   D(27,9,10,29)          25.842          estimate D2E/DX2                !
 ! D72   D(27,9,10,30)         -93.9066         estimate D2E/DX2                !
 ! D73   D(28,9,10,11)         -93.8616         estimate D2E/DX2                !
 ! D74   D(28,9,10,29)         145.1737         estimate D2E/DX2                !
 ! D75   D(28,9,10,30)          25.425          estimate D2E/DX2                !
 ! D76   D(9,10,11,7)           -2.8236         estimate D2E/DX2                !
 ! D77   D(9,10,11,12)        -128.2149         estimate D2E/DX2                !
 ! D78   D(9,10,11,31)         115.7919         estimate D2E/DX2                !
 ! D79   D(29,10,11,7)         117.4107         estimate D2E/DX2                !
 ! D80   D(29,10,11,12)         -7.9806         estimate D2E/DX2                !
 ! D81   D(29,10,11,31)       -123.9738         estimate D2E/DX2                !
 ! D82   D(30,10,11,7)        -125.2147         estimate D2E/DX2                !
 ! D83   D(30,10,11,12)        109.3939         estimate D2E/DX2                !
 ! D84   D(30,10,11,31)         -6.5992         estimate D2E/DX2                !
 ! D85   D(7,11,12,13)         -42.7602         estimate D2E/DX2                !
 ! D86   D(7,11,12,17)         136.6912         estimate D2E/DX2                !
 ! D87   D(10,11,12,13)         74.7889         estimate D2E/DX2                !
 ! D88   D(10,11,12,17)       -105.7597         estimate D2E/DX2                !
 ! D89   D(31,11,12,13)       -168.1394         estimate D2E/DX2                !
 ! D90   D(31,11,12,17)         11.312          estimate D2E/DX2                !
 ! D91   D(11,12,13,35)       -141.9934         estimate D2E/DX2                !
 ! D92   D(11,12,13,36)        104.8768         estimate D2E/DX2                !
 ! D93   D(11,12,13,37)        -12.5349         estimate D2E/DX2                !
 ! D94   D(17,12,13,35)         38.5606         estimate D2E/DX2                !
 ! D95   D(17,12,13,36)        -74.5692         estimate D2E/DX2                !
 ! D96   D(17,12,13,37)        168.0191         estimate D2E/DX2                !
 ! D97   D(11,12,17,32)         37.3799         estimate D2E/DX2                !
 ! D98   D(11,12,17,33)        -75.196          estimate D2E/DX2                !
 ! D99   D(11,12,17,34)        165.527          estimate D2E/DX2                !
 ! D100  D(13,12,17,32)       -143.138          estimate D2E/DX2                !
 ! D101  D(13,12,17,33)        104.286          estimate D2E/DX2                !
 ! D102  D(13,12,17,34)        -14.9909         estimate D2E/DX2                !
 ! D103  D(7,14,15,16)         133.8879         estimate D2E/DX2                !
 ! D104  D(7,14,15,18)        -107.9151         estimate D2E/DX2                !
 ! D105  D(7,14,15,19)          17.2891         estimate D2E/DX2                !
 ! D106  D(8,26,38,40)        -178.7699         estimate D2E/DX2                !
 ! D107  D(39,26,38,40)          1.9855         estimate D2E/DX2                !
 ! D108  D(26,38,40,41)        179.1271         estimate D2E/DX2                !
 ! D109  D(26,38,40,42)         57.7143         estimate D2E/DX2                !
 ! D110  D(26,38,40,43)        -59.4494         estimate D2E/DX2                !
 ! D111  D(38,40,41,44)       -179.8253         estimate D2E/DX2                !
 ! D112  D(38,40,41,45)         60.7928         estimate D2E/DX2                !
 ! D113  D(38,40,41,46)        -60.352          estimate D2E/DX2                !
 ! D114  D(42,40,41,44)        -60.955          estimate D2E/DX2                !
 ! D115  D(42,40,41,45)        179.663          estimate D2E/DX2                !
 ! D116  D(42,40,41,46)         58.5182         estimate D2E/DX2                !
 ! D117  D(43,40,41,44)         61.3076         estimate D2E/DX2                !
 ! D118  D(43,40,41,45)        -58.0743         estimate D2E/DX2                !
 ! D119  D(43,40,41,46)       -179.2191         estimate D2E/DX2                !
 --------------------------------------------------------------------------------
 Trust Radius=5.00D-02 FncErr=1.00D-07 GrdErr=1.00D-06 EigMax=2.50D+02 EigMin=1.00D-04
 Number of steps in this run=    262 maximum allowed number of steps=    276.
 GradGradGradGradGradGradGradGradGradGradGradGradGradGradGradGradGradGrad

 Leave Link  103 at Tue Jun 29 18:21:37 2021, MaxMem=  2147483648 cpu:               0.3 elap:               0.1
 (Enter /SFS/product/gaussian/g16.a03/x86_64/avx/g16/l202.exe)
                          Input orientation:                          
 ---------------------------------------------------------------------
 Center     Atomic      Atomic             Coordinates (Angstroms)
 Number     Number       Type             X           Y           Z
 ---------------------------------------------------------------------
      1          6           0        1.846314    1.831532    1.744108
      2          6           0        1.247712    0.751972    1.073766
      3          6           0        1.402057   -0.532277    1.620222
      4          6           0        2.115971   -0.729762    2.804643
      5          6           0        2.698144    0.354188    3.468672
      6          6           0        2.562025    1.635965    2.930175
      7          6           0        0.502590    0.906342   -0.268663
      8          6           0        1.528581    0.874933   -1.475131
      9          6           0        2.086292    2.294269   -1.559202
     10          6           0        0.903626    3.235557   -1.247784
     11          6           0       -0.114863    2.373752   -0.370932
     12          6           0       -1.395010    2.539551   -1.065793
     13          6           0       -1.732973    1.877090   -2.321444
     14          8           0       -0.467355   -0.074884   -0.435146
     15         26           0       -1.889986   -0.963547    0.322515
     16         17           0       -3.540197   -1.041534   -1.244628
     17          6           0       -2.394969    3.419464   -0.444805
     18         17           0       -1.340941   -3.082542    0.876488
     19         17           0       -2.673084    0.218432    2.090756
     20          1           0        0.956028   -1.388735    1.119339
     21          1           0        2.213132   -1.737994    3.209976
     22          1           0        3.251889    0.201662    4.396161
     23          1           0        3.010851    2.493931    3.432710
     24          1           0        1.770848    2.848434    1.362029
     25          1           0        0.937007    0.631173   -2.366135
     26          6           0        2.602546   -0.193807   -1.359053
     27          1           0        2.516242    2.507213   -2.545085
     28          1           0        2.882809    2.422707   -0.817343
     29          1           0        0.438754    3.590055   -2.176771
     30          1           0        1.190479    4.128121   -0.681678
     31          1           0       -0.204031    2.801428    0.629958
     32          1           0       -1.926223    4.294863    0.026777
     33          1           0       -2.798365    2.824415    0.402107
     34          1           0       -3.214985    3.703754   -1.109852
     35          1           0       -2.310944    2.538071   -2.980386
     36          1           0       -2.439873    1.065734   -2.024580
     37          1           0       -0.897859    1.405370   -2.839780
     38          8           0        2.125897   -1.402248   -1.692625
     39          8           0        3.753935    0.012412   -1.021987
     40          6           0        3.050775   -2.525161   -1.597283
     41          6           0        2.295186   -3.775435   -1.996962
     42          1           0        3.421649   -2.576806   -0.565362
     43          1           0        3.902282   -2.324812   -2.260983
     44          1           0        2.969787   -4.640706   -1.930957
     45          1           0        1.927580   -3.701562   -3.029818
     46          1           0        1.440501   -3.949423   -1.329355
 ---------------------------------------------------------------------
                    Distance matrix (angstroms):
                    1          2          3          4          5
     1  C    0.000000
     2  C    1.404682   0.000000
     3  C    2.408382   1.404184   0.000000
     4  C    2.785261   2.438308   1.396971   0.000000
     5  C    2.425341   2.827996   2.425372   1.398144   0.000000
     6  C    1.399015   2.440311   2.786176   2.410682   1.396947
     7  C    2.590911   1.543098   2.539006   3.837323   4.369554
     8  C    3.373357   2.567271   3.402566   4.608312   5.106882
     9  C    3.344185   3.164556   4.308860   5.309311   5.423817
    10  C    3.436767   3.417043   4.761351   5.797905   5.810984
    11  C    2.934896   2.563968   3.835459   4.969175   5.170513
    12  C    4.347760   3.841501   4.947160   6.164063   6.487765
    13  C    5.416833   4.655945   5.583027   6.920030   7.448454
    14  O    3.706297   2.429395   2.815750   4.195077   5.044233
    15  Fe   4.877841   3.654112   3.564770   4.718401   5.717138
    16  Cl   6.797172   5.613883   5.735206   6.963191   7.942300
    17  C    5.030045   4.763475   5.856449   6.937115   7.116953
    18  Cl   5.921105   4.630717   3.818511   4.604736   5.902943
    19  Cl   4.811155   4.085532   4.170341   4.933939   5.546816
    20  H    3.398980   2.160968   1.087817   2.149410   3.404719
    21  H    3.876189   3.419848   2.153814   1.090994   2.163189
    22  H    3.415480   3.918912   3.415609   2.165823   1.090932
    23  H    2.155527   3.421651   3.877018   3.404038   2.162771
    24  H    1.088930   2.179890   3.410554   3.873465   3.393978
    25  H    4.377419   3.456016   4.178628   5.475312   6.101090
    26  C    3.781996   2.940864   3.229832   4.226153   4.859667
    27  H    4.393464   4.217360   5.275385   6.265606   6.390139
    28  H    2.825746   3.006857   4.106858   4.862601   4.762646
    29  H    4.521827   4.390344   5.686715   6.803555   6.888157
    30  H    3.404244   3.805685   5.202194   6.050620   5.808703
    31  H    2.527042   2.550450   3.830631   4.751943   4.740243
    32  H    4.821749   4.870537   6.076002   7.021590   6.982860
    33  H    4.935567   4.595311   5.513142   6.523423   6.761468
    34  H    6.104674   5.779002   6.834789   7.962313   8.194362
    35  H    6.332680   5.682458   6.661757   7.983913   8.452849
    36  H    5.758546   4.826642   5.531604   6.877566   7.555219
    37  H    5.359490   4.510681   5.379192   6.745478   7.337083
    38  O    4.727223   3.614525   3.500821   4.547280   5.481927
    39  O    3.820929   3.349669   3.579006   4.228102   4.625746
    40  C    5.621067   4.596209   4.128219   4.845025   5.837714
    41  C    6.755381   5.569918   4.939613   5.688906   6.862166
    42  H    5.220036   4.300408   3.610489   4.058731   5.038612
    43  H    6.127231   5.256795   4.952581   5.603183   6.438628
    44  H    7.527161   6.408969   5.652242   6.200838   7.360622
    45  H    7.308358   6.093898   5.651850   6.550421   7.698912
    46  H    6.559748   5.283491   4.514241   5.283220   6.566871
                    6          7          8          9         10
     6  C    0.000000
     7  C    3.873782   0.000000
     8  C    4.588453   1.584048   0.000000
     9  C    4.562257   2.469807   1.527293   0.000000
    10  C    4.771197   2.558271   2.452509   1.543277   0.000000
    11  C    4.313626   1.595305   2.483268   2.502676   1.596527
    12  C    5.695819   2.627484   3.389085   3.524639   2.408583
    13  C    6.788568   3.186535   3.515437   3.916866   3.154336
    14  O    4.840406   1.389717   2.442843   3.660260   3.674097
    15  Fe   5.777348   3.093606   4.277633   5.474031   5.282289
    16  Cl   7.863529   4.592478   5.423881   6.548581   6.167745
    17  C    6.256449   3.839617   4.788575   4.752856   3.399901
    18  Cl   6.458721   4.541054   5.424562   6.825585   7.033419
    19  Cl   5.488205   4.015593   5.549823   6.346885   5.748195
    20  H    3.873908   2.720208   3.490456   4.692185   5.195199
    21  H    3.403471   4.692483   5.407978   6.246622   6.806074
    22  H    2.163851   5.460385   6.155904   6.419032   6.824439
    23  H    1.090913   4.744679   5.376354   5.080734   5.186273
    24  H    2.134274   2.835376   3.464517   2.990016   2.777240
    25  H    5.630381   2.159589   1.096935   2.176668   2.834544
    26  C    4.663388   2.609424   1.519566   2.548941   3.828740
    27  H    5.544334   3.435066   2.187376   1.096434   2.194084
    28  H    3.842624   2.875040   2.159218   1.096034   2.182469
    29  H    5.865803   3.293519   3.008639   2.185139   1.097630
    30  H    4.597550   3.320186   3.365578   2.221608   1.095185
    31  H    3.781583   2.213184   3.338372   3.208615   2.222901
    32  H    5.970245   4.179533   5.087958   4.755837   3.279433
    33  H    6.044611   3.876240   5.103623   5.290337   4.073808
    34  H    7.346524   4.727946   5.535077   5.503826   4.147432
    35  H    7.713258   4.234614   4.446771   4.627622   3.717776
    36  H    7.063550   3.430268   4.010851   4.712966   4.060853
    37  H    6.731742   2.970005   2.833944   3.366776   3.021487
    38  O    5.548984   3.161073   2.364243   3.699136   4.816748
    39  O    4.435782   3.455120   2.429297   2.876891   4.308586
    40  C    6.168608   4.475901   3.727283   4.915138   6.157781
    41  C    7.323328   5.302778   4.741931   6.089054   7.186913
    42  H    5.541225   4.554257   4.040531   5.147647   6.371005
    43  H    6.665746   5.095842   4.060836   5.012607   6.398141
    44  H    7.949432   6.294444   5.719014   7.000903   8.171369
    45  H    8.025785   5.557639   4.849800   6.175588   7.235174
    46  H    7.113225   5.057984   4.827362   6.281207   7.205472
                   11         12         13         14         15
    11  C    0.000000
    12  C    1.465980   0.000000
    13  C    2.582528   1.459360   0.000000
    14  O    2.474711   2.844913   2.995014   0.000000
    15  Fe   3.843110   3.800539   3.883863   1.840557   0.000000
    16  Cl   4.915327   4.178275   3.597771   3.321450   2.277107
    17  C    2.509553   1.469623   2.517723   3.990771   4.478233
    18  Cl   5.729788   5.948387   5.914255   3.395518   2.257981
    19  Cl   4.153289   4.121270   4.806502   3.366223   2.266494
    20  H    4.186171   5.072831   5.453011   2.483676   2.985885
    21  H    5.928652   7.042605   7.696570   4.820566   5.076690
    22  H    6.227212   7.542701   8.531244   6.103342   6.662671
    23  H    4.924655   6.296842   7.482957   5.801469   6.756158
    24  H    2.604685   4.001548   5.175736   4.096972   5.386418
    25  H    2.850236   3.281935   2.946710   2.489873   4.214719
    26  C    3.866918   4.851567   4.900157   3.208121   4.858293
    27  H    3.415767   4.181775   4.301500   4.474474   6.299536
    28  H    3.031125   4.286621   4.885229   4.196145   5.962010
    29  H    2.246539   2.387576   2.769761   4.157652   5.692517
    30  H    2.208685   3.058734   4.037641   4.524869   6.035126
    31  H    1.092080   2.088679   3.450049   3.078467   4.136666
    32  H    2.670181   2.134717   3.375961   4.629941   5.266844
    33  H    2.828758   2.050679   3.074120   3.813205   3.896170
    34  H    3.453356   2.160930   2.645943   4.720466   5.058754
    35  H    3.414531   2.122405   1.097794   4.087126   4.831945
    36  H    3.138652   2.045274   1.116304   2.778154   3.151065
    37  H    2.765150   2.163459   1.090233   2.856353   4.073843
    38  O    4.585418   5.322357   5.102974   3.173028   4.514484
    39  O    4.579017   5.735851   5.939004   4.262780   5.883369
    40  C    5.960247   6.760088   6.541289   4.442033   5.525883
    41  C    6.801824   7.373172   6.948553   4.874934   5.549987
    42  H    6.087097   7.044696   7.034994   4.626113   5.621779
    43  H    6.464229   7.290529   7.029633   5.243051   6.486746
    44  H    7.819934   8.447251   8.046744   5.907464   6.497463
    45  H    6.939070   7.338153   6.709903   5.061702   5.771367
    46  H    6.581814   7.086351   6.708460   4.410394   4.768257
                   16         17         18         19         20
    16  Cl   0.000000
    17  C    4.674587   0.000000
    18  Cl   3.674449   6.718100   0.000000
    19  Cl   3.669358   4.093046   3.761048   0.000000
    20  H    5.091653   6.065847   2.864267   4.086207   0.000000
    21  H    7.309538   7.822493   4.459194   5.381019   2.464357
    22  H    8.916079   8.104086   6.653434   6.357710   4.305566
    23  H    8.791657   6.716742   7.521264   6.267843   4.964784
    24  H    7.080516   4.576544   6.715315   5.215025   4.321624
    25  H    4.909285   4.750594   5.430960   5.750390   4.028513
    26  C    6.202018   6.234319   5.375270   6.316913   3.206447
    27  H    7.138995   5.418798   7.604629   7.325206   5.571416
    28  H    7.310167   5.383981   7.142611   6.647091   4.689383
    29  H    6.176776   3.325476   7.550712   6.266033   5.993352
    30  H    7.030046   3.662477   7.799335   6.156231   5.808126
    31  H    5.423323   2.517398   5.997870   3.860314   4.375237
    32  H    5.718262   1.099289   7.449206   4.629806   6.465628
    33  H    4.267038   1.110888   6.102562   3.107793   5.688631
    34  H    4.758328   1.093405   7.315149   4.762879   6.949826
    35  H    4.163831   2.685719   6.885323   5.588233   6.549859
    36  H    2.501923   2.835093   5.179965   4.208123   5.238396
    37  H    3.938756   3.468979   5.843657   5.373121   5.188308
    38  O    5.695212   6.726380   4.630626   6.322246   3.045639
    39  O    7.373244   7.053380   6.256254   7.144102   3.791672
    40  C    6.765089   8.143887   5.071231   7.341083   3.613788
    41  C    6.487828   8.727733   4.685961   7.572590   4.147410
    42  H    7.161408   8.354809   5.001696   7.212079   3.213879
    43  H    7.620385   8.714963   6.157050   8.284996   4.580746
    44  H    7.470273   9.795693   5.375128   8.463297   4.892325
    45  H    6.337132   8.722140   5.130852   7.921663   4.848565
    46  H    5.768046   8.354266   3.654264   6.781575   3.576023
                   21         22         23         24         25
    21  H    0.000000
    22  H    2.499663   0.000000
    23  H    4.312210   2.498166   0.000000
    24  H    4.964458   4.290086   2.439467   0.000000
    25  H    6.191483   7.160433   6.434073   4.417097   0.000000
    26  C    4.838614   5.805216   5.509232   4.165482   2.113960
    27  H    7.157820   7.351030   5.998237   3.992190   2.458766
    28  H    5.829168   5.678898   4.252578   2.483418   3.065044
    29  H    7.781617   7.911913   6.267651   3.853256   3.006509
    30  H    7.113515   6.741731   4.786702   2.480154   3.889767
    31  H    5.753740   5.734671   4.276148   2.106724   3.871505
    32  H    7.978871   7.915722   6.262462   4.188483   5.229411
    33  H    7.335858   7.709531   6.560546   4.669019   5.140669
    34  H    8.816915   9.187017   7.801255   5.630302   5.315829
    35  H    8.779099   9.529814   8.333742   5.967740   3.816117
    36  H    7.543999   8.623728   7.844243   5.690106   3.421816
    37  H    7.493901   8.427821   7.470416   5.182628   2.047060
    38  O    4.914858   6.396382   6.498647   5.246453   2.449873
    39  O    4.831926   5.444648   5.153100   4.202284   3.181931
    40  C    4.942774   6.587669   7.105892   6.266679   3.875770
    41  C    5.591968   7.589770   8.324570   7.445360   4.625920
    42  H    4.051826   5.689061   6.470372   5.989425   4.439297
    43  H    5.755778   7.150080   7.512195   6.665711   4.188288
    44  H    5.952097   7.972486   8.926010   8.268520   5.666946
    45  H    6.547684   8.493181   9.017864   7.887670   4.493807
    46  H    5.108121   7.300285   8.164562   7.318711   4.723376
                   26         27         28         29         30
    26  C    0.000000
    27  H    2.951208   0.000000
    28  H    2.686660   1.768221   0.000000
    29  H    4.434892   2.371531   3.030536   0.000000
    30  H    4.596937   2.803083   2.406413   1.757814   0.000000
    31  H    4.561192   4.191342   3.430261   2.985437   2.329198
    32  H    6.525215   5.435592   5.229177   3.308398   3.200554
    33  H    6.432821   6.085360   5.824446   4.209009   4.334180
    34  H    7.006907   6.028148   6.237767   3.808025   4.446519
    35  H    5.851005   4.846872   5.627356   3.051771   4.480210
    36  H    5.239786   5.187665   5.624032   3.831690   4.935692
    37  H    4.123440   3.599582   4.406663   2.645555   4.053632
    38  O    1.341191   4.020316   3.996163   5.291875   5.699298
    39  O    1.217307   3.174231   2.571043   5.012333   4.860677
    40  C    2.385974   5.148674   5.011778   6.674903   6.968873
    41  C    3.650953   6.310386   6.336700   7.597968   8.088050
    42  H    2.641886   5.530490   5.034776   7.037363   7.067368
    43  H    2.654049   5.034907   5.065803   6.854835   7.175543
    44  H    4.498539   7.188574   7.151189   8.614637   9.034321
    45  H    3.943524   6.255428   6.581351   7.490792   8.207376
    46  H    3.931397   6.657580   6.553354   7.652799   8.107325
                   31         32         33         34         35
    31  H    0.000000
    32  H    2.357991   0.000000
    33  H    2.604422   1.750349   0.000000
    34  H    3.592628   1.817207   1.798007   0.000000
    35  H    4.188439   3.503906   3.429407   2.382227   0.000000
    36  H    3.880489   3.859945   3.018325   2.897702   1.760103
    37  H    3.803874   4.198077   4.016895   3.693818   1.816478
    38  O    5.337963   7.199520   6.819160   7.411876   6.072067
    39  O    5.115958   7.190514   7.271041   7.886671   6.855439
    40  C    6.627738   8.597721   8.174837   8.848543   7.503154
    41  C    7.510121   9.329819   8.675126   9.332053   7.876796
    42  H    6.595434   8.727554   8.294441   9.153514   8.053380
    43  H    7.176189   9.111828   8.860319   9.398096   7.922711
    44  H    8.486269  10.375357   9.718168  10.419003   8.973420
    45  H    7.760580   9.388151   8.757913   9.217969   7.543245
    46  H    7.219237   9.007895   8.176235   8.960628   7.673775
                   36         37         38         39         40
    36  H    0.000000
    37  H    1.776995   0.000000
    38  O    5.200710   4.282731   0.000000
    39  O    6.362227   5.184968   2.258656   0.000000
    40  C    6.574521   5.708291   1.457883   2.695306   0.000000
    41  C    6.771888   6.143828   2.398603   4.174483   1.514544
    42  H    7.053712   6.299909   2.080693   2.650089   1.097759
    43  H    7.195458   6.106604   2.080793   2.649478   1.098044
    44  H    7.863628   7.234617   3.355080   4.805478   2.143228
    45  H    6.543108   5.839518   2.667257   4.600061   2.167405
    46  H    6.379063   6.035157   2.662674   4.598107   2.166400
                   41         42         43         44         45
    41  C    0.000000
    42  H    2.180621   0.000000
    43  H    2.181002   1.780348   0.000000
    44  H    1.099153   2.515693   2.518299   0.000000
    45  H    1.098810   3.093681   2.527053   1.782044   0.000000
    46  H    1.098389   2.528381   3.093163   1.782838   1.786129
                   46
    46  H    0.000000
 Stoichiometry    C17H22Cl3FeO3(6)
 Framework group  C1[X(C17H22Cl3FeO3)]
 Deg. of freedom   132
 Full point group                 C1      NOp   1
 Largest Abelian subgroup         C1      NOp   1
 Largest concise Abelian subgroup C1      NOp   1
                         Standard orientation:                         
 ---------------------------------------------------------------------
 Center     Atomic      Atomic             Coordinates (Angstroms)
 Number     Number       Type             X           Y           Z
 ---------------------------------------------------------------------
      1          6           0       -1.846314   -1.831532    1.744108
      2          6           0       -1.247712   -0.751972    1.073766
      3          6           0       -1.402057    0.532277    1.620222
      4          6           0       -2.115971    0.729762    2.804643
      5          6           0       -2.698144   -0.354188    3.468672
      6          6           0       -2.562025   -1.635965    2.930175
      7          6           0       -0.502590   -0.906342   -0.268663
      8          6           0       -1.528581   -0.874933   -1.475131
      9          6           0       -2.086292   -2.294269   -1.559202
     10          6           0       -0.903626   -3.235557   -1.247784
     11          6           0        0.114863   -2.373752   -0.370932
     12          6           0        1.395010   -2.539551   -1.065793
     13          6           0        1.732973   -1.877090   -2.321444
     14          8           0        0.467355    0.074884   -0.435146
     15         26           0        1.889986    0.963547    0.322515
     16         17           0        3.540197    1.041534   -1.244628
     17          6           0        2.394969   -3.419464   -0.444805
     18         17           0        1.340941    3.082542    0.876488
     19         17           0        2.673084   -0.218432    2.090756
     20          1           0       -0.956028    1.388735    1.119339
     21          1           0       -2.213132    1.737994    3.209976
     22          1           0       -3.251889   -0.201662    4.396161
     23          1           0       -3.010851   -2.493931    3.432710
     24          1           0       -1.770848   -2.848434    1.362029
     25          1           0       -0.937007   -0.631173   -2.366135
     26          6           0       -2.602546    0.193807   -1.359053
     27          1           0       -2.516242   -2.507213   -2.545085
     28          1           0       -2.882809   -2.422707   -0.817343
     29          1           0       -0.438754   -3.590055   -2.176771
     30          1           0       -1.190479   -4.128121   -0.681678
     31          1           0        0.204031   -2.801428    0.629958
     32          1           0        1.926223   -4.294863    0.026777
     33          1           0        2.798365   -2.824415    0.402107
     34          1           0        3.214985   -3.703754   -1.109852
     35          1           0        2.310944   -2.538071   -2.980386
     36          1           0        2.439873   -1.065734   -2.024580
     37          1           0        0.897859   -1.405370   -2.839780
     38          8           0       -2.125897    1.402248   -1.692625
     39          8           0       -3.753935   -0.012412   -1.021987
     40          6           0       -3.050775    2.525161   -1.597283
     41          6           0       -2.295186    3.775435   -1.996962
     42          1           0       -3.421649    2.576806   -0.565362
     43          1           0       -3.902282    2.324812   -2.260983
     44          1           0       -2.969787    4.640706   -1.930957
     45          1           0       -1.927580    3.701562   -3.029818
     46          1           0       -1.440501    3.949423   -1.329355
 ---------------------------------------------------------------------
 Rotational constants (GHZ):           0.1946132           0.1554284           0.1379245
 Leave Link  202 at Tue Jun 29 18:21:38 2021, MaxMem=  2147483648 cpu:               0.2 elap:               0.0
 (Enter /SFS/product/gaussian/g16.a03/x86_64/avx/g16/l301.exe)
 Standard basis: Jul-CC-pVDZ (5D, 7F)
 Ernie: Thresh=  0.10000D-02 Tol=  0.10000D-05 Strict=F.
 Ernie:  134 primitive shells out of 958 were deleted.
 There are   766 symmetry adapted cartesian basis functions of A   symmetry.
 There are   710 symmetry adapted basis functions of A   symmetry.
   710 basis functions,  1571 primitive gaussians,   766 cartesian basis functions
   115 alpha electrons      110 beta electrons
       nuclear repulsion energy      3308.4158984217 Hartrees.
 IExCor=  402 DFT=T Ex+Corr=B3LYP ExCW=0 ScaHFX=  0.200000
 ScaDFX=  0.800000  0.720000  1.000000  0.810000 ScalE2=  1.000000  1.000000
 IRadAn=      5 IRanWt=     -1 IRanGd=            0 ICorTp=0 IEmpDi=141
 NAtoms=   46 NActive=   46 NUniq=   46 SFac= 1.00D+00 NAtFMM=   60 NAOKFM=F Big=F
 Integral buffers will be    131072 words long.
 Raffenetti 2 integral format.
 Two-electron integral symmetry is turned on.
 R6Disp:  Grimme-D3(BJ) Dispersion energy=       -0.1170289758 Hartrees.
 Nuclear repulsion after empirical dispersion term =     3308.2988694459 Hartrees.
 ------------------------------------------------------------------------------
 Polarizable Continuum Model (PCM)
 =================================
 Model                : PCM.
 Atomic radii         : UFF (Universal Force Field).
 Polarization charges : Total charges.
 Charge compensation  : None.
 Solution method      : On-the-fly selection.
 Cavity type          : Scaled VdW (van der Waals Surface) (Alpha=1.100).
 Cavity algorithm     : GePol (No added spheres)
                        Default sphere list used, NSphG=   46.
                        Lebedev-Laikov grids with approx.  5.0 points / Ang**2.
                        Smoothing algorithm: York/Karplus (Gamma=1.0000).
                        Polarization charges: spherical gaussians, with
                                              point-specific exponents (IZeta= 3).
                        Self-potential: point-specific (ISelfS= 7).
                        Self-field    : sphere-specific E.n sum rule (ISelfD= 2).
 1st derivatives      : Analytical E(r).r(x)/FMM algorithm (CHGder, D1EAlg=3).
                        Cavity 1st derivative terms included.
 Solvent              : Water, Eps=  78.355300 Eps(inf)=   1.777849
 ------------------------------------------------------------------------------
 GePol: Number of generator spheres                  =      46
 GePol: Total number of spheres                      =      46
 GePol: Number of exposed spheres                    =      46 (100.00%)
 GePol: Number of points                             =    3355
 GePol: Average weight of points                     =       0.14
 GePol: Minimum weight of points                     =   0.33D-10
 GePol: Maximum weight of points                     =    0.21616
 GePol: Number of points with low weight             =     228
 GePol: Fraction of low-weight points (<1% of avg)   =       6.80%
 GePol: Cavity surface area                          =    461.637 Ang**2
 GePol: Cavity volume                                =    522.599 Ang**3
 Leave Link  301 at Tue Jun 29 18:21:38 2021, MaxMem=  2147483648 cpu:               1.3 elap:               0.1
 (Enter /SFS/product/gaussian/g16.a03/x86_64/avx/g16/l302.exe)
 NPDir=0 NMtPBC=     1 NCelOv=     1 NCel=       1 NClECP=     1 NCelD=      1
         NCelK=      1 NCelE2=     1 NClLst=     1 CellRange=     0.0.
 One-electron integrals computed using PRISM.
 One-electron integral symmetry used in STVInt
 NBasis=   710 RedAO= T EigKep=  1.47D-06  NBF=   710
 NBsUse=   710 1.00D-06 EigRej= -1.00D+00 NBFU=   710
 Precomputing XC quadrature grid using
 IXCGrd= 4 IRadAn=           5 IRanWt=          -1 IRanGd=           0 AccXCQ= 0.00D+00.
 Generated NRdTot=       0 NPtTot=           0 NUsed=           0 NTot=          32
 NSgBfM=   765   765   765   765   765 MxSgAt=    46 MxSgA2=    46.
 Leave Link  302 at Tue Jun 29 18:21:39 2021, MaxMem=  2147483648 cpu:              15.8 elap:               1.0
 (Enter /SFS/product/gaussian/g16.a03/x86_64/avx/g16/l303.exe)
 DipDrv:  MaxL=1.
 Leave Link  303 at Tue Jun 29 18:21:39 2021, MaxMem=  2147483648 cpu:               2.4 elap:               0.2
 (Enter /SFS/product/gaussian/g16.a03/x86_64/avx/g16/l401.exe)
 ExpMin= 1.40D-02 ExpMax= 4.32D+06 ExpMxC= 4.91D+03 IAcc=3 IRadAn=         5 AccDes= 0.00D+00
 Harris functional with IExCor=  402 and IRadAn=       5 diagonalized for initial guess.
 HarFok:  IExCor=  402 AccDes= 0.00D+00 IRadAn=         5 IDoV= 1 UseB2=F ITyADJ=14
 ICtDFT=  3500011 ScaDFX=  1.000000  1.000000  1.000000  1.000000
 FoFCou: FMM=F IPFlag=           0 FMFlag=      100000 FMFlg1=           0
         NFxFlg=           0 DoJE=T BraDBF=F KetDBF=T FulRan=T
         wScrn=  0.000000 ICntrl=       500 IOpCl=  0 I1Cent=   200000004 NGrid=           0
         NMat0=    1 NMatS0=      1 NMatT0=    0 NMatD0=    1 NMtDS0=    0 NMtDT0=    0
 Petite list used in FoFCou.
 Harris En= -3531.19816151226    
 JPrj=0 DoOrth=F DoCkMO=F.
 Initial guess <Sx>= 0.0000 <Sy>= 0.0000 <Sz>= 2.5000 <S**2>= 8.7500 S= 2.5000
 Leave Link  401 at Tue Jun 29 18:21:45 2021, MaxMem=  2147483648 cpu:              96.3 elap:               6.1
 (Enter /SFS/product/gaussian/g16.a03/x86_64/avx/g16/l502.exe)
 Integral symmetry usage will be decided dynamically.
 UHF open shell SCF:
 Using DIIS extrapolation, IDIIS=  1040.
 NGot=  2147483648 LenX=  2146290678 LenY=  2145703156
 Requested convergence on RMS density matrix=1.00D-08 within 128 cycles.
 Requested convergence on MAX density matrix=1.00D-06.
 Requested convergence on             energy=1.00D-06.
 No special actions if energy rises.
 Fock matrices will be formed incrementally for  20 cycles.

 Cycle   1  Pass 1  IDiag  1:
 FoFJK:  IHMeth= 1 ICntrl=       0 DoSepK=F KAlg= 0 I1Cent=           0 FoldK=F
 IRaf= 920000000 NMat=       1 IRICut=       1 DoRegI=T DoRafI=F ISym2E= 0 IDoP0=0 IntGTp=1.
 FoFCou: FMM=F IPFlag=           0 FMFlag=      100000 FMFlg1=           0
         NFxFlg=           0 DoJE=F BraDBF=F KetDBF=F FulRan=T
         wScrn=  0.000000 ICntrl=         0 IOpCl=  1 I1Cent=           0 NGrid=           0
         NMat0=    1 NMatS0=      1 NMatT0=    0 NMatD0=    1 NMtDS0=    0 NMtDT0=    0
 Symmetry not used in FoFCou.
 Inv3:  Mode=1 IEnd=    33768075.
 Iteration    1 A*A^-1 deviation from unit magnitude is 6.00D-15 for   3347.
 Iteration    1 A*A^-1 deviation from orthogonality  is 2.23D-15 for   3351   3254.
 Iteration    1 A^-1*A deviation from unit magnitude is 5.55D-15 for   3347.
 Iteration    1 A^-1*A deviation from orthogonality  is 7.90D-11 for   2419   2360.
 E= -3530.50168630628    
 DIIS: error= 2.97D-02 at cycle   1 NSaved=   1.
 NSaved= 1 IEnMin= 1 EnMin= -3530.50168630628     IErMin= 1 ErrMin= 2.97D-02
 ErrMax= 2.97D-02  0.00D+00 EMaxC= 1.00D-01 BMatC= 4.65D+00 BMatP= 4.65D+00
 IDIUse=3 WtCom= 7.03D-01 WtEn= 2.97D-01
 Coeff-Com:  0.100D+01
 Coeff-En:   0.100D+01
 Coeff:      0.100D+01
 Gap=     0.077 Goal=   None    Shift=    0.000
 Gap=     0.378 Goal=   None    Shift=    0.000
 GapD=    0.077 DampG=0.500 DampE=0.250 DampFc=0.1250 IDamp=-1.
 Damping current iteration by 1.25D-01
 RMSDP=3.15D-02 MaxDP=8.70D+00              OVMax= 8.06D-01

 Cycle   2  Pass 1  IDiag  1:
 RMSU=  2.22D-03    CP:  9.56D-01
 E= -3530.83864831587     Delta-E=       -0.336962009589 Rises=F Damp=T
 DIIS: error= 8.37D-03 at cycle   2 NSaved=   2.
 NSaved= 2 IEnMin= 2 EnMin= -3530.83864831587     IErMin= 2 ErrMin= 8.37D-03
 ErrMax= 8.37D-03  0.00D+00 EMaxC= 1.00D-01 BMatC= 1.24D+00 BMatP= 4.65D+00
 IDIUse=3 WtCom= 9.16D-01 WtEn= 8.37D-02
 Coeff-Com: -0.500D+00 0.150D+01
 Coeff-En:   0.000D+00 0.100D+01
 Coeff:     -0.458D+00 0.146D+01
 Gap=     0.338 Goal=   None    Shift=    0.000
 Gap=     0.017 Goal=   None    Shift=    0.000
 RMSDP=2.67D-02 MaxDP=8.70D+00 DE=-3.37D-01 OVMax= 9.92D-01

 Cycle   3  Pass 1  IDiag  1:
 RMSU=  7.59D-03    CP:  6.15D-01  2.81D+00
 E= -3530.54625340162     Delta-E=        0.292394914251 Rises=F Damp=F
 DIIS: error= 4.04D-02 at cycle   3 NSaved=   3.
 NSaved= 3 IEnMin= 2 EnMin= -3530.83864831587     IErMin= 2 ErrMin= 8.37D-03
 ErrMax= 4.04D-02  0.00D+00 EMaxC= 1.00D-01 BMatC= 4.54D+00 BMatP= 1.24D+00
 IDIUse=2 WtCom= 0.00D+00 WtEn= 1.00D+00
 Coeff-En:   0.000D+00 0.660D+00 0.340D+00
 Coeff:      0.000D+00 0.660D+00 0.340D+00
 Gap=    -0.358 Goal=   None    Shift=    0.000
 Gap=    -0.196 Goal=   None    Shift=    0.000
 RMSDP=8.58D-03 MaxDP=1.01D+00 DE= 2.92D-01 OVMax= 8.04D-01

 Cycle   4  Pass 1  IDiag  1:
 RMSU=  5.97D-03    CP:  6.43D-01  3.00D+00  2.80D-01
 E= -3522.86267020615     Delta-E=        7.683583195471 Rises=F Damp=F
 DIIS: error= 1.48D-01 at cycle   4 NSaved=   4.
 NSaved= 4 IEnMin= 2 EnMin= -3530.83864831587     IErMin= 2 ErrMin= 8.37D-03
 ErrMax= 1.48D-01  0.00D+00 EMaxC= 1.00D-01 BMatC= 4.73D+01 BMatP= 1.24D+00
 IDIUse=2 WtCom= 0.00D+00 WtEn= 1.00D+00
 EnCoef did   100 forward-backward iterations
 Coeff-En:   0.261D+00 0.359D-01 0.527D+00 0.176D+00
 Coeff:      0.261D+00 0.359D-01 0.527D+00 0.176D+00
 Gap=     0.134 Goal=   None    Shift=    0.000
 Gap=     0.044 Goal=   None    Shift=    0.000
 RMSDP=6.54D-03 MaxDP=6.75D-01 DE= 7.68D+00 OVMax= 9.30D-01

 Cycle   5  Pass 1  IDiag  1:
 RMSU=  4.31D-03    CP:  6.61D-01  2.70D+00  5.78D-01  4.35D-01
 E= -3530.73498372702     Delta-E=       -7.872313520872 Rises=F Damp=F
 DIIS: error= 4.07D-02 at cycle   5 NSaved=   5.
 NSaved= 5 IEnMin= 2 EnMin= -3530.83864831587     IErMin= 2 ErrMin= 8.37D-03
 ErrMax= 4.07D-02  0.00D+00 EMaxC= 1.00D-01 BMatC= 5.38D+00 BMatP= 1.24D+00
 IDIUse=2 WtCom= 0.00D+00 WtEn= 1.00D+00
 Coeff-En:   0.000D+00 0.000D+00 0.466D+00 0.000D+00 0.534D+00
 Coeff:      0.000D+00 0.000D+00 0.466D+00 0.000D+00 0.534D+00
 Gap=     0.071 Goal=   None    Shift=    0.000
 Gap=     0.093 Goal=   None    Shift=    0.000
 RMSDP=3.91D-03 MaxDP=4.08D-01 DE=-7.87D+00 OVMax= 3.23D-01

 Cycle   6  Pass 1  IDiag  1:
 RMSU=  3.19D-03    CP:  6.64D-01  2.40D+00  6.08D-01  2.93D-01  5.46D-01
 E= -3531.46772807238     Delta-E=       -0.732744345361 Rises=F Damp=F
 DIIS: error= 1.12D-02 at cycle   6 NSaved=   6.
 NSaved= 6 IEnMin= 6 EnMin= -3531.46772807238     IErMin= 2 ErrMin= 8.37D-03
 ErrMax= 1.12D-02  0.00D+00 EMaxC= 1.00D-01 BMatC= 4.50D-01 BMatP= 1.24D+00
 IDIUse=3 WtCom= 8.88D-01 WtEn= 1.12D-01
 Coeff-Com: -0.334D+00 0.561D+00 0.214D+00-0.142D-03 0.125D+00 0.435D+00
 Coeff-En:   0.000D+00 0.000D+00 0.000D+00 0.000D+00 0.136D+00 0.864D+00
 Coeff:     -0.297D+00 0.498D+00 0.190D+00-0.126D-03 0.126D+00 0.483D+00
 Gap=     0.118 Goal=   None    Shift=    0.000
 Gap=     0.155 Goal=   None    Shift=    0.000
 RMSDP=2.80D-03 MaxDP=5.17D-01 DE=-7.33D-01 OVMax= 1.17D-01

 Cycle   7  Pass 1  IDiag  1:
 RMSU=  1.52D-03    CP:  6.48D-01  2.51D+00  6.48D-01  3.52D-01  7.18D-01
                    CP:  4.31D-01
 E= -3531.51545770022     Delta-E=       -0.047729627843 Rises=F Damp=F
 DIIS: error= 5.35D-03 at cycle   7 NSaved=   7.
 NSaved= 7 IEnMin= 7 EnMin= -3531.51545770022     IErMin= 7 ErrMin= 5.35D-03
 ErrMax= 5.35D-03  0.00D+00 EMaxC= 1.00D-01 BMatC= 1.85D-01 BMatP= 4.50D-01
 IDIUse=3 WtCom= 9.46D-01 WtEn= 5.35D-02
 Coeff-Com: -0.120D+00 0.170D+00 0.324D-01 0.703D-02-0.563D-01 0.347D+00
 Coeff-Com:  0.619D+00
 Coeff-En:   0.000D+00 0.000D+00 0.000D+00 0.000D+00 0.000D+00 0.353D+00
 Coeff-En:   0.647D+00
 Coeff:     -0.113D+00 0.161D+00 0.306D-01 0.666D-02-0.533D-01 0.347D+00
 Coeff:      0.621D+00
 Gap=     0.116 Goal=   None    Shift=    0.000
 Gap=     0.142 Goal=   None    Shift=    0.000
 RMSDP=1.29D-03 MaxDP=1.38D-01 DE=-4.77D-02 OVMax= 8.88D-02

 Cycle   8  Pass 1  IDiag  1:
 RMSU=  8.25D-04    CP:  6.49D-01  2.45D+00  6.33D-01  3.41D-01  6.60D-01
                    CP:  7.11D-01  8.10D-01
 E= -3531.55545243118     Delta-E=       -0.039994730954 Rises=F Damp=F
 DIIS: error= 2.72D-03 at cycle   8 NSaved=   8.
 NSaved= 8 IEnMin= 8 EnMin= -3531.55545243118     IErMin= 8 ErrMin= 2.72D-03
 ErrMax= 2.72D-03  0.00D+00 EMaxC= 1.00D-01 BMatC= 2.45D-02 BMatP= 1.85D-01
 IDIUse=3 WtCom= 9.73D-01 WtEn= 2.72D-02
 Coeff-Com: -0.489D-01 0.666D-01-0.730D-03 0.555D-02-0.307D-01 0.131D+00
 Coeff-Com:  0.349D+00 0.528D+00
 Coeff-En:   0.000D+00 0.000D+00 0.000D+00 0.000D+00 0.000D+00 0.000D+00
 Coeff-En:   0.697D-01 0.930D+00
 Coeff:     -0.476D-01 0.648D-01-0.710D-03 0.540D-02-0.299D-01 0.128D+00
 Coeff:      0.341D+00 0.539D+00
 Gap=     0.116 Goal=   None    Shift=    0.000
 Gap=     0.121 Goal=   None    Shift=    0.000
 RMSDP=4.73D-04 MaxDP=9.50D-02 DE=-4.00D-02 OVMax= 1.86D-02

 Cycle   9  Pass 1  IDiag  1:
 RMSU=  3.68D-04    CP:  6.49D-01  2.45D+00  6.25D-01  3.43D-01  6.49D-01
                    CP:  7.37D-01  9.45D-01  7.80D-01
 E= -3531.55872898509     Delta-E=       -0.003276553910 Rises=F Damp=F
 DIIS: error= 2.05D-03 at cycle   9 NSaved=   9.
 NSaved= 9 IEnMin= 9 EnMin= -3531.55872898509     IErMin= 9 ErrMin= 2.05D-03
 ErrMax= 2.05D-03  0.00D+00 EMaxC= 1.00D-01 BMatC= 1.03D-02 BMatP= 2.45D-02
 IDIUse=3 WtCom= 9.80D-01 WtEn= 2.05D-02
 Coeff-Com: -0.665D-02 0.753D-02-0.123D-01 0.133D-02 0.220D-01-0.816D-01
 Coeff-Com: -0.619D-01 0.248D+00 0.884D+00
 Coeff-En:   0.000D+00 0.000D+00 0.000D+00 0.000D+00 0.000D+00 0.000D+00
 Coeff-En:   0.000D+00 0.000D+00 0.100D+01
 Coeff:     -0.651D-02 0.738D-02-0.121D-01 0.130D-02 0.215D-01-0.799D-01
 Coeff:     -0.607D-01 0.243D+00 0.886D+00
 Gap=     0.121 Goal=   None    Shift=    0.000
 Gap=     0.120 Goal=   None    Shift=    0.000
 RMSDP=2.80D-04 MaxDP=4.52D-02 DE=-3.28D-03 OVMax= 9.65D-03

 Cycle  10  Pass 1  IDiag  1:
 RMSU=  2.05D-04    CP:  6.50D-01  2.47D+00  6.15D-01  3.49D-01  6.64D-01
                    CP:  7.28D-01  9.80D-01  8.79D-01  1.27D+00
 E= -3531.56052859584     Delta-E=       -0.001799610753 Rises=F Damp=F
 DIIS: error= 2.44D-04 at cycle  10 NSaved=  10.
 NSaved=10 IEnMin=10 EnMin= -3531.56052859584     IErMin=10 ErrMin= 2.44D-04
 ErrMax= 2.44D-04  0.00D+00 EMaxC= 1.00D-01 BMatC= 6.22D-04 BMatP= 1.03D-02
 IDIUse=3 WtCom= 9.98D-01 WtEn= 2.44D-03
 Coeff-Com:  0.776D-02-0.114D-01-0.789D-02 0.166D-03 0.139D-01-0.517D-01
 Coeff-Com: -0.534D-01 0.372D-01 0.419D+00 0.646D+00
 Coeff-En:   0.000D+00 0.000D+00 0.000D+00 0.000D+00 0.000D+00 0.000D+00
 Coeff-En:   0.000D+00 0.000D+00 0.000D+00 0.100D+01
 Coeff:      0.774D-02-0.114D-01-0.788D-02 0.166D-03 0.139D-01-0.516D-01
 Coeff:     -0.533D-01 0.371D-01 0.418D+00 0.647D+00
 Gap=     0.121 Goal=   None    Shift=    0.000
 Gap=     0.119 Goal=   None    Shift=    0.000
 RMSDP=8.67D-05 MaxDP=1.54D-02 DE=-1.80D-03 OVMax= 4.42D-03

 Cycle  11  Pass 1  IDiag  1:
 RMSU=  6.99D-05    CP:  6.50D-01  2.48D+00  6.14D-01  3.50D-01  6.67D-01
                    CP:  7.33D-01  9.70D-01  9.24D-01  1.32D+00  9.71D-01
 E= -3531.56059178255     Delta-E=       -0.000063186708 Rises=F Damp=F
 DIIS: error= 1.23D-04 at cycle  11 NSaved=  11.
 NSaved=11 IEnMin=11 EnMin= -3531.56059178255     IErMin=11 ErrMin= 1.23D-04
 ErrMax= 1.23D-04  0.00D+00 EMaxC= 1.00D-01 BMatC= 3.08D-04 BMatP= 6.22D-04
 IDIUse=3 WtCom= 9.99D-01 WtEn= 1.23D-03
 Coeff-Com:  0.472D-02-0.577D-02-0.234D-02 0.355D-04 0.117D-02-0.596D-02
 Coeff-Com:  0.983D-02-0.297D-02 0.765D-01 0.418D+00 0.506D+00
 Coeff-En:   0.000D+00 0.000D+00 0.000D+00 0.000D+00 0.000D+00 0.000D+00
 Coeff-En:   0.000D+00 0.000D+00 0.000D+00 0.338D+00 0.662D+00
 Coeff:      0.472D-02-0.577D-02-0.233D-02 0.354D-04 0.117D-02-0.595D-02
 Coeff:      0.982D-02-0.296D-02 0.764D-01 0.418D+00 0.507D+00
 Gap=     0.121 Goal=   None    Shift=    0.000
 Gap=     0.120 Goal=   None    Shift=    0.000
 RMSDP=5.38D-05 MaxDP=1.19D-02 DE=-6.32D-05 OVMax= 2.58D-03

 Cycle  12  Pass 1  IDiag  1:
 RMSU=  3.00D-05    CP:  6.50D-01  2.47D+00  6.15D-01  3.49D-01  6.65D-01
                    CP:  7.29D-01  9.82D-01  8.91D-01  1.32D+00  9.36D-01
                    CP:  7.14D-01
 E= -3531.56065474603     Delta-E=       -0.000062963487 Rises=F Damp=F
 DIIS: error= 5.54D-05 at cycle  12 NSaved=  12.
 NSaved=12 IEnMin=12 EnMin= -3531.56065474603     IErMin=12 ErrMin= 5.54D-05
 ErrMax= 5.54D-05  0.00D+00 EMaxC= 1.00D-01 BMatC= 2.67D-05 BMatP= 3.08D-04
 IDIUse=1 WtCom= 1.00D+00 WtEn= 0.00D+00
 Coeff-Com:  0.181D-02-0.183D-02-0.602D-03 0.442D-05-0.842D-03 0.176D-02
 Coeff-Com:  0.126D-01-0.519D-02-0.434D-02 0.166D+00 0.291D+00 0.539D+00
 Coeff:      0.181D-02-0.183D-02-0.602D-03 0.442D-05-0.842D-03 0.176D-02
 Coeff:      0.126D-01-0.519D-02-0.434D-02 0.166D+00 0.291D+00 0.539D+00
 Gap=     0.121 Goal=   None    Shift=    0.000
 Gap=     0.120 Goal=   None    Shift=    0.000
 RMSDP=2.18D-05 MaxDP=4.66D-03 DE=-6.30D-05 OVMax= 8.58D-04

 Cycle  13  Pass 1  IDiag  1:
 RMSU=  1.46D-05    CP:  6.50D-01  2.47D+00  6.15D-01  3.50D-01  6.66D-01
                    CP:  7.27D-01  9.80D-01  8.88D-01  1.31D+00  9.62D-01
                    CP:  7.57D-01  7.87D-01
 E= -3531.56066113413     Delta-E=       -0.000006388093 Rises=F Damp=F
 DIIS: error= 1.35D-05 at cycle  13 NSaved=  13.
 NSaved=13 IEnMin=13 EnMin= -3531.56066113413     IErMin=13 ErrMin= 1.35D-05
 ErrMax= 1.35D-05  0.00D+00 EMaxC= 1.00D-01 BMatC= 2.36D-06 BMatP= 2.67D-05
 IDIUse=1 WtCom= 1.00D+00 WtEn= 0.00D+00
 Coeff-Com:  0.223D-03-0.148D-03 0.334D-04-0.133D-04-0.361D-03 0.116D-02
 Coeff-Com:  0.297D-02-0.157D-02-0.131D-01 0.641D-03 0.302D-01 0.233D+00
 Coeff-Com:  0.747D+00
 Coeff:      0.223D-03-0.148D-03 0.334D-04-0.133D-04-0.361D-03 0.116D-02
 Coeff:      0.297D-02-0.157D-02-0.131D-01 0.641D-03 0.302D-01 0.233D+00
 Coeff:      0.747D+00
 Gap=     0.121 Goal=   None    Shift=    0.000
 Gap=     0.120 Goal=   None    Shift=    0.000
 RMSDP=7.40D-06 MaxDP=1.12D-03 DE=-6.39D-06 OVMax= 3.10D-04

 Cycle  14  Pass 1  IDiag  1:
 RMSU=  5.29D-06    CP:  6.50D-01  2.47D+00  6.15D-01  3.50D-01  6.67D-01
                    CP:  7.27D-01  9.80D-01  8.91D-01  1.31D+00  9.72D-01
                    CP:  7.78D-01  8.53D-01  1.07D+00
 E= -3531.56066182439     Delta-E=       -0.000000690268 Rises=F Damp=F
 DIIS: error= 1.14D-05 at cycle  14 NSaved=  14.
 NSaved=14 IEnMin=14 EnMin= -3531.56066182439     IErMin=14 ErrMin= 1.14D-05
 ErrMax= 1.14D-05  0.00D+00 EMaxC= 1.00D-01 BMatC= 9.68D-07 BMatP= 2.36D-06
 IDIUse=1 WtCom= 1.00D+00 WtEn= 0.00D+00
 Coeff-Com: -0.306D-03 0.356D-03 0.166D-03-0.119D-04 0.110D-03-0.322D-03
 Coeff-Com: -0.279D-02 0.804D-03-0.287D-02-0.453D-01-0.730D-01-0.663D-02
 Coeff-Com:  0.431D+00 0.699D+00
 Coeff:     -0.306D-03 0.356D-03 0.166D-03-0.119D-04 0.110D-03-0.322D-03
 Coeff:     -0.279D-02 0.804D-03-0.287D-02-0.453D-01-0.730D-01-0.663D-02
 Coeff:      0.431D+00 0.699D+00
 Gap=     0.121 Goal=   None    Shift=    0.000
 Gap=     0.120 Goal=   None    Shift=    0.000
 RMSDP=4.41D-06 MaxDP=6.07D-04 DE=-6.90D-07 OVMax= 2.64D-04

 Cycle  15  Pass 1  IDiag  1:
 RMSU=  2.51D-06    CP:  6.50D-01  2.47D+00  6.15D-01  3.50D-01  6.67D-01
                    CP:  7.27D-01  9.80D-01  8.91D-01  1.32D+00  9.69D-01
                    CP:  7.90D-01  9.08D-01  1.21D+00  1.00D+00
 E= -3531.56066210287     Delta-E=       -0.000000278475 Rises=F Damp=F
 DIIS: error= 9.15D-06 at cycle  15 NSaved=  15.
 NSaved=15 IEnMin=15 EnMin= -3531.56066210287     IErMin=15 ErrMin= 9.15D-06
 ErrMax= 9.15D-06  0.00D+00 EMaxC= 1.00D-01 BMatC= 3.09D-07 BMatP= 9.68D-07
 IDIUse=1 WtCom= 1.00D+00 WtEn= 0.00D+00
 Coeff-Com: -0.977D-04 0.826D-04 0.660D-04-0.379D-05 0.100D-03-0.377D-03
 Coeff-Com: -0.196D-02 0.870D-03 0.190D-02-0.218D-01-0.441D-01-0.316D-01
 Coeff-Com:  0.103D+00 0.344D+00 0.649D+00
 Coeff:     -0.977D-04 0.826D-04 0.660D-04-0.379D-05 0.100D-03-0.377D-03
 Coeff:     -0.196D-02 0.870D-03 0.190D-02-0.218D-01-0.441D-01-0.316D-01
 Coeff:      0.103D+00 0.344D+00 0.649D+00
 Gap=     0.121 Goal=   None    Shift=    0.000
 Gap=     0.120 Goal=   None    Shift=    0.000
 RMSDP=1.63D-06 MaxDP=3.16D-04 DE=-2.78D-07 OVMax= 6.92D-05

 Cycle  16  Pass 1  IDiag  1:
 RMSU=  1.08D-06    CP:  6.50D-01  2.47D+00  6.15D-01  3.50D-01  6.67D-01
                    CP:  7.27D-01  9.80D-01  8.92D-01  1.32D+00  9.69D-01
                    CP:  7.88D-01  9.28D-01  1.27D+00  1.07D+00  1.01D+00
 E= -3531.56066217000     Delta-E=       -0.000000067134 Rises=F Damp=F
 DIIS: error= 2.65D-06 at cycle  16 NSaved=  16.
 NSaved=16 IEnMin=16 EnMin= -3531.56066217000     IErMin=16 ErrMin= 2.65D-06
 ErrMax= 2.65D-06  0.00D+00 EMaxC= 1.00D-01 BMatC= 2.63D-08 BMatP= 3.09D-07
 IDIUse=1 WtCom= 1.00D+00 WtEn= 0.00D+00
 Coeff-Com: -0.154D-04 0.297D-04 0.984D-05-0.944D-06 0.209D-04-0.165D-03
 Coeff-Com: -0.416D-03 0.326D-03 0.209D-02-0.720D-03-0.744D-02-0.141D-01
 Coeff-Com: -0.510D-01 0.138D-01 0.323D+00 0.735D+00
 Coeff:     -0.154D-04 0.297D-04 0.984D-05-0.944D-06 0.209D-04-0.165D-03
 Coeff:     -0.416D-03 0.326D-03 0.209D-02-0.720D-03-0.744D-02-0.141D-01
 Coeff:     -0.510D-01 0.138D-01 0.323D+00 0.735D+00
 Gap=     0.121 Goal=   None    Shift=    0.000
 Gap=     0.120 Goal=   None    Shift=    0.000
 RMSDP=9.25D-07 MaxDP=1.57D-04 DE=-6.71D-08 OVMax= 3.62D-05

 Cycle  17  Pass 1  IDiag  1:
 RMSU=  6.16D-07    CP:  6.50D-01  2.47D+00  6.15D-01  3.50D-01  6.67D-01
                    CP:  7.27D-01  9.80D-01  8.92D-01  1.32D+00  9.69D-01
                    CP:  7.92D-01  9.33D-01  1.28D+00  1.11D+00  1.08D+00
                    CP:  8.05D-01
 E= -3531.56066217720     Delta-E=       -0.000000007200 Rises=F Damp=F
 DIIS: error= 4.56D-07 at cycle  17 NSaved=  17.
 NSaved=17 IEnMin=17 EnMin= -3531.56066217720     IErMin=17 ErrMin= 4.56D-07
 ErrMax= 4.56D-07  0.00D+00 EMaxC= 1.00D-01 BMatC= 3.14D-09 BMatP= 2.63D-08
 IDIUse=1 WtCom= 1.00D+00 WtEn= 0.00D+00
 Coeff-Com:  0.165D-04-0.145D-04-0.592D-05-0.193D-06 0.673D-05-0.604D-04
 Coeff-Com: -0.364D-04 0.975D-04 0.966D-03 0.181D-02 0.555D-03-0.437D-02
 Coeff-Com: -0.380D-01-0.308D-01 0.928D-01 0.393D+00 0.584D+00
 Coeff:      0.165D-04-0.145D-04-0.592D-05-0.193D-06 0.673D-05-0.604D-04
 Coeff:     -0.364D-04 0.975D-04 0.966D-03 0.181D-02 0.555D-03-0.437D-02
 Coeff:     -0.380D-01-0.308D-01 0.928D-01 0.393D+00 0.584D+00
 Gap=     0.121 Goal=   None    Shift=    0.000
 Gap=     0.120 Goal=   None    Shift=    0.000
 RMSDP=3.00D-07 MaxDP=6.64D-05 DE=-7.20D-09 OVMax= 1.05D-05

 Cycle  18  Pass 1  IDiag  1:
 RMSU=  1.43D-07    CP:  6.50D-01  2.47D+00  6.15D-01  3.50D-01  6.67D-01
                    CP:  7.27D-01  9.80D-01  8.92D-01  1.32D+00  9.69D-01
                    CP:  7.92D-01  9.34D-01  1.29D+00  1.12D+00  1.12D+00
                    CP:  9.18D-01  8.07D-01
 E= -3531.56066217816     Delta-E=       -0.000000000957 Rises=F Damp=F
[...]
 00003064,-0.00005204,0.00001772,-0.00303567,-0.00539168,-0.00139283,0.
 00000293,0.00003328,-0.00001614,0.00000563,-0.00000946,0.00000262,-0.0
 0001050,0.00000637,-0.00000626,-0.00003984,0.00002388,0.00001666,-0.00
 001379,0.00002763,0.00000063,0.00000209,-0.00000135,-0.00000640,-0.000
 00083,0.00000469,-0.00000672,-0.00000400,0.00000518,-0.00000048,-0.000
 00110,0.00000346,-0.00000023,0.00000698,0.00000425,0.00000229,0.000008
 47,0.00000231,0.00001796,-0.02083169,0.01458432,0.01141123,0.00230478,
 0.00101982,0.00075599,-0.17552177,-0.01187512,0.12896099,-0.01035014,-
 0.00188897,0.01173920,0.01035124,-0.00069736,-0.00885632,0.19665548,0.
 00001352,0.00002056,0.00000200,0.00008506,0.00003636,0.00006403,-0.000
 03091,0.00001722,-0.00002636,0.00002045,-0.00000935,0.00001998,-0.0000
 1835,-0.00001591,-0.00001833,-0.00001019,0.00000772,-0.00001481,-0.000
 36632,0.00009800,0.00018359,-0.00051181,-0.00052221,0.00098344,0.00027
 877,-0.00003515,0.00006062,-0.00011266,-0.00007561,0.00003062,0.000075
 13,0.00007688,-0.00003444,-0.00011687,0.00000205,-0.00004306,0.0000241
 7,0.00001138,0.00002684,0.00034091,-0.00001500,-0.00019098,-0.00019674
 ,-0.00015530,0.00011532,0.00004035,0.00001261,0.00002918,0.00002796,-0
 .00000154,-0.00002010,-0.00006115,0.00009166,0.00000652,0.00001918,-0.
 00001746,-0.00003224,0.00000202,-0.00008244,0.00002788,-0.00000353,0.0
 0000650,-0.00000643,-0.00000515,-0.00000044,-0.00000586,-0.00000491,-0
 .00000310,-0.00000724,0.,-0.00000338,0.00001048,0.00009537,-0.00006023
 ,-0.00000562,0.00552097,0.00468382,0.00079170,-0.00000655,-0.00003692,
 0.00001434,-0.00001792,0.00000798,-0.00001239,0.00000539,-0.00000378,0
 .00001032,0.00005301,-0.00002587,-0.00002376,0.00001174,-0.00002803,0.
 00000042,-0.00000296,0.00000108,0.00000777,0.00000109,-0.00000628,0.00
 000801,0.00000469,-0.00000575,0.00000066,0.00000405,-0.00000464,-0.000
 00082,-0.00000753,-0.00000842,-0.00000178,-0.00002054,-0.00000777,-0.0
 0001770,0.02691545,-0.01329530,-0.01880130,-0.00242886,-0.00029425,-0.
 00124459,-0.01511723,-0.04634654,0.01354921,-0.01996565,-0.00038335,0.
 02041043,0.00160301,0.00157621,-0.00351293,0.00583716,0.05752347,-0.00
 002091,-0.00002517,-0.00000247,-0.00002303,0.00008625,-0.00006645,0.00
 007806,-0.00000236,0.00004437,0.00004940,-0.00004867,0.00001635,0.0000
 1242,0.00003029,0.00001288,0.00000058,-0.00003557,0.00000592,-0.000028
 32,-0.00004837,0.00006933,0.00009803,-0.00002331,-0.00047244,-0.000011
 28,0.00001045,-0.00002440,0.00001015,0.00001598,-0.00000111,0.00002695
 ,-0.00000837,0.00000147,-0.00001098,-0.00000779,-0.00001155,-0.0000024
 9,0.00000020,-0.00000051,0.00004324,-0.00000234,0.00000329,-0.00004946
 ,-0.00000587,0.00000902,0.00000785,0.00000110,0.00000494,0.00000759,0.
 00000259,-0.00000108,0.00001388,0.00000654,-0.00000339,0.00000376,-0.0
 0000367,-0.00000229,-0.00013089,0.00001440,0.00006576,-0.00000308,-0.0
 0000050,0.00000793,-0.00000626,-0.00000373,-0.00000658,-0.00000166,-0.
 00000408,-0.00000183,-0.00000423,-0.00000886,-0.00000287,-0.00008254,0
 .00001139,-0.00002146,0.00099377,0.00097333,0.00074784,0.00000081,-0.0
 0000054,0.00000753,0.00000760,-0.00000298,-0.00000247,-0.00000075,-0.0
 0000123,0.00000014,-0.00000356,-0.00000124,0.00000169,0.00000079,-0.00
 000428,0.00000125,-0.00000086,0.00000055,0.00000177,0.00000068,-0.0000
 0096,0.00000017,0.00000124,-0.00000088,-0.00000040,-0.00000066,0.00000
 022,0.00000127,-0.00000164,-0.00000082,-0.00000048,-0.00000064,0.00000
 132,0.00000131,-0.00688349,-0.00080783,0.00860842,-0.00078079,0.000754
 86,0.00020257,0.13254219,0.00859271,-0.18799029,-0.00348123,-0.0006539
 9,0.00287765,0.02029221,0.00174826,-0.01877297,-0.14217646,-0.01088687
 ,0.19230298,0.00000188,0.00000925,-0.00000733,0.00002771,0.00000322,0.
 00003079,-0.00003336,-0.00004081,-0.00003570,-0.00001520,0.00003117,0.
 00001873,0.00001131,-0.00000585,-0.00000588,-0.00000377,0.00000557,0.0
 0000215,-0.00007961,-0.00005432,0.00005581,-0.00018115,-0.00033033,-0.
 00013778,0.00012569,-0.00001874,-0.00000733,-0.00001933,-0.00004265,-0
 .00000356,0.00002454,0.00000517,-0.00001537,-0.00002980,-0.00000468,-0
 .00001192,0.00000940,0.00000591,0.00000548,0.00005272,0.00005817,-0.00
 001287,0.00000976,-0.00005996,0.00001274,-0.00000056,0.00000025,0.0000
 0044,0.00000653,-0.00000117,-0.00000349,-0.00008582,0.00004444,0.00005
 207,-0.00000116,0.00000638,0.00000301,0.00004493,-0.00004842,-0.000044
 76,-0.00000046,-0.00000173,0.00000087,0.00000122,0.00000248,0.00000163
 ,-0.00000077,0.00000036,-0.00000030,0.00000186,0.00000430,0.00000402,-
 0.00001499,0.00001011,-0.00000127,0.00165892,-0.00040650,0.00040587,-0
 .00000071,-0.00000638,0.00000467,-0.00000353,0.00000160,-0.00000456,0.
 00000447,-0.00000246,0.00000202,0.00001841,-0.00001123,-0.00000606,0.0
 0000541,-0.00000907,-0.00000036,-0.00000049,0.00000063,0.00000177,0.00
 000038,-0.00000218,0.00000167,0.00000101,-0.00000128,0.00000017,-0.000
 00043,-0.00000062,0.00000048,-0.00000144,-0.00000457,0.00000108,-0.000
 00504,-0.00000201,-0.00000327,-0.00100658,-0.00569952,-0.00023069,-0.0
 0041513,0.00014252,-0.00007093,0.01029768,-0.01249750,0.00302362,-0.14
 317387,0.12760149,-0.02364677,0.00050614,0.00066160,-0.00018918,0.0004
 2848,0.00076845,0.00024944,0.15194669,0.00000818,0.00000868,-0.0000003
 7,0.00004775,0.00001511,0.00001802,0.00002566,0.00004522,0.00000611,0.
 00001548,-0.00001544,0.00002263,-0.00001489,-0.00000156,-0.00001216,-0
 .00000689,-0.00000089,-0.00000659,-0.00019004,-0.00009871,0.00014714,-
 0.00029734,-0.00041050,-0.00024928,0.00022848,0.00001555,-0.00001165,-
 0.00004145,-0.00007113,0.00000393,0.00007911,0.00002139,-0.00003880,-0
 .00009134,-0.00000582,-0.00003737,0.00001880,0.00001152,0.00001903,0.0
 0019443,0.00005962,-0.00008320,-0.00013018,-0.00006201,0.00006384,0.00
 002578,0.00001486,0.00002023,0.00002487,-0.00000075,-0.00001608,0.0000
 0572,0.00002508,-0.00001731,0.00001239,-0.00001171,-0.00002020,-0.0000
 6609,-0.00001643,0.00004315,-0.00000140,0.00000713,-0.00000440,-0.0000
 0350,-0.00000127,-0.00000645,-0.00000328,-0.00000319,-0.00000556,-0.00
 000014,-0.00000223,0.00000640,-0.00000495,0.00000607,-0.00000345,0.002
 68490,0.00155954,0.00117959,-0.00000145,-0.00001752,0.00001271,-0.0000
 0611,0.00001109,-0.00000573,0.00001040,-0.00000758,0.00000622,0.000036
 40,-0.00002336,-0.00001454,0.00001424,-0.00002732,-0.00000060,-0.00000
 160,0.00000161,0.00000667,0.00000137,-0.00000532,0.00000649,0.00000389
 ,-0.00000473,0.00000062,0.00000084,-0.00000281,0.00000021,-0.00000615,
 -0.00000593,-0.00000027,-0.00001247,-0.00000295,-0.00001197,-0.0039759
 3,-0.00826982,-0.00081648,-0.00120724,-0.00032474,-0.00035488,0.019394
 81,-0.01693684,0.00424309,0.12416091,-0.21083180,0.03018444,0.00002792
 ,0.00072271,-0.00057818,-0.00019629,0.00078101,0.00048402,-0.13673301,
 0.23034984,0.00000255,-0.00000505,0.00000375,-0.00001460,-0.00001624,-
 0.00001943,0.00006032,0.00004634,0.00002712,-0.00000776,-0.00002822,0.
 00000079,-0.00000630,0.00000400,-0.00000741,-0.00000183,-0.00000529,-0
 .00000298,0.00000529,-0.00001518,0.00000220,0.00002692,-0.00000134,-0.
 00009920,0.00000318,-0.00000317,-0.00001361,0.00000225,0.00000033,0.00
 000041,0.00001086,-0.00000657,-0.00000243,-0.00001015,-0.00000223,-0.0
 0000430,0.00000293,-0.00000006,0.00000027,0.00002347,-0.00001199,-0.00
 000189,-0.00003312,0.00001792,-0.00000385,0.00001071,-0.00000269,0.000
 00582,0.00000391,0.00000131,-0.00000203,0.00006391,-0.00002289,-0.0000
 3987,0.00000402,-0.00000728,-0.00000660,-0.00006207,0.00004765,0.00004
 788,0.00000229,0.00000260,-0.00000346,-0.00000290,-0.00000296,-0.00000
 363,-0.00000044,-0.00000088,-0.00000120,-0.00000179,-0.00000434,-0.000
 00110,-0.00001387,0.00001102,-0.00000055,0.00012830,0.00001954,0.00050
 250,-0.00000071,0.00000077,0.00000150,0.00000149,0.00000038,-0.0000010
 4,-0.00000008,-0.00000086,0.00000054,0.00000073,-0.00000130,-0.0000014
 3,0.00000110,-0.00000314,-0.00000010,-0.00000025,0.00000031,0.00000117
 ,0.00000053,-0.00000026,0.00000052,0.00000053,-0.00000051,-0.00000006,
 0.00000017,-0.00000090,0.00000126,-0.00000083,0.00000050,-0.00000075,-
 0.00000152,-0.00000261,-0.00000058,-0.00020961,-0.00079139,0.00106425,
 -0.00005410,0.00002797,-0.00010082,0.00140350,-0.00161626,-0.00192101,
 -0.02348438,0.03085662,-0.05095785,0.00014211,0.00033925,0.00010161,-0
 .00000115,-0.00013917,0.00010383,0.02594180,-0.03344609,0.05039212,-0.
 00000176,0.00000854,-0.00001422,0.00002237,0.00001924,0.00002702,-0.00
 000512,-0.00000408,-0.00002304,-0.00000632,0.00001199,0.00002664,0.000
 02608,0.00000303,-0.00001198,-0.00001099,0.00000139,0.00001488,-0.0000
 5454,-0.00003205,0.00004584,-0.00000779,-0.00003150,-0.00007880,0.0000
 4261,0.00001629,-0.00000956,-0.00001151,-0.00001058,0.00000549,0.00002
 292,0.00000670,-0.00001074,-0.00002534,-0.00000190,-0.00001207,0.00000
 344,0.00000458,0.00000759,0.00006241,0.00002603,-0.00003846,-0.0000277
 4,-0.00004147,0.00002735,0.00000513,0.00000321,0.00000312,0.00000701,-
 0.00000006,-0.00000482,-0.00004234,0.00003162,-0.00000401,0.00000421,-
 0.00000179,-0.00000556,0.00001576,-0.00008667,-0.00003442,-0.00000491,
 -0.00000081,0.00000168,0.00000016,0.00000117,-0.00000174,-0.00000068,-
 0.00000049,-0.00000117,0.00000103,0.00000118,0.00000285,-0.00000227,-0
 .00000625,-0.00000047,-0.00001463,0.00049155,0.00014553,-0.00000052,-0
 .00000401,0.00000357,0.00000026,0.00000568,0.00000030,0.00000383,-0.00
 000263,0.00000148,0.00000929,-0.00000669,-0.00000367,0.00000449,-0.000
 00903,-0.00000117,-0.00000068,0.00000031,0.00000183,0.00000027,-0.0000
 0142,0.00000174,0.00000120,-0.00000159,0.00000023,0.00000085,-0.000000
 90,-0.00000114,-0.00000079,-0.00000230,0.00000028,-0.00000484,-0.00000
 024,-0.00000401,0.00093966,0.00047340,0.00094542,0.00002857,-0.0003772
 2,0.00007357,-0.00955435,-0.00009663,-0.01807289,-0.09364536,-0.009316
 45,-0.09916966,-0.00065585,-0.00347371,0.00042118,0.00043547,0.0006809
 6,0.00002107,-0.00777376,-0.00273162,-0.01633022,0.09940004,0.00000006
 ,-0.00000575,-0.00000509,-0.00000611,0.00002450,-0.00001051,0.00003517
 ,0.00000006,-0.00000704,0.00000888,-0.00001778,0.00000856,0.00000889,0
 .00001031,-0.00000417,-0.00000533,-0.00001008,0.00000630,-0.00002137,-
 0.00000307,-0.00000058,0.00001539,0.00006223,0.00001500,0.00000196,0.0
 0001333,-0.00000638,-0.00000148,0.00000156,0.00000597,0.00000822,0.000
 00400,0.00000134,-0.00001106,-0.00000210,-0.00000585,0.00000353,0.0000
 0137,0.00000270,0.00002194,0.00001037,0.00000779,-0.00001946,-0.000006
 00,-0.00000101,0.00000143,0.00000167,0.00000456,0.00000242,0.00000051,
 -0.00000071,-0.00000250,0.00000099,0.00000408,0.00000086,0.00000026,0.
 00000013,-0.00004736,0.00001068,0.00002764,-0.00000153,0.00000142,0.00
 000091,-0.00000216,-0.00000105,-0.00000226,-0.00000048,-0.00000150,-0.
 00000098,-0.00000100,-0.00000306,0.00000045,0.00000668,0.00000179,0.00
 000508,-0.00068533,0.00003553,-0.00013276,-0.00000013,0.00000219,0.000
 00037,0.00000363,0.00000642,0.00000441,0.00000162,-0.00000139,0.000000
 31,0.00000134,0.00000105,-0.00000118,-0.00000007,-0.00000101,0.0000001
 8,-0.00000026,0.00000025,0.00000057,0.00000024,-0.00000055,0.00000039,
 0.00000069,-0.00000066,0.00000009,0.00000057,-0.00000033,0.00000024,-0
 .00000144,-0.00000041,0.00000005,-0.00000374,-0.00000178,-0.00000174,0
 .00013279,0.00318865,0.00012609,0.00045980,-0.00048383,0.00023546,-0.0
 1308835,-0.00428719,-0.02798252,-0.00728682,-0.04653247,-0.01683995,-0
 .00277827,-0.00441947,0.00027584,0.00085915,0.00104487,0.00047395,0.00
 958805,0.00278298,0.02330762,0.01284368,0.04956828,0.00000526,-0.00000
 912,-0.00000042,-0.00001343,-0.00000083,-0.00001768,0.00005306,0.00004
 946,0.00004364,-0.00002075,-0.00001728,0.00003070,0.00001579,0.0000042
 8,-0.00001854,-0.00001049,-0.00000254,0.00000426,-0.00003788,-0.000011
 37,0.00001208,-0.00004404,-0.00000964,-0.00007797,0.00003560,0.0000160
 5,-0.00000371,-0.00000990,-0.00000539,0.00000632,0.00002060,0.00000264
 ,-0.00000278,-0.00002191,-0.00000355,-0.00001176,0.00000754,0.00000711
 ,0.00000613,0.00003957,0.00002521,-0.00000131,-0.00005164,0.00000958,-
 0.00001110,0.00001086,0.00000559,0.00001446,0.00000564,0.00000073,-0.0
 0000248,0.00005537,-0.00002857,-0.00000433,0.00000307,-0.00000391,-0.0
 0000292,-0.00007483,0.00005896,0.00005397,0.00000066,0.00000479,0.0000
 0073,-0.00000269,-0.00000193,-0.00000453,-0.00000094,-0.00000192,-0.00
 000168,-0.00000208,-0.00000540,0.00000004,-0.00000163,-0.00000229,0.00
 000636,0.00026210,0.00021957,0.00017490,-0.00000047,-0.00000277,0.0000
 0383,0.00000012,0.00000220,-0.00000038,0.00000118,-0.00000205,0.000001
 66,0.00000658,-0.00000402,-0.00000079,0.00000093,-0.00000457,0.0000003
 0,-0.00000043,0.00000059,0.00000123,0.00000051,-0.00000110,0.00000111,
 0.00000109,-0.00000128,0.00000010,-0.00000082,-0.00000119,-0.00000068,
 -0.00000220,-0.00000233,-0.00000057,-0.00000455,-0.00000149,-0.0000023
 5,0.00031110,-0.00049255,0.00041716,0.00002906,0.00004278,-0.00002961,
 0.00013081,0.00061641,-0.00080165,-0.10103347,-0.01926164,-0.26556131,
 -0.00035413,0.00008033,0.00146012,-0.00009041,-0.00044565,0.00093060,-
 0.00059846,-0.00024611,-0.00294612,0.11141979,0.02067271,0.28443351,0.
 00000357,0.00002720,-0.00001342,0.00004035,0.00002010,0.00005120,-0.00
 014174,-0.00003411,-0.00001465,0.00001040,0.00003495,0.00000856,0.0000
 0733,-0.00000229,0.00000074,0.00000229,0.00000887,0.00000491,-0.000044
 92,-0.00003399,0.00005096,-0.00006626,-0.00006137,0.00000808,0.0000494
 1,0.00000875,-0.00001061,-0.00001490,-0.00001683,0.00000605,0.00000860
 ,0.00000726,-0.00001487,-0.00001016,0.00000268,-0.00000673,0.00000230,
 0.00000107,0.00000505,-0.00001141,0.00004255,-0.00000472,0.00005391,-0
 .00004252,-0.00001665,0.00000593,-0.00000317,0.00000048,0.00000276,-0.
 00000119,-0.00000242,-0.00005838,-0.00001739,-0.00001588,0.00000044,-0
 .00000196,-0.00000260,0.00014381,-0.00003451,0.00001029,-0.00000034,-0
 .00000447,-0.00000273,0.00000344,0.00000357,0.00000397,-0.00000020,0.0
 0000202,0.00000078,0.00000279,0.00000957,0.00000472,0.00001217,-0.0000
 0595,-0.00000347,0.00019485,0.00035986,-0.00000966,-0.00000072,-0.0000
 0302,0.00000153,-0.00000254,0.00000321,0.00000007,0.00000304,-0.000001
 67,0.00000077,0.00000947,-0.00000506,-0.00000207,0.00000439,-0.0000071
 4,0.00000068,-0.00000013,0.00000002,0.00000099,-0.00000005,-0.00000107
 ,0.00000116,0.00000007,-0.00000150,0.00000016,0.00000069,-0.00000194,-
 0.00000016,-0.00000210,-0.00000198,0.00000092,-0.00000229,0.00000005,-
 0.00000162,0.00137404,0.00048707,-0.00069299,0.00000989,-0.00019407,-0
 .00006999,-0.01484889,0.00131911,0.01315611,-0.18063281,-0.00118591,0.
 13174072,0.00046950,0.00050487,-0.00018936,-0.00058468,-0.00342304,-0.
 00075651,-0.01233816,-0.00129896,0.01239480,0.01081501,-0.00004275,-0.
 01003912,0.19553024,-0.00000453,0.00003578,-0.00001906,0.00004917,0.00
 003150,0.00011349,-0.00014241,-0.00015803,-0.00014720,-0.00001080,0.00
 010455,0.00001947,0.00002786,-0.00001382,0.00001892,0.00000154,0.00001
 264,0.00000785,0.00002097,-0.00003529,0.00001652,0.00000093,0.00005690
 ,0.00003409,-0.00001449,0.00000390,-0.00000528,0.00000780,0.00000258,0
 .00000118,-0.00001479,0.00000593,-0.00001192,0.00001988,0.00000202,0.0
 0000958,-0.00000727,0.00000842,-0.00000388,-0.00005742,0.00003808,-0.0
 0000986,0.00007586,-0.00001944,0.00001549,-0.00002487,-0.00000086,-0.0
 0001669,-0.00000820,-0.00000230,0.00000393,-0.00014971,-0.00003119,0.0
 0007577,-0.00001163,0.00001556,0.00001583,0.00018624,-0.00024487,-0.00
 024011,0.00000004,-0.00000497,0.00000581,0.00000753,0.00000874,0.00001
 054,0.00000042,0.00000472,0.00000380,0.00000757,0.00001481,0.00000240,
 0.00000915,-0.00000181,-0.00000430,-0.00059258,-0.00018188,-0.00033698
 ,0.00000177,0.00000597,-0.00000302,-0.00000033,0.00000276,0.00000500,0
 .00000036,0.00000019,-0.00000238,-0.00000277,0.00000425,0.00000160,0.0
 0000030,0.00000386,0.00000102,0.00000106,-0.00000039,-0.00000143,-0.00
 000082,0.00000099,-0.00000084,-0.00000094,0.00000141,-0.00000028,0.000
 00130,0.,-0.00000014,-0.00000045,-0.00000056,0.00000085,0.00000364,-0.
 00000172,0.00000184,0.00024215,0.00335230,-0.00020024,0.00046116,-0.00
 018287,0.00002817,-0.02224858,-0.00219189,0.02190304,0.00178960,-0.045
 29151,-0.00136254,0.00090983,0.00106667,-0.00014971,-0.00276403,-0.004
 55537,-0.00061814,0.01703385,0.00072335,-0.01854524,0.00161157,-0.0009
 9581,-0.00124850,0.00358509,0.04840670,0.00000239,0.00000234,0.0000011
 5,-0.00001999,-0.00000896,0.00004754,0.00006266,-0.00000909,-0.0001139
 9,-0.00002372,0.00001581,0.00005456,0.00000459,0.00000461,-0.00001139,
 -0.00000871,0.00000499,-0.00000465,0.00003702,0.00002155,-0.00000467,0
 .00001564,0.00000718,-0.00000732,-0.00001139,-0.00000744,0.00000938,0.
 00000530,0.00000274,-0.00000521,-0.00000678,-0.00000438,0.00000016,0.0
 0000480,0.00000508,0.00000189,-0.00000490,-0.00000547,0.00000155,-0.00
 000861,-0.00004486,-0.00003794,-0.00003609,0.00003318,0.00001317,0.000
 01059,-0.00000491,-0.00000285,0.00000022,-0.00000111,-0.00000175,0.000
 07801,-0.00002546,-0.00014544,0.00000397,-0.00000951,-0.00000983,0.000
 03323,-0.00013659,-0.00001536,0.00000236,0.00000240,-0.00000074,0.0000
 0013,-0.00000148,-0.00000037,0.00000028,0.00000056,0.00000013,0.000001
 27,0.00000145,-0.00000103,-0.00000100,0.00000189,0.00000346,-0.0000936
 1,0.00010547,0.00003814,-0.00000069,-0.00000117,-0.00000027,-0.0000006
 2,0.00000027,-0.00000066,-0.00000069,0.00000079,0.00000029,-0.00000149
 ,-0.00000035,0.00000024,0.00000040,-0.00000067,0.00000034,0.00000010,-
 0.00000026,0.00000042,-0.00000021,0.00000070,0.00000028,-0.00000020,0.
 00000018,0.00000021,0.00000054,-0.00000086,0.00000023,-0.00000093,0.00
 000424,-0.00000062,0.00000446,0.00000191,-0.00000387,-0.00003674,0.000
 16623,0.00008394,-0.00007465,-0.00008125,-0.00010594,-0.00305393,0.000
 05214,0.00215423,0.13321383,0.00019102,-0.17981154,-0.00017758,0.00061
 937,0.00081329,-0.00018863,-0.00086095,0.00135473,-0.00478251,-0.00048
 682,0.00388576,0.02063532,-0.00018607,-0.01809853,-0.14558345,0.000631
 55,0.18991887\\0.00001348,0.00000545,-0.00000823,0.00000665,-0.0000018
 8,-0.00000388,0.00000780,0.00000510,-0.00000237,0.00001731,0.00000555,
 -0.00000536,0.00002132,0.00000662,-0.00001088,0.00001949,0.00000600,-0
 .00001331,0.00000185,-0.00000037,0.00000335,-0.00000709,-0.00000554,-0
 .00000480,-0.00000658,-0.00000233,-0.00000991,-0.00000489,-0.00000056,
 -0.00000783,0.00000254,0.00000202,-0.00000299,-0.00001105,-0.00000435,
 0.00002010,-0.00001215,-0.00000831,0.00001361,-0.00000202,0.00000575,0
 .00000704,0.00000361,-0.00000088,0.00001983,-0.00000567,-0.00000316,0.
 00002360,0.00000209,0.00000402,0.00000394,0.00000761,0.00000099,0.0000
 2071,0.00001299,0.00000857,0.00002146,0.00000631,0.00000067,0.00000072
 ,0.00001826,0.00000600,-0.00000437,0.00002711,0.00000834,-0.00001457,0
 .00002303,0.00000722,-0.00001688,0.00001115,0.00000291,-0.00000902,-0.
 00001342,-0.00000552,-0.00000390,-0.00000636,-0.00000408,-0.00001090,-
 0.00001287,-0.00000508,-0.00001566,-0.00000160,-0.00000170,-0.00001748
 ,-0.00001067,-0.00000266,-0.00000391,-0.00000016,0.00000055,-0.0000081
 6,0.00000353,0.00000240,0.00000061,0.00000318,0.00000099,0.00000912,0.
 00000663,0.00000104,0.00001861,-0.00000584,-0.00000140,0.00001690,-0.0
 0001451,-0.00000254,0.00001299,-0.00001172,-0.00000192,0.00002027,-0.0
 0001464,-0.00000241,0.00000883,-0.00001073,-0.00000251,-0.00000267,-0.
 00000415,-0.00000170,-0.00001774,-0.00000917,-0.00000217,-0.00000679,-
 0.00000875,-0.00000380,-0.00000060,-0.00000173,-0.00000135,-0.00001066
 ,-0.00001284,-0.00000480,-0.00001296,-0.00000827,-0.00000312,-0.000002
 63,-0.00001503,-0.00000515,0.00000252,-0.00000404,-0.00000092,0.000004
 23\\\@


 YOU KNOW YOU'RE A TEACHER WHEN YOU SAY 2, WRITE 3, AND MEAN 4.
 -- RONALD ANSTROM, HIGH SCHOOL TEACHER, UNDERWOOD, N.D. 1974
 Job cpu time:       2 days 20 hours 24 minutes 48.4 seconds.
 Elapsed time:       0 days  4 hours 17 minutes 11.9 seconds.
 File lengths (MBytes):  RWF=   4423 Int=      0 D2E=      0 Chk=     63 Scr=      1
 Normal termination of Gaussian 16 at Wed Jun 30 13:40:41 2021.
