
                                 *****************
                                 * O   R   C   A *
                                 *****************

           --- An Ab Initio, DFT and Semiempirical electronic structure package ---

                  #######################################################
                  #                        -***-                        #
                  #          Department of theory and spectroscopy      #
                  #               Directorship: Frank Neese             #
                  #        Max Planck Institute fuer Kohlenforschung    #
                  #                Kaiser Wilhelm Platz 1               #
                  #                 D-45470 Muelheim/Ruhr               #
                  #                      Germany                        #
                  #                                                     #
                  #                  All rights reserved                #
                  #                        -***-                        #
                  #######################################################


                         Program Version 4.1.2  - RELEASE  -


 With contributions from (in alphabetic order):
   Daniel Aravena         : Magnetic Properties
   Michael Atanasov       : Ab Initio Ligand Field Theory
   Alexander A. Auer      : GIAO ZORA
   Ute Becker             : Parallelization
   Giovanni Bistoni       : ED, Open-shell LED
   Martin Brehm           : Molecular dynamics
   Dmytro Bykov           : SCF Hessian
   Vijay G. Chilkuri      : MRCI spin determinant printing
   Dipayan Datta          : RHF DLPNO-CCSD density
   Achintya Kumar Dutta   : EOM-CC, STEOM-CC
   Dmitry Ganyushin       : Spin-Orbit,Spin-Spin,Magnetic field MRCI
   Miquel Garcia          : C-PCM Hessian
   Yang Guo               : DLPNO-NEVPT2, CIM, IAO-localization
   Andreas Hansen         : Spin unrestricted coupled pair/coupled cluster methods
   Benjamin Helmich-Paris : CASSCF linear response (MC-RPA)
   Lee Huntington         : MR-EOM, pCC
   Robert Izsak           : Overlap fitted RIJCOSX, COSX-SCS-MP3, EOM
   Christian Kollmar      : KDIIS, OOCD, Brueckner-CCSD(T), CCSD density
   Simone Kossmann        : Meta GGA functionals, TD-DFT gradient, OOMP2, MP2 Hessian
   Martin Krupicka        : AUTO-CI
   Lucas Lang             : DCDCAS
   Dagmar Lenk            : GEPOL surface, SMD
   Dimitrios Liakos       : Extrapolation schemes; parallel MDCI
   Dimitrios Manganas     : ROCIS; embedding schemes
   Dimitrios Pantazis     : SARC Basis sets
   Taras Petrenko         : DFT Hessian,TD-DFT gradient, ASA, ECA, R-Raman, ABS, FL, XAS/XES, NRVS
   Peter Pinski           : DLPNO-MP2, DLPNO-MP2 Gradient
   Christoph Reimann      : Effective Core Potentials
   Marius Retegan         : Local ZFS, SOC
   Christoph Riplinger    : Optimizer, TS searches, QM/MM, DLPNO-CCSD(T), (RO)-DLPNO pert. Triples
   Tobias Risthaus        : Range-separated hybrids, TD-DFT gradient, RPA, STAB
   Michael Roemelt        : Restricted open shell CIS
   Masaaki Saitow         : Open-shell DLPNO
   Barbara Sandhoefer     : DKH picture change effects
   Avijit Sen             : IP-ROCIS
   Kantharuban Sivalingam : CASSCF convergence, NEVPT2, FIC-MRCI
   Bernardo de Souza      : ESD, SOC TD-DFT
   Georgi Stoychev        : AutoAux, RI-MP2 NMR
   Willem Van den Heuvel  : Paramagnetic NMR
   Boris Wezisla          : Elementary symmetry handling
   Frank Wennmohs         : Technical directorship


 We gratefully acknowledge several colleagues who have allowed us to
 interface, adapt or use parts of their codes:
   Stefan Grimme, W. Hujo, H. Kruse,             : VdW corrections, initial TS optimization,
                  C. Bannwarth                     DFT functionals, gCP, sTDA/sTD-DF
   Ed Valeev                                     : LibInt (2-el integral package), F12 methods
   Garnet Chan, S. Sharma, J. Yang, R. Olivares  : DMRG
   Ulf Ekstrom                                   : XCFun DFT Library
   Mihaly Kallay                                 : mrcc  (arbitrary order and MRCC methods)
   Andreas Klamt, Michael Diedenhofen            : otool_cosmo (COSMO solvation model)
   Jiri Pittner, Ondrej Demel                    : Mk-CCSD
   Frank Weinhold                                : gennbo (NPA and NBO analysis)
   Christopher J. Cramer and Donald G. Truhlar   : smd solvation model
   Lars Goerigk                                  : TD-DFT with DH, B97 family of functionals
   V. Asgeirsson, H. Jonsson                     : NEB implementation
   FAccTs GmbH                                   : IRC, NEB, NEB-TS, Multilevel


 Your calculation uses the libint2 library for the computation of 2-el integrals
 For citations please refer to: http://libint.valeyev.net

 This ORCA versions uses:
   CBLAS   interface :  Fast vector & matrix operations
   LAPACKE interface :  Fast linear algebra routines
   SCALAPACK package :  Parallel linear algebra routines


----- Orbital basis set information -----
Your calculation utilizes the basis: aug-cc-pVTZ 
    H, B-Ne : Obtained from the ccRepo (grant-hill.group.shef.ac.uk/ccrepo) Feb. 2017
              R. A. Kendall, T. H. Dunning, Jr., R. J. Harrison, J. Chem. Phys. 96, 6796 (1992)
         He : Obtained from the ccRepo (grant-hill.group.shef.ac.uk/ccrepo) Feb. 2017
              D. E. Woon, T. H. Dunning, Jr., J. Chem. Phys. 100, 2975 (1994)
  Li-Be, Na : Obtained from the ccRepo (grant-hill.group.shef.ac.uk/ccrepo) Feb. 2017
              B. P. Prascher, D. E. Woon, K. A. Peterson, T. H. Dunning, Jr., A. K. Wilson, Theor. Chem. Acc. 128, 69 (2011)
         Mg : Obtained from the Peterson Research Group Website (tyr0.chem.wsu.edu/~kipeters) Feb. 2017
              B. P. Prascher, D. E. Woon, K. A. Peterson, T. H. Dunning, Jr., A. K. Wilson, Theor. Chem. Acc. 128, 69 (2011)
      Al-Ar : Obtained from the ccRepo (grant-hill.group.shef.ac.uk/ccrepo) Feb. 2017
              D. E. Woon, T. H. Dunning, Jr., J. Chem. Phys. 98, 1358 (1993)
      Sc-Zn : Obtained from the ccRepo (grant-hill.group.shef.ac.uk/ccrepo) Feb. 2017
              N. B. Balabanov, K. A. Peterson, J. Chem. Phys. 123, 064107 (2005)
              N. B. Balabanov, K. A. Peterson, J. Chem. Phys. 125, 074110 (2006)
      Ga-Kr : Obtained from the ccRepo (grant-hill.group.shef.ac.uk/ccrepo) Feb. 2017
              A. K. Wilson, D. E. Woon, K. A. Peterson, T. H. Dunning, Jr., J. Chem. Phys. 110, 7667 (1999)
     Ag, Au : Obtained from the Peterson Research Group Website (tyr0.chem.wsu.edu/~kipeters) Feb. 2017
              K. A. Peterson, C. Puzzarini, Theor. Chem. Acc. 114, 283 (2005)

----- AuxJ basis set information -----
Your calculation utilizes the AutoAux generation procedure.
  G. L. Stoychev, A. A. Auer, F. Neese, J. Chem. Theory Comput. 13, 554 (2017)

----- AuxC basis set information -----
Your calculation utilizes the auxiliary basis: aug-cc-pVTZ/C 
  H-He, B-F, Al-Ar, Ga-Kr : Obtained from the EMSL Basis Set Exchange (bse.pnl.gov) Feb. 2017
                            F. Weigend, A. Kohn, C. Hattig, J. Chem. Phys. 116, 3175 (2002)
                   Be, Mg : Obtained from the TURBOMOLE 7.0 basis set library
                            C. Haettig, Phys. Chem. Chem. Phys. 7, 59 (2005)
                       Ne : Obtained from the EMSL Basis Set Exchange (bse.pnl.gov) Feb. 2017
                            C. Haettig, Phys. Chem. Chem. Phys. 7, 59 (2005)
                            F. Weigend, A. Kohn, C. Hattig, J. Chem. Phys. 116, 3175 (2002)
                    Sc-Zn : Obtained from the EMSL Basis Set Exchange (bse.pnl.gov) Feb. 2017
                            J. G. Hill, J. A. Platts, J. Chem. Phys. 128, 044104 (2008)

----- AuxJK basis set information -----
Your calculation utilizes the AutoAux generation procedure.
  G. L. Stoychev, A. A. Auer, F. Neese, J. Chem. Theory Comput. 13, 554 (2017)

================================================================================
                                        WARNINGS
                       Please study these warnings very carefully!
================================================================================


WARNING: your system is open-shell and RHF/RKS was chosen
  ===> : WILL SWITCH to UHF/UKS


WARNING: MDCI localization with Augmented Hessian Foster-Boys
  ===> : Switching off randomization!

WARNING: Post HF methods need fully converged wavefunctions
  ===> : Setting SCFConvForced true
         You can overwrite this default with %scf ConvForced false 


INFO   : the flag for use of LIBINT has been found!

================================================================================
                                       INPUT FILE
================================================================================
NAME = simple-grid-185-230-b3lyp_d3bj-631gd-gas-singlepoint-DLPNO_CCSD_T1-NormalPNO-augtz-gas.inp
|  1> ! aug-cc-pVTZ aug-cc-pVTZ/C DLPNO-CCSD(T1) TightSCF NormalPNO UNO MiniPrint AutoAux
|  2> %pal nproc 10 end
|  3> %maxcore 20000
|  4> %mdci
|  5>      density none
|  6> end
|  7> 
|  8> * xyz 0 6
|  9>  O     -0.32123800     -0.23589900     -0.60650700
| 10>  C     -1.35207200     -1.12690800     -0.47673200
| 11>  C     -2.85641600     -0.12259600     -0.08839300
| 12>  C     -2.14562500      1.11059500     -0.22111500
| 13>  C     -2.00607500      1.78369300     -1.53035000
| 14> Fe      1.39361400      0.04199000      0.02963900
| 15> Cl      1.78907000      2.08683500     -0.74976700
| 16>  C     -1.57818400      1.80537700      0.95442300
| 17> Cl      2.66736000     -1.58420700     -0.72083100
| 18> Cl      1.26649900      0.05005700      2.25553200
| 19>  H     -3.50406300     -0.32284300     -0.94187500
| 20>  H     -2.41050400      2.35189500      1.42890700
| 21>  H     -1.18514000      1.11269800      1.70213100
| 22>  H     -0.80021200      2.51775800      0.67482400
| 23>  H     -2.56801200      2.72949100     -1.46904300
| 24>  H     -0.95571600      2.04924500     -1.69743800
| 25>  H     -2.39671800      1.19664800     -2.36207000
| 26>  C     -3.51221200     -0.47107600      1.23771000
| 27>  H     -4.36323300      0.19404500      1.42730000
| 28>  H     -3.89605700     -1.49384600      1.21212600
| 29>  H     -2.82769800     -0.39106200      2.08443100
| 30>  C     -1.15616100     -2.11577200      0.65447700
| 31>  H     -2.00008100     -2.80106700      0.76383600
| 32>  H     -0.26554200     -2.70337500      0.39545500
| 33>  H     -0.94695800     -1.61836100      1.60251300
| 34>  C     -1.67114300     -1.78812000     -1.80698600
| 35>  H     -0.79257100     -2.37931200     -2.09182000
| 36>  H     -2.54023900     -2.44963300     -1.73972500
| 37>  H     -1.83379900     -1.04363300     -2.59018400
| 38> *
| 39> 
| 40> 
| 41>                          ****END OF INPUT****
================================================================================

                       ****************************
                       * Single Point Calculation *
                       ****************************

---------------------------------
CARTESIAN COORDINATES (ANGSTROEM)
---------------------------------
  O     -0.321238   -0.235899   -0.606507
  C     -1.352072   -1.126908   -0.476732
  C     -2.856416   -0.122596   -0.088393
  C     -2.145625    1.110595   -0.221115
  C     -2.006075    1.783693   -1.530350
  Fe     1.393614    0.041990    0.029639
  Cl     1.789070    2.086835   -0.749767
  C     -1.578184    1.805377    0.954423
  Cl     2.667360   -1.584207   -0.720831
  Cl     1.266499    0.050057    2.255532
  H     -3.504063   -0.322843   -0.941875
  H     -2.410504    2.351895    1.428907
  H     -1.185140    1.112698    1.702131
  H     -0.800212    2.517758    0.674824
  H     -2.568012    2.729491   -1.469043
  H     -0.955716    2.049245   -1.697438
  H     -2.396718    1.196648   -2.362070
  C     -3.512212   -0.471076    1.237710
  H     -4.363233    0.194045    1.427300
  H     -3.896057   -1.493846    1.212126
  H     -2.827698   -0.391062    2.084431
  C     -1.156161   -2.115772    0.654477
  H     -2.000081   -2.801067    0.763836
  H     -0.265542   -2.703375    0.395455
  H     -0.946958   -1.618361    1.602513
  C     -1.671143   -1.788120   -1.806986
  H     -0.792571   -2.379312   -2.091820
  H     -2.540239   -2.449633   -1.739725
  H     -1.833799   -1.043633   -2.590184

----------------------------
CARTESIAN COORDINATES (A.U.)
----------------------------
  NO LB      ZA    FRAG     MASS         X           Y           Z
   0 O     8.0000    0    15.999   -0.607052   -0.445785   -1.146132
   1 C     6.0000    0    12.011   -2.555046   -2.129547   -0.900893
   2 C     6.0000    0    12.011   -5.397844   -0.231673   -0.167039
   3 C     6.0000    0    12.011   -4.054644    2.098720   -0.417847
   4 C     6.0000    0    12.011   -3.790932    3.370691   -2.891942
   5 Fe   26.0000    0    55.850    2.633549    0.079350    0.056010
   6 Cl   17.0000    0    35.453    3.380852    3.943547   -1.416854
   7 C     6.0000    0    12.011   -2.982336    3.411668    1.803598
   8 Cl   17.0000    0    35.453    5.040580   -2.993717   -1.362173
   9 Cl   17.0000    0    35.453    2.393336    0.094594    4.262338
  10 H     1.0000    0     1.008   -6.621719   -0.610085   -1.779886
  11 H     1.0000    0     1.008   -4.555192    4.444437    2.700243
  12 H     1.0000    0     1.008   -2.239590    2.102694    3.216561
  13 H     1.0000    0     1.008   -1.512182    4.757873    1.275233
  14 H     1.0000    0     1.008   -4.852839    5.157990   -2.776089
  15 H     1.0000    0     1.008   -1.806042    3.872512   -3.207693
  16 H     1.0000    0     1.008   -4.529141    2.261337   -4.463665
  17 C     6.0000    0    12.011   -6.637119   -0.890205    2.338933
  18 H     1.0000    0     1.008   -8.245315    0.366692    2.697206
  19 H     1.0000    0     1.008   -7.362481   -2.822960    2.290586
  20 H     1.0000    0     1.008   -5.343575   -0.739000    3.939004
  21 C     6.0000    0    12.011   -2.184828   -3.998230    1.236782
  22 H     1.0000    0     1.008   -3.779605   -5.293250    1.443441
  23 H     1.0000    0     1.008   -0.501802   -5.108638    0.747302
  24 H     1.0000    0     1.008   -1.789491   -3.058259    3.028311
  25 C     6.0000    0    12.011   -3.158003   -3.379057   -3.414709
  26 H     1.0000    0     1.008   -1.497742   -4.496248   -3.952967
  27 H     1.0000    0     1.008   -4.800356   -4.629135   -3.287604
  28 H     1.0000    0     1.008   -3.465378   -1.972181   -4.894738



           ************************************************************
           *        Program running with 10 parallel MPI-processes    *
           *              working on a common directory               *
           ************************************************************


           ************************************************************
           *        Program running with 10 parallel MPI-processes    *
           *              working on a common directory               *
           ************************************************************

Diagonalization of the overlap matrix:
Smallest eigenvalue                        ... 6.568e-07
Time for diagonalization                   ...    0.343 sec
Threshold for overlap eigenvalues          ... 1.000e-08
Number of eigenvalues below threshold      ... 0
Time for construction of square roots      ...    0.284 sec
Total time needed                          ...    0.633 sec

-------------------
DFT GRID GENERATION
-------------------

General Integration Accuracy     IntAcc      ...  4.340
Radial Grid Type                 RadialGrid  ... Gauss-Chebyshev
Angular Grid (max. acc.)         AngularGrid ... Lebedev-110
Angular grid pruning method      GridPruning ... 3 (G Style)
Weight generation scheme         WeightScheme... Becke
Basis function cutoff            BFCut       ...    1.0000e-11
Integration weight cutoff        WCut        ...    1.0000e-14
Grids for H and He will be reduced by one unit

# of grid points (after initial pruning)     ...  36112 (   0.0 sec)
# of grid points (after weights+screening)   ...  32302 (   0.1 sec)
nearest neighbour list constructed           ...    0.0 sec
Grid point re-assignment to atoms done       ...    0.0 sec
Grid point division into batches done        ...    0.0 sec
Reduced shell lists constructed in    0.3 sec

Total number of grid points                  ...    32302
Total number of batches                      ...      520
Average number of points per batch           ...       62
Average number of grid points per atom       ...     1114
Average number of shells per batch           ...   293.43 (85.55%)
Average number of basis functions per batch  ...   872.87 (85.16%)
Average number of large shells per batch     ...   243.21 (82.88%)
Average number of large basis fcns per batch ...   722.64 (82.79%)
Maximum spatial batch extension              ...   3.82,  2.68,  4.00 au
Average spatial batch extension              ...   0.17,  0.17,  0.17 au

Time for grid setup =    0.397 sec

Loading Hartree-Fock densities                     ... done
Calculating cut-offs                               ... done
Setting up the integral package                    ... done
Initializing the effective Hamiltonian             ... done
Starting the Coulomb interaction                   ... done (   1.1 sec)
Reading the grid                                   ... done
Mapping shells                                     ... done
Starting the XC term evaluation                    ... done (   0.9 sec)
Transforming the Hamiltonian                       ... done (   0.2 sec)
Diagonalizing the Hamiltonian                      ... done (   0.4 sec)
Back transforming the eigenvectors                 ... done (   0.1 sec)
Now organizing SCF variables                       ... done
--------------
SCF ITERATIONS
--------------
ITER       Energy         Delta-E        Max-DP      RMS-DP      [F,P]     Damp
               ***  Starting incremental Fock matrix formation  ***
  0  -3027.5674883426   0.000000000000 0.32017798  0.00131140  0.2915409 0.7000
  1  -3027.8174108717  -0.249922529105 0.22597040  0.00100321  0.1684685 0.7000
                               ***Turning on DIIS***
  2  -3027.9850222023  -0.167611330608 0.15481261  0.00072809  0.1095346 0.7000
  3  -3029.6871785293  -1.702156326985 0.32794758  0.00178900  0.0824002 0.0000
  4  -3028.2944974609   1.392681068422 0.04744788  0.00023296  0.0189591 0.0000
  5  -3028.4155593587  -0.121061897838 0.04000535  0.00017312  0.0117409 0.0000
  6  -3028.4386535991  -0.023094240328 0.02048691  0.00006828  0.0053919 0.0000
  7  -3028.4534004536  -0.014746854526 0.00927863  0.00003172  0.0032677 0.0000
  8  -3028.4508756057   0.002524847898 0.00598798  0.00001813  0.0013467 0.0000
  9  -3028.4408199444   0.010055661346 0.00237646  0.00001060  0.0007003 0.0000
 10  -3028.4303800949   0.010439849485 0.00093004  0.00000332  0.0004150 0.0000
 11  -3028.4364753171  -0.006095222205 0.00026502  0.00000187  0.0000786 0.0000
 12  -3028.4338397490   0.002635568087 0.00053839  0.00000151  0.0000291 0.0000
 13  -3028.4338799935  -0.000040244469 0.00159105  0.00000279  0.0000123 0.0000
 14  -3028.4339063206  -0.000026327166 0.00106058  0.00000261  0.0000060 0.0000
 15  -3028.4338431092   0.000063211442 0.00180304  0.00000328  0.0000031 0.0000
 16  -3028.4338681871  -0.000025077899 0.00130822  0.00000271  0.0000024 0.0000
 17  -3028.4338864191  -0.000018232038 0.00153669  0.00000282  0.0000012 0.0000
                            ***DIIS convergence achieved***

               *****************************************************
               *                     SUCCESS                       *
               *           SCF CONVERGED AFTER  18 CYCLES          *
               *****************************************************

Total Energy       :        -3028.43386711 Eh          -82407.87506 eV
  Last Energy change         ...    1.9310e-05  Tolerance :   1.0000e-08
  Last MAX-Density change    ...    1.6119e-03  Tolerance :   1.0000e-07
             **** THE GBW FILE WAS UPDATED (simple-grid-185-230-b3lyp_d3bj-631gd-gas-singlepoint-DLPNO_CCSD_T1-NormalPNO-augtz-gas.gbw) ****
             **** DENSITY FILE WAS UPDATED (simple-grid-185-230-b3lyp_d3bj-631gd-gas-singlepoint-DLPNO_CCSD_T1-NormalPNO-augtz-gas.scfp.tmp) ****
             **** ENERGY FILE WAS UPDATED (simple-grid-185-230-b3lyp_d3bj-631gd-gas-singlepoint-DLPNO_CCSD_T1-NormalPNO-augtz-gas.en.tmp) ****
----------------------
UHF SPIN CONTAMINATION
----------------------

Expectation value of <S**2>     :     8.764389
Ideal value S*(S+1) for S=2.5   :     8.750000
Deviation                       :     0.014389

----------------
ORBITAL ENERGIES
----------------
                 SPIN UP ORBITALS
  NO   OCC          E(Eh)            E(eV) 
   0   1.0000    -261.546574     -7117.0441 
   1   1.0000    -104.774258     -2851.0525 
   2   1.0000    -104.774165     -2851.0500 
   3   1.0000    -104.770327     -2850.9455 
   4   1.0000     -32.214453      -876.5998 
   5   1.0000     -27.690309      -753.4916 
   6   1.0000     -27.690258      -753.4902 
   7   1.0000     -27.689909      -753.4807 
   8   1.0000     -20.544621      -559.0476 
   9   1.0000     -11.392668      -310.0103 
  10   1.0000     -11.366100      -309.2873 
  11   1.0000     -11.286128      -307.1112 
  12   1.0000     -11.279746      -306.9375 
  13   1.0000     -11.274353      -306.7907 
  14   1.0000     -11.263843      -306.5047 
  15   1.0000     -11.246508      -306.0331 
  16   1.0000     -11.240818      -305.8782 
  17   1.0000     -10.500754      -285.7401 
  18   1.0000     -10.500737      -285.7396 
  19   1.0000     -10.496853      -285.6339 
  20   1.0000      -7.967653      -216.8109 
  21   1.0000      -7.967578      -216.8088 
  22   1.0000      -7.966814      -216.7880 
  23   1.0000      -7.966780      -216.7871 
  24   1.0000      -7.966738      -216.7860 
  25   1.0000      -7.966718      -216.7854 
  26   1.0000      -7.963661      -216.7022 
  27   1.0000      -7.962973      -216.6835 
  28   1.0000      -7.962878      -216.6809 
  29   1.0000      -4.569965      -124.3551 
  30   1.0000      -3.182523       -86.6009 
  31   1.0000      -3.182153       -86.5908 
  32   1.0000      -3.181580       -86.5752 
  33   1.0000      -1.374037       -37.3895 
  34   1.0000      -1.185100       -32.2482 
  35   1.0000      -1.086634       -29.5688 
  36   1.0000      -1.045354       -28.4455 
  37   1.0000      -1.041448       -28.3392 
  38   1.0000      -1.039942       -28.2983 
  39   1.0000      -1.037188       -28.2233 
  40   1.0000      -1.012481       -27.5510 
  41   1.0000      -0.974644       -26.5214 
  42   1.0000      -0.935362       -25.4525 
  43   1.0000      -0.910128       -24.7658 
  44   1.0000      -0.899648       -24.4807 
  45   1.0000      -0.899556       -24.4782 
  46   1.0000      -0.891348       -24.2548 
  47   1.0000      -0.891007       -24.2455 
  48   1.0000      -0.787929       -21.4406 
  49   1.0000      -0.764553       -20.8045 
  50   1.0000      -0.702724       -19.1221 
  51   1.0000      -0.692255       -18.8372 
  52   1.0000      -0.674346       -18.3499 
  53   1.0000      -0.644812       -17.5462 
  54   1.0000      -0.637994       -17.3607 
  55   1.0000      -0.629495       -17.1294 
  56   1.0000      -0.601466       -16.3667 
  57   1.0000      -0.597233       -16.2515 
  58   1.0000      -0.593571       -16.1519 
  59   1.0000      -0.583591       -15.8803 
  60   1.0000      -0.577853       -15.7242 
  61   1.0000      -0.559829       -15.2337 
  62   1.0000      -0.557179       -15.1616 
  63   1.0000      -0.542967       -14.7749 
  64   1.0000      -0.534406       -14.5419 
  65   1.0000      -0.529967       -14.4211 
  66   1.0000      -0.506875       -13.7928 
  67   1.0000      -0.473076       -12.8731 
  68   1.0000      -0.461101       -12.5472 
  69   1.0000      -0.447960       -12.1896 
  70   1.0000      -0.426378       -11.6023 
  71   1.0000      -0.425152       -11.5690 
  72   1.0000      -0.421253       -11.4629 
  73   1.0000      -0.414076       -11.2676 
  74   1.0000      -0.412710       -11.2304 
  75   1.0000      -0.410129       -11.1602 
  76   1.0000      -0.400400       -10.8954 
  77   0.0000       0.006798         0.1850 
  78   0.0000       0.017805         0.4845 
  79   0.0000       0.021109         0.5744 
  80   0.0000       0.024296         0.6611 
  81   0.0000       0.030236         0.8227 
  82   0.0000       0.037435         1.0187 
  83   0.0000       0.040220         1.0944 
  84   0.0000       0.043922         1.1952 
  85   0.0000       0.044106         1.2002 
  86   0.0000       0.047084         1.2812 
  87   0.0000       0.056288         1.5317 
  88   0.0000       0.060112         1.6357 
  89   0.0000       0.060976         1.6592 
  90   0.0000       0.064859         1.7649 
  91   0.0000       0.066968         1.8223 
  92   0.0000       0.071145         1.9360 
  93   0.0000       0.072625         1.9762 
  94   0.0000       0.079156         2.1540 
  95   0.0000       0.088470         2.4074 
  96   0.0000       0.089496         2.4353 
  97   0.0000       0.091178         2.4811 
  98   0.0000       0.093297         2.5387 
  99   0.0000       0.099433         2.7057 
 100   0.0000       0.101736         2.7684 
 101   0.0000       0.110247         3.0000 
 102   0.0000       0.114899         3.1266 
 103   0.0000       0.118799         3.2327 
 104   0.0000       0.123093         3.3495 
 105   0.0000       0.124205         3.3798 
 106   0.0000       0.127865         3.4794 
 107   0.0000       0.129397         3.5211 
 108   0.0000       0.132380         3.6022 
 109   0.0000       0.133078         3.6212 
 110   0.0000       0.136761         3.7214 
 111   0.0000       0.138267         3.7624 
 112   0.0000       0.145653         3.9634 
 113   0.0000       0.149950         4.0804 
 114   0.0000       0.151896         4.1333 
 115   0.0000       0.153582         4.1792 
 116   0.0000       0.156603         4.2614 
 117   0.0000       0.159613         4.3433 
 118   0.0000       0.164035         4.4636 
 119   0.0000       0.166275         4.5246 
 120   0.0000       0.169727         4.6185 
 121   0.0000       0.174456         4.7472 
 122   0.0000       0.176538         4.8039 
 123   0.0000       0.176846         4.8122 
 124   0.0000       0.182976         4.9790 
 125   0.0000       0.188730         5.1356 
 126   0.0000       0.191670         5.2156 
 127   0.0000       0.193220         5.2578 
 128   0.0000       0.197293         5.3686 
 129   0.0000       0.199642         5.4325 
 130   0.0000       0.202046         5.4980 
 131   0.0000       0.207000         5.6328 
 132   0.0000       0.208634         5.6772 
 133   0.0000       0.210387         5.7249 
 134   0.0000       0.215843         5.8734 
 135   0.0000       0.218534         5.9466 
 136   0.0000       0.222183         6.0459 
 137   0.0000       0.226306         6.1581 
 138   0.0000       0.230516         6.2727 
 139   0.0000       0.232558         6.3282 
 140   0.0000       0.237313         6.4576 
 141   0.0000       0.239562         6.5188 
 142   0.0000       0.243162         6.6168 
 143   0.0000       0.245647         6.6844 
 144   0.0000       0.246152         6.6981 
 145   0.0000       0.252217         6.8632 
 146   0.0000       0.253247         6.8912 
 147   0.0000       0.254268         6.9190 
 148   0.0000       0.258265         7.0277 
 149   0.0000       0.262886         7.1535 
 150   0.0000       0.265257         7.2180 
 151   0.0000       0.274511         7.4698 
 152   0.0000       0.278243         7.5714 
 153   0.0000       0.281384         7.6568 
 154   0.0000       0.282441         7.6856 
 155   0.0000       0.290219         7.8973 
 156   0.0000       0.293982         7.9996 
 157   0.0000       0.300365         8.1733 
 158   0.0000       0.302285         8.2256 
 159   0.0000       0.306421         8.3381 
 160   0.0000       0.308211         8.3869 
 161   0.0000       0.309102         8.4111 
 162   0.0000       0.317416         8.6373 
 163   0.0000       0.317775         8.6471 
 164   0.0000       0.323879         8.8132 
 165   0.0000       0.326639         8.8883 
 166   0.0000       0.332820         9.0565 
 167   0.0000       0.337490         9.1836 
 168   0.0000       0.341644         9.2966 
 169   0.0000       0.346871         9.4388 
 170   0.0000       0.348362         9.4794 
 171   0.0000       0.352203         9.5839 
 172   0.0000       0.358151         9.7458 
 173   0.0000       0.362021         9.8511 
 174   0.0000       0.363937         9.9032 
 175   0.0000       0.365173         9.9369 
 176   0.0000       0.369505        10.0547 
 177   0.0000       0.370553        10.0833 
 178   0.0000       0.375265        10.2115 
 179   0.0000       0.380354        10.3500 
 180   0.0000       0.382867        10.4183 
 181   0.0000       0.383758        10.4426 
 182   0.0000       0.386701        10.5227 
 183   0.0000       0.389746        10.6055 
 184   0.0000       0.392170        10.6715 
 185   0.0000       0.395580        10.7643 
 186   0.0000       0.397006        10.8031 
 187   0.0000       0.402217        10.9449 
 188   0.0000       0.406473        11.0607 
 189   0.0000       0.407863        11.0985 
 190   0.0000       0.414211        11.2713 
 191   0.0000       0.414480        11.2786 
 192   0.0000       0.417845        11.3702 
 193   0.0000       0.424231        11.5439 
 194   0.0000       0.427978        11.6459 
 195   0.0000       0.434445        11.8219 
 196   0.0000       0.434657        11.8276 
 197   0.0000       0.441544        12.0150 
 198   0.0000       0.447071        12.1654 
 199   0.0000       0.450177        12.2500 
 200   0.0000       0.451691        12.2911 
 201   0.0000       0.457650        12.4533 
 202   0.0000       0.460356        12.5269 
 203   0.0000       0.462370        12.5817 
 204   0.0000       0.464750        12.6465 
 205   0.0000       0.466785        12.7019 
 206   0.0000       0.470225        12.7955 
 207   0.0000       0.473185        12.8760 
 208   0.0000       0.475793        12.9470 
 209   0.0000       0.480215        13.0673 
 210   0.0000       0.484640        13.1877 
 211   0.0000       0.485864        13.2210 
 212   0.0000       0.490586        13.3495 
 213   0.0000       0.493694        13.4341 
 214   0.0000       0.497193        13.5293 
 215   0.0000       0.499761        13.5992 
 216   0.0000       0.503199        13.6927 
 217   0.0000       0.504068        13.7164 
 218   0.0000       0.508901        13.8479 
 219   0.0000       0.510070        13.8797 
 220   0.0000       0.512218        13.9382 
 221   0.0000       0.515955        14.0398 
 222   0.0000       0.518400        14.1064 
 223   0.0000       0.524204        14.2643 
 224   0.0000       0.527736        14.3604 
 225   0.0000       0.534394        14.5416 
 226   0.0000       0.536949        14.6111 
 227   0.0000       0.540699        14.7132 
 228   0.0000       0.543031        14.7766 
 229   0.0000       0.545363        14.8401 
 230   0.0000       0.550868        14.9899 
 231   0.0000       0.551900        15.0180 
 232   0.0000       0.559639        15.2286 
 233   0.0000       0.565200        15.3799 
 234   0.0000       0.569942        15.5089 
 235   0.0000       0.571287        15.5455 
 236   0.0000       0.573566        15.6075 
 237   0.0000       0.580680        15.8011 
 238   0.0000       0.581712        15.8292 
 239   0.0000       0.583700        15.8833 
 240   0.0000       0.588957        16.0263 
 241   0.0000       0.595570        16.2063 
 242   0.0000       0.597930        16.2705 
 243   0.0000       0.598289        16.2803 
 244   0.0000       0.603591        16.4245 
 245   0.0000       0.606517        16.5042 
 246   0.0000       0.612339        16.6626 
 247   0.0000       0.614023        16.7084 
 248   0.0000       0.617545        16.8043 
 249   0.0000       0.622728        16.9453 
 250   0.0000       0.627115        17.0647 
 251   0.0000       0.629578        17.1317 
 252   0.0000       0.631827        17.1929 
 253   0.0000       0.632640        17.2150 
 254   0.0000       0.636193        17.3117 
 255   0.0000       0.645886        17.5755 
 256   0.0000       0.649853        17.6834 
 257   0.0000       0.652238        17.7483 
 258   0.0000       0.657914        17.9028 
 259   0.0000       0.658553        17.9202 
 260   0.0000       0.666649        18.1404 
 261   0.0000       0.672253        18.2929 
 262   0.0000       0.673235        18.3196 
 263   0.0000       0.674787        18.3619 
 264   0.0000       0.682348        18.5676 
 265   0.0000       0.686787        18.6884 
 266   0.0000       0.692354        18.8399 
 267   0.0000       0.694917        18.9096 
 268   0.0000       0.696525        18.9534 
 269   0.0000       0.699968        19.0471 
 270   0.0000       0.709241        19.2994 
 271   0.0000       0.712091        19.3770 
 272   0.0000       0.720463        19.6048 
 273   0.0000       0.721723        19.6391 
 274   0.0000       0.723796        19.6955 
 275   0.0000       0.727663        19.8007 
 276   0.0000       0.730456        19.8767 
 277   0.0000       0.740354        20.1461 
 278   0.0000       0.749102        20.3841 
 279   0.0000       0.751287        20.4436 
 280   0.0000       0.758265        20.6334 
 281   0.0000       0.761088        20.7102 
 282   0.0000       0.763432        20.7740 
 283   0.0000       0.773902        21.0589 
 284   0.0000       0.777088        21.1456 
 285   0.0000       0.782242        21.2859 
 286   0.0000       0.788127        21.4460 
 287   0.0000       0.790332        21.5060 
 288   0.0000       0.794863        21.6293 
 289   0.0000       0.805882        21.9292 
 290   0.0000       0.810011        22.0415 
 291   0.0000       0.811621        22.0853 
 292   0.0000       0.815374        22.1875 
 293   0.0000       0.827695        22.5227 
 294   0.0000       0.828903        22.5556 
 295   0.0000       0.832211        22.6456 
 296   0.0000       0.837896        22.8003 
 297   0.0000       0.843313        22.9477 
 298   0.0000       0.855790        23.2872 
 299   0.0000       0.858651        23.3651 
 300   0.0000       0.859425        23.3861 
 301   0.0000       0.870123        23.6773 
 302   0.0000       0.872192        23.7336 
 303   0.0000       0.878812        23.9137 
 304   0.0000       0.882327        24.0093 
 305   0.0000       0.887571        24.1520 
 306   0.0000       0.891941        24.2710 
 307   0.0000       0.895117        24.3574 
 308   0.0000       0.900313        24.4988 
 309   0.0000       0.904995        24.6262 
 310   0.0000       0.909231        24.7414 
 311   0.0000       0.914302        24.8794 
 312   0.0000       0.920673        25.0528 
 313   0.0000       0.923245        25.1228 
 314   0.0000       0.926064        25.1995 
 315   0.0000       0.928691        25.2710 
 316   0.0000       0.935761        25.4634 
 317   0.0000       0.940329        25.5877 
 318   0.0000       0.943366        25.6703 
 319   0.0000       0.946369        25.7520 
 320   0.0000       0.950618        25.8676 
 321   0.0000       0.954570        25.9752 
 322   0.0000       0.957192        26.0465 
 323   0.0000       0.961051        26.1515 
 324   0.0000       0.965163        26.2634 
 325   0.0000       0.968089        26.3431 
 326   0.0000       0.970984        26.4218 
 327   0.0000       0.972932        26.4748 
 328   0.0000       0.976263        26.5655 
 329   0.0000       0.977251        26.5923 
 330   0.0000       0.981694        26.7133 
 331   0.0000       0.987338        26.8668 
 332   0.0000       0.990373        26.9494 
 333   0.0000       0.994487        27.0614 
 334   0.0000       0.996053        27.1040 
 335   0.0000       1.002220        27.2718 
 336   0.0000       1.008175        27.4338 
 337   0.0000       1.011233        27.5170 
 338   0.0000       1.015353        27.6292 
 339   0.0000       1.016616        27.6635 
 340   0.0000       1.023730        27.8571 
 341   0.0000       1.025502        27.9053 
 342   0.0000       1.029232        28.0068 
 343   0.0000       1.034038        28.1376 
 344   0.0000       1.034596        28.1528 
 345   0.0000       1.037951        28.2441 
 346   0.0000       1.041080        28.3292 
 347   0.0000       1.048820        28.5398 
 348   0.0000       1.049947        28.5705 
 349   0.0000       1.052634        28.6436 
 350   0.0000       1.057424        28.7740 
 351   0.0000       1.060374        28.8543 
 352   0.0000       1.061196        28.8766 
 353   0.0000       1.067222        29.0406 
 354   0.0000       1.068613        29.0784 
 355   0.0000       1.074334        29.2341 
 356   0.0000       1.080021        29.3889 
 357   0.0000       1.085487        29.5376 
 358   0.0000       1.091942        29.7133 
 359   0.0000       1.093893        29.7663 
 360   0.0000       1.098044        29.8793 
 361   0.0000       1.102736        30.0070 
 362   0.0000       1.105561        30.0838 
 363   0.0000       1.109733        30.1974 
 364   0.0000       1.115789        30.3622 
 365   0.0000       1.123340        30.5676 
 366   0.0000       1.128157        30.6987 
 367   0.0000       1.130006        30.7490 
 368   0.0000       1.131831        30.7987 
 369   0.0000       1.135745        30.9052 
 370   0.0000       1.139731        31.0136 
 371   0.0000       1.142785        31.0968 
 372   0.0000       1.150345        31.3025 
 373   0.0000       1.160198        31.5706 
 374   0.0000       1.162729        31.6395 
 375   0.0000       1.166593        31.7446 
 376   0.0000       1.169991        31.8371 
 377   0.0000       1.170936        31.8628 
 378   0.0000       1.174509        31.9600 
 379   0.0000       1.178856        32.0783 
 380   0.0000       1.185364        32.2554 
 381   0.0000       1.190357        32.3913 
 382   0.0000       1.192703        32.4551 
 383   0.0000       1.202493        32.7215 
 384   0.0000       1.204250        32.7693 
 385   0.0000       1.205135        32.7934 
 386   0.0000       1.210206        32.9314 
 387   0.0000       1.218551        33.1585 
 388   0.0000       1.219823        33.1931 
 389   0.0000       1.222758        33.2729 
 390   0.0000       1.228499        33.4292 
 391   0.0000       1.237004        33.6606 
 392   0.0000       1.242731        33.8164 
 393   0.0000       1.244474        33.8639 
 394   0.0000       1.249043        33.9882 
 395   0.0000       1.250173        34.0189 
 396   0.0000       1.255994        34.1773 
 397   0.0000       1.263196        34.3733 
 398   0.0000       1.267104        34.4797 
 399   0.0000       1.274273        34.6747 
 400   0.0000       1.276052        34.7231 
 401   0.0000       1.282278        34.8925 
 402   0.0000       1.298186        35.3254 
 403   0.0000       1.299736        35.3676 
 404   0.0000       1.303660        35.4744 
 405   0.0000       1.308005        35.5926 
 406   0.0000       1.316937        35.8357 
 407   0.0000       1.319966        35.9181 
 408   0.0000       1.320747        35.9394 
 409   0.0000       1.326357        36.0920 
 410   0.0000       1.331584        36.2342 
 411   0.0000       1.333981        36.2995 
 412   0.0000       1.341182        36.4954 
 413   0.0000       1.346080        36.6287 
 414   0.0000       1.350620        36.7522 
 415   0.0000       1.355024        36.8721 
 416   0.0000       1.363519        37.1032 
 417   0.0000       1.369400        37.2633 
 418   0.0000       1.374027        37.3892 
 419   0.0000       1.388009        37.7697 
 420   0.0000       1.392018        37.8787 
 421   0.0000       1.398468        38.0543 
 422   0.0000       1.403146        38.1816 
 423   0.0000       1.407169        38.2910 
 424   0.0000       1.410372        38.3782 
 425   0.0000       1.413749        38.4701 
 426   0.0000       1.423035        38.7228 
 427   0.0000       1.426804        38.8253 
 428   0.0000       1.433539        39.0086 
 429   0.0000       1.439983        39.1839 
 430   0.0000       1.442768        39.2597 
 431   0.0000       1.445763        39.3412 
 432   0.0000       1.454498        39.5789 
 433   0.0000       1.458955        39.7002 
 434   0.0000       1.463606        39.8268 
 435   0.0000       1.467401        39.9300 
 436   0.0000       1.470655        40.0186 
 437   0.0000       1.476807        40.1860 
 438   0.0000       1.484761        40.4024 
 439   0.0000       1.489277        40.5253 
 440   0.0000       1.493242        40.6332 
 441   0.0000       1.497258        40.7425 
 442   0.0000       1.505879        40.9771 
 443   0.0000       1.514752        41.2185 
 444   0.0000       1.517908        41.3044 
 445   0.0000       1.524489        41.4835 
 446   0.0000       1.526088        41.5270 
 447   0.0000       1.529973        41.6327 
 448   0.0000       1.537413        41.8351 
 449   0.0000       1.543789        42.0086 
 450   0.0000       1.548317        42.1318 
 451   0.0000       1.552647        42.2497 
 452   0.0000       1.556719        42.3605 
 453   0.0000       1.562432        42.5159 
 454   0.0000       1.565845        42.6088 
 455   0.0000       1.567366        42.6502 
 456   0.0000       1.571733        42.7690 
 457   0.0000       1.581402        43.0321 
 458   0.0000       1.585307        43.1384 
 459   0.0000       1.592060        43.3221 
 460   0.0000       1.593636        43.3650 
 461   0.0000       1.596342        43.4387 
 462   0.0000       1.603642        43.6373 
 463   0.0000       1.606695        43.7204 
 464   0.0000       1.613905        43.9166 
 465   0.0000       1.618706        44.0472 
 466   0.0000       1.622165        44.1414 
 467   0.0000       1.635454        44.5030 
 468   0.0000       1.643343        44.7176 
 469   0.0000       1.644780        44.7567 
 470   0.0000       1.651649        44.9437 
 471   0.0000       1.652780        44.9744 
 472   0.0000       1.657150        45.0934 
 473   0.0000       1.668108        45.3915 
 474   0.0000       1.673243        45.5313 
 475   0.0000       1.676619        45.6231 
 476   0.0000       1.685524        45.8655 
 477   0.0000       1.687903        45.9302 
 478   0.0000       1.692257        46.0487 
 479   0.0000       1.700898        46.2838 
 480   0.0000       1.702876        46.3376 
 481   0.0000       1.707643        46.4673 
 482   0.0000       1.711099        46.5614 
 483   0.0000       1.715400        46.6784 
 484   0.0000       1.719996        46.8035 
 485   0.0000       1.726843        46.9898 
 486   0.0000       1.736915        47.2639 
 487   0.0000       1.740748        47.3682 
 488   0.0000       1.748636        47.5828 
 489   0.0000       1.751728        47.6669 
 490   0.0000       1.753639        47.7189 
 491   0.0000       1.757833        47.8331 
 492   0.0000       1.763069        47.9755 
 493   0.0000       1.771399        48.2022 
 494   0.0000       1.777771        48.3756 
 495   0.0000       1.784674        48.5634 
 496   0.0000       1.785316        48.5809 
 497   0.0000       1.791094        48.7381 
 498   0.0000       1.791805        48.7575 
 499   0.0000       1.798566        48.9415 
 500   0.0000       1.800931        49.0058 
 501   0.0000       1.812127        49.3105 
 502   0.0000       1.821396        49.5627 
 503   0.0000       1.824247        49.6403 
 504   0.0000       1.828085        49.7447 
 505   0.0000       1.831049        49.8254 
 506   0.0000       1.837124        49.9907 
 507   0.0000       1.842429        50.1350 
 508   0.0000       1.848509        50.3005 
 509   0.0000       1.853145        50.4266 
 510   0.0000       1.859180        50.5909 
 511   0.0000       1.861957        50.6664 
 512   0.0000       1.867617        50.8204 
 513   0.0000       1.871854        50.9357 
 514   0.0000       1.875851        51.0445 
 515   0.0000       1.880878        51.1813 
 516   0.0000       1.886264        51.3278 
 517   0.0000       1.891448        51.4689 
 518   0.0000       1.898893        51.6715 
 519   0.0000       1.905240        51.8442 
 520   0.0000       1.910043        51.9749 
 521   0.0000       1.913848        52.0785 
 522   0.0000       1.918944        52.2171 
 523   0.0000       1.930995        52.5450 
 524   0.0000       1.933995        52.6267 
 525   0.0000       1.934973        52.6533 
 526   0.0000       1.944078        52.9010 
 527   0.0000       1.950840        53.0851 
 528   0.0000       1.953165        53.1483 
 529   0.0000       1.961731        53.3814 
 530   0.0000       1.968111        53.5550 
 531   0.0000       1.968920        53.5770 
 532   0.0000       1.979500        53.8649 
 533   0.0000       1.987163        54.0735 
 534   0.0000       1.991798        54.1996 
 535   0.0000       1.992297        54.2131 
 536   0.0000       1.999374        54.4057 
 537   0.0000       2.005739        54.5789 
 538   0.0000       2.011578        54.7378 
 539   0.0000       2.021765        55.0150 
 540   0.0000       2.026300        55.1384 
 541   0.0000       2.035495        55.3886 
 542   0.0000       2.039280        55.4916 
 543   0.0000       2.044666        55.6382 
 544   0.0000       2.045465        55.6599 
 545   0.0000       2.063859        56.1605 
 546   0.0000       2.067742        56.2661 
 547   0.0000       2.077598        56.5343 
 548   0.0000       2.085164        56.7402 
 549   0.0000       2.091825        56.9214 
 550   0.0000       2.099164        57.1212 
 551   0.0000       2.100053        57.1454 
 552   0.0000       2.102208        57.2040 
 553   0.0000       2.106198        57.3126 
 554   0.0000       2.116930        57.6046 
 555   0.0000       2.127667        57.8968 
 556   0.0000       2.131100        57.9902 
 557   0.0000       2.145013        58.3688 
 558   0.0000       2.151895        58.5560 
 559   0.0000       2.165335        58.9218 
 560   0.0000       2.171538        59.0906 
 561   0.0000       2.175077        59.1869 
 562   0.0000       2.183361        59.4123 
 563   0.0000       2.187004        59.5114 
 564   0.0000       2.197844        59.8064 
 565   0.0000       2.206478        60.0413 
 566   0.0000       2.208626        60.0998 
 567   0.0000       2.216240        60.3070 
 568   0.0000       2.223725        60.5106 
 569   0.0000       2.228861        60.6504 
 570   0.0000       2.237176        60.8767 
 571   0.0000       2.240486        60.9667 
 572   0.0000       2.247495        61.1575 
 573   0.0000       2.254653        61.3522 
 574   0.0000       2.270902        61.7944 
 575   0.0000       2.275747        61.9262 
 576   0.0000       2.285731        62.1979 
 577   0.0000       2.290118        62.3173 
 578   0.0000       2.293966        62.4220 
 579   0.0000       2.297184        62.5096 
 580   0.0000       2.303591        62.6839 
 581   0.0000       2.310181        62.8632 
 582   0.0000       2.315865        63.0179 
 583   0.0000       2.322839        63.2077 
 584   0.0000       2.331048        63.4310 
 585   0.0000       2.342221        63.7351 
 586   0.0000       2.353311        64.0369 
 587   0.0000       2.360152        64.2230 
 588   0.0000       2.364824        64.3501 
 589   0.0000       2.372009        64.5457 
 590   0.0000       2.384990        64.8989 
 591   0.0000       2.390306        65.0435 
 592   0.0000       2.393296        65.1249 
 593   0.0000       2.395860        65.1947 
 594   0.0000       2.409411        65.5634 
 595   0.0000       2.414926        65.7135 
 596   0.0000       2.420231        65.8578 
 597   0.0000       2.428629        66.0863 
 598   0.0000       2.434659        66.2504 
 599   0.0000       2.439938        66.3941 
 600   0.0000       2.452024        66.7230 
 601   0.0000       2.459185        66.9178 
 602   0.0000       2.471346        67.2487 
 603   0.0000       2.479852        67.4802 
 604   0.0000       2.484327        67.6020 
 605   0.0000       2.492541        67.8255 
 606   0.0000       2.501497        68.0692 
 607   0.0000       2.515754        68.4571 
 608   0.0000       2.518376        68.5285 
 609   0.0000       2.542341        69.1806 
 610   0.0000       2.551353        69.4258 
 611   0.0000       2.559431        69.6457 
 612   0.0000       2.568482        69.8919 
 613   0.0000       2.586718        70.3882 
 614   0.0000       2.600774        70.7707 
 615   0.0000       2.621748        71.3414 
 616   0.0000       2.631340        71.6024 
 617   0.0000       2.636479        71.7422 
 618   0.0000       2.650737        72.1302 
 619   0.0000       2.661620        72.4264 
 620   0.0000       2.667638        72.5901 
 621   0.0000       2.681989        72.9806 
 622   0.0000       2.688653        73.1620 
 623   0.0000       2.702476        73.5381 
 624   0.0000       2.703067        73.5542 
 625   0.0000       2.704961        73.6057 
 626   0.0000       2.719259        73.9948 
 627   0.0000       2.732773        74.3625 
 628   0.0000       2.738063        74.5065 
 629   0.0000       2.740329        74.5681 
 630   0.0000       2.756812        75.0167 
 631   0.0000       2.763420        75.1965 
 632   0.0000       2.774190        75.4895 
 633   0.0000       2.779227        75.6266 
 634   0.0000       2.789798        75.9143 
 635   0.0000       2.799999        76.1919 
 636   0.0000       2.802234        76.2527 
 637   0.0000       2.835221        77.1503 
 638   0.0000       2.852136        77.6106 
 639   0.0000       2.860781        77.8458 
 640   0.0000       2.866865        78.0114 
 641   0.0000       2.877544        78.3019 
 642   0.0000       2.887527        78.5736 
 643   0.0000       2.909551        79.1729 
 644   0.0000       2.914840        79.3168 
 645   0.0000       2.932277        79.7913 
 646   0.0000       2.950993        80.3006 
 647   0.0000       2.954085        80.3847 
 648   0.0000       2.962158        80.6044 
 649   0.0000       2.975292        80.9618 
 650   0.0000       2.990797        81.3837 
 651   0.0000       3.011179        81.9383 
 652   0.0000       3.027083        82.3711 
 653   0.0000       3.041597        82.7661 
 654   0.0000       3.058732        83.2323 
 655   0.0000       3.061147        83.2981 
 656   0.0000       3.086658        83.9922 
 657   0.0000       3.091868        84.1340 
 658   0.0000       3.105335        84.5005 
 659   0.0000       3.132922        85.2512 
 660   0.0000       3.156519        85.8933 
 661   0.0000       3.163251        86.0764 
 662   0.0000       3.175593        86.4123 
 663   0.0000       3.177989        86.4775 
 664   0.0000       3.184977        86.6676 
 665   0.0000       3.194785        86.9345 
 666   0.0000       3.217386        87.5495 
 667   0.0000       3.219060        87.5951 
 668   0.0000       3.225798        87.7784 
 669   0.0000       3.235577        88.0445 
 670   0.0000       3.243994        88.2736 
 671   0.0000       3.249200        88.4152 
 672   0.0000       3.257698        88.6465 
 673   0.0000       3.281015        89.2810 
 674   0.0000       3.297002        89.7160 
 675   0.0000       3.306212        89.9666 
 676   0.0000       3.311204        90.1025 
 677   0.0000       3.314324        90.1873 
 678   0.0000       3.326790        90.5266 
 679   0.0000       3.332618        90.6851 
 680   0.0000       3.341741        90.9334 
 681   0.0000       3.347479        91.0895 
 682   0.0000       3.363662        91.5299 
 683   0.0000       3.371659        91.7475 
 684   0.0000       3.381740        92.0218 
 685   0.0000       3.384306        92.0917 
 686   0.0000       3.404377        92.6378 
 687   0.0000       3.409605        92.7801 
 688   0.0000       3.415038        92.9279 
 689   0.0000       3.419416        93.0470 
 690   0.0000       3.423426        93.1562 
 691   0.0000       3.442998        93.6887 
 692   0.0000       3.451941        93.9321 
 693   0.0000       3.466781        94.3359 
 694   0.0000       3.482185        94.7551 
 695   0.0000       3.486626        94.8759 
 696   0.0000       3.496532        95.1455 
 697   0.0000       3.502897        95.3187 
 698   0.0000       3.505964        95.4021 
 699   0.0000       3.518790        95.7511 
 700   0.0000       3.523530        95.8801 
 701   0.0000       3.528778        96.0229 
 702   0.0000       3.531881        96.1074 
 703   0.0000       3.542916        96.4077 
 704   0.0000       3.546773        96.5126 
 705   0.0000       3.561575        96.9154 
 706   0.0000       3.575280        97.2883 
 707   0.0000       3.583279        97.5060 
 708   0.0000       3.595091        97.8274 
 709   0.0000       3.603162        98.0470 
 710   0.0000       3.605822        98.1194 
 711   0.0000       3.615527        98.3835 
 712   0.0000       3.621510        98.5463 
 713   0.0000       3.625427        98.6529 
 714   0.0000       3.638683        99.0136 
 715   0.0000       3.648474        99.2800 
 716   0.0000       3.662583        99.6640 
 717   0.0000       3.665780        99.7509 
 718   0.0000       3.667433        99.7959 
 719   0.0000       3.677277       100.0638 
 720   0.0000       3.689632       100.4000 
 721   0.0000       3.698788       100.6491 
 722   0.0000       3.706318       100.8540 
 723   0.0000       3.711350       100.9910 
 724   0.0000       3.720826       101.2488 
 725   0.0000       3.725767       101.3833 
 726   0.0000       3.730585       101.5144 
 727   0.0000       3.739560       101.7586 
 728   0.0000       3.752511       102.1110 
 729   0.0000       3.756997       102.2331 
 730   0.0000       3.765388       102.4614 
 731   0.0000       3.776205       102.7558 
 732   0.0000       3.788248       103.0835 
 733   0.0000       3.789573       103.1195 
 734   0.0000       3.796852       103.3176 
 735   0.0000       3.801971       103.4569 
 736   0.0000       3.812782       103.7511 
 737   0.0000       3.824227       104.0625 
 738   0.0000       3.826853       104.1340 
 739   0.0000       3.839982       104.4912 
 740   0.0000       3.845282       104.6354 
 741   0.0000       3.853532       104.8599 
 742   0.0000       3.862521       105.1045 
 743   0.0000       3.865986       105.1988 
 744   0.0000       3.878475       105.5387 
 745   0.0000       3.880637       105.5975 
 746   0.0000       3.884431       105.7007 
 747   0.0000       3.887213       105.7764 
 748   0.0000       3.894415       105.9724 
 749   0.0000       3.901804       106.1735 
 750   0.0000       3.906364       106.2976 
 751   0.0000       3.911982       106.4504 
 752   0.0000       3.921389       106.7064 
 753   0.0000       3.922288       106.7309 
 754   0.0000       3.931996       106.9950 
 755   0.0000       3.940670       107.2311 
 756   0.0000       3.943692       107.3133 
 757   0.0000       3.945543       107.3637 
 758   0.0000       3.960632       107.7743 
 759   0.0000       3.964336       107.8751 
 760   0.0000       3.972866       108.1072 
 761   0.0000       3.974187       108.1431 
 762   0.0000       3.982226       108.3619 
 763   0.0000       3.998725       108.8108 
 764   0.0000       4.007601       109.0524 
 765   0.0000       4.013950       109.2251 
 766   0.0000       4.021806       109.4389 
 767   0.0000       4.035998       109.8251 
 768   0.0000       4.038564       109.8949 
 769   0.0000       4.042078       109.9905 
 770   0.0000       4.052817       110.2828 
 771   0.0000       4.067868       110.6923 
 772   0.0000       4.074990       110.8861 
 773   0.0000       4.082006       111.0770 
 774   0.0000       4.082601       111.0932 
 775   0.0000       4.088744       111.2604 
 776   0.0000       4.092928       111.3742 
 777   0.0000       4.109863       111.8351 
 778   0.0000       4.118498       112.0700 
 779   0.0000       4.125947       112.2727 
 780   0.0000       4.130085       112.3853 
 781   0.0000       4.135526       112.5334 
 782   0.0000       4.149941       112.9256 
 783   0.0000       4.156717       113.1100 
 784   0.0000       4.164668       113.3264 
 785   0.0000       4.175424       113.6191 
 786   0.0000       4.180061       113.7452 
 787   0.0000       4.188853       113.9845 
 788   0.0000       4.199470       114.2734 
 789   0.0000       4.204291       114.4046 
 790   0.0000       4.208737       114.5256 
 791   0.0000       4.213339       114.6508 
 792   0.0000       4.217617       114.7672 
 793   0.0000       4.234204       115.2186 
 794   0.0000       4.248201       115.5994 
 795   0.0000       4.249725       115.6409 
 796   0.0000       4.259664       115.9113 
 797   0.0000       4.268578       116.1539 
 798   0.0000       4.273379       116.2846 
 799   0.0000       4.289614       116.7263 
 800   0.0000       4.295584       116.8888 
 801   0.0000       4.303271       117.0980 
 802   0.0000       4.307159       117.2038 
 803   0.0000       4.322047       117.6089 
 804   0.0000       4.334782       117.9554 
 805   0.0000       4.339665       118.0883 
 806   0.0000       4.343353       118.1887 
 807   0.0000       4.349875       118.3661 
 808   0.0000       4.358630       118.6044 
 809   0.0000       4.369502       118.9002 
 810   0.0000       4.387603       119.3927 
 811   0.0000       4.397089       119.6509 
 812   0.0000       4.406476       119.9063 
 813   0.0000       4.417975       120.2192 
 814   0.0000       4.432041       120.6020 
 815   0.0000       4.434426       120.6669 
 816   0.0000       4.443587       120.9162 
 817   0.0000       4.450164       121.0951 
 818   0.0000       4.455813       121.2488 
 819   0.0000       4.464685       121.4902 
 820   0.0000       4.469137       121.6114 
 821   0.0000       4.482291       121.9693 
 822   0.0000       4.484112       122.0189 
 823   0.0000       4.503716       122.5523 
 824   0.0000       4.508177       122.6737 
 825   0.0000       4.521202       123.0282 
 826   0.0000       4.527885       123.2100 
 827   0.0000       4.535795       123.4253 
 828   0.0000       4.546458       123.7154 
 829   0.0000       4.564708       124.2120 
 830   0.0000       4.581787       124.6768 
 831   0.0000       4.593709       125.0012 
 832   0.0000       4.606278       125.3432 
 833   0.0000       4.619218       125.6953 
 834   0.0000       4.624530       125.8399 
 835   0.0000       4.633680       126.0888 
 836   0.0000       4.642777       126.3364 
 837   0.0000       4.648702       126.4976 
 838   0.0000       4.659014       126.7782 
 839   0.0000       4.665621       126.9580 
 840   0.0000       4.683810       127.4529 
 841   0.0000       4.695971       127.7839 
 842   0.0000       4.709495       128.1519 
 843   0.0000       4.713405       128.2583 
 844   0.0000       4.721663       128.4830 
 845   0.0000       4.736313       128.8816 
 846   0.0000       4.756987       129.4442 
 847   0.0000       4.765694       129.6811 
 848   0.0000       4.783174       130.1568 
 849   0.0000       4.791884       130.3938 
 850   0.0000       4.799090       130.5899 
 851   0.0000       4.815000       131.0228 
 852   0.0000       4.819665       131.1498 
 853   0.0000       4.825478       131.3079 
 854   0.0000       4.849865       131.9715 
 855   0.0000       4.855555       132.1264 
 856   0.0000       4.881345       132.8282 
 857   0.0000       4.882478       132.8590 
 858   0.0000       4.899297       133.3166 
 859   0.0000       4.919455       133.8652 
 860   0.0000       4.922932       133.9598 
 861   0.0000       4.929051       134.1263 
 862   0.0000       4.942274       134.4861 
 863   0.0000       4.944910       134.5578 
 864   0.0000       4.951267       134.7308 
 865   0.0000       4.957874       134.9106 
 866   0.0000       4.970242       135.2472 
 867   0.0000       4.984748       135.6419 
 868   0.0000       4.996151       135.9522 
 869   0.0000       5.006461       136.2327 
 870   0.0000       5.019810       136.5960 
 871   0.0000       5.025890       136.7614 
 872   0.0000       5.037150       137.0678 
 873   0.0000       5.050438       137.4294 
 874   0.0000       5.057193       137.6132 
 875   0.0000       5.072457       138.0286 
 876   0.0000       5.089141       138.4826 
 877   0.0000       5.096592       138.6853 
 878   0.0000       5.115621       139.2031 
 879   0.0000       5.128845       139.5630 
 880   0.0000       5.132117       139.6520 
 881   0.0000       5.151381       140.1762 
 882   0.0000       5.157320       140.3378 
 883   0.0000       5.174037       140.7927 
 884   0.0000       5.187215       141.1513 
 885   0.0000       5.198404       141.4558 
 886   0.0000       5.215797       141.9290 
 887   0.0000       5.225970       142.2059 
 888   0.0000       5.249793       142.8541 
 889   0.0000       5.253938       142.9669 
 890   0.0000       5.266073       143.2971 
 891   0.0000       5.273639       143.5030 
 892   0.0000       5.281622       143.7203 
 893   0.0000       5.294183       144.0620 
 894   0.0000       5.312148       144.5509 
 895   0.0000       5.336078       145.2021 
 896   0.0000       5.349867       145.5773 
 897   0.0000       5.359143       145.8297 
 898   0.0000       5.364073       145.9638 
 899   0.0000       5.374427       146.2456 
 900   0.0000       5.396324       146.8414 
 901   0.0000       5.404779       147.0715 
 902   0.0000       5.408297       147.1673 
 903   0.0000       5.419718       147.4780 
 904   0.0000       5.433065       147.8412 
 905   0.0000       5.443846       148.1346 
 906   0.0000       5.449906       148.2995 
 907   0.0000       5.464396       148.6938 
 908   0.0000       5.478925       149.0891 
 909   0.0000       5.493263       149.4793 
 910   0.0000       5.511132       149.9655 
 911   0.0000       5.516648       150.1156 
 912   0.0000       5.541124       150.7817 
 913   0.0000       5.548535       150.9833 
 914   0.0000       5.560074       151.2973 
 915   0.0000       5.566952       151.4845 
 916   0.0000       5.584398       151.9592 
 917   0.0000       5.595612       152.2644 
 918   0.0000       5.601758       152.4316 
 919   0.0000       5.613529       152.7519 
 920   0.0000       5.629962       153.1991 
 921   0.0000       5.642004       153.5267 
 922   0.0000       5.646345       153.6449 
 923   0.0000       5.658359       153.9718 
 924   0.0000       5.660942       154.0421 
 925   0.0000       5.668396       154.2449 
 926   0.0000       5.688609       154.7949 
 927   0.0000       5.689711       154.8249 
 928   0.0000       5.705480       155.2540 
 929   0.0000       5.709002       155.3498 
 930   0.0000       5.715543       155.5278 
 931   0.0000       5.734637       156.0474 
 932   0.0000       5.741586       156.2365 
 933   0.0000       5.767543       156.9428 
 934   0.0000       5.782549       157.3512 
 935   0.0000       5.788530       157.5139 
 936   0.0000       5.800937       157.8515 
 937   0.0000       5.821066       158.3993 
 938   0.0000       5.838090       158.8625 
 939   0.0000       5.852975       159.2675 
 940   0.0000       5.870662       159.7488 
 941   0.0000       5.886576       160.1819 
 942   0.0000       5.895827       160.4336 
 943   0.0000       5.910486       160.8325 
 944   0.0000       5.931292       161.3987 
 945   0.0000       5.972845       162.5294 
 946   0.0000       5.996285       163.1672 
 947   0.0000       6.064430       165.0215 
 948   0.0000       6.116796       166.4465 
 949   0.0000       6.144398       167.1976 
 950   0.0000       6.148072       167.2975 
 951   0.0000       6.160752       167.6426 
 952   0.0000       6.181749       168.2139 
 953   0.0000       6.202666       168.7831 
 954   0.0000       6.217391       169.1838 
 955   0.0000       6.225904       169.4155 
 956   0.0000       6.239320       169.7805 
 957   0.0000       6.242236       169.8599 
 958   0.0000       6.254117       170.1832 
 959   0.0000       6.275343       170.7608 
 960   0.0000       6.291725       171.2066 
 961   0.0000       6.326763       172.1600 
 962   0.0000       6.352020       172.8472 
 963   0.0000       6.368461       173.2946 
 964   0.0000       6.391198       173.9133 
 965   0.0000       6.405923       174.3140 
 966   0.0000       6.422501       174.7651 
 967   0.0000       6.449578       175.5019 
 968   0.0000       6.484918       176.4636 
 969   0.0000       6.522779       177.4938 
 970   0.0000       6.611802       179.9163 
 971   0.0000       6.705583       182.4682 
 972   0.0000       6.823968       185.6896 
 973   0.0000       6.859667       186.6610 
 974   0.0000       6.881580       187.2573 
 975   0.0000       6.907367       187.9590 
 976   0.0000       6.929383       188.5581 
 977   0.0000       6.942026       188.9021 
 978   0.0000       6.956320       189.2911 
 979   0.0000       6.991716       190.2543 
 980   0.0000       7.014345       190.8700 
 981   0.0000       7.034175       191.4096 
 982   0.0000       7.090210       192.9344 
 983   0.0000       7.098414       193.1577 
 984   0.0000       7.164896       194.9667 
 985   0.0000       7.198199       195.8729 
 986   0.0000       7.355742       200.1599 
 987   0.0000       7.407802       201.5765 
 988   0.0000       7.518413       204.5864 
 989   0.0000       7.555473       205.5949 
 990   0.0000       7.581185       206.2945 
 991   0.0000       7.628375       207.5786 
 992   0.0000       7.730889       210.3682 
 993   0.0000       7.789110       211.9525 
 994   0.0000       7.848695       213.5738 
 995   0.0000       7.876902       214.3414 
 996   0.0000       8.066494       219.5004 
 997   0.0000       8.164549       222.1687 
 998   0.0000       8.381154       228.0628 
 999   0.0000       9.442011       256.9302 
 1000   0.0000       9.452727       257.2218 
 1001   0.0000       9.475128       257.8313 
 1002   0.0000       9.494515       258.3589 
 1003   0.0000       9.498321       258.4625 
 1004   0.0000       9.533439       259.4181 
 1005   0.0000       9.794209       266.5140 
 1006   0.0000      10.104652       274.9616 
 1007   0.0000      10.135498       275.8009 
 1008   0.0000      10.154449       276.3166 
 1009   0.0000      10.222481       278.1678 
 1010   0.0000      10.231649       278.4173 
 1011   0.0000      10.259640       279.1790 
 1012   0.0000      10.420571       283.5582 
 1013   0.0000      10.445210       284.2286 
 1014   0.0000      10.588067       288.1160 
 1015   0.0000      17.137656       466.3393 
 1016   0.0000      17.816455       484.8104 
 1017   0.0000      18.533288       504.3164 
 1018   0.0000      18.687694       508.5180 
 1019   0.0000      18.922888       514.9180 
 1020   0.0000      19.050843       518.3998 
 1021   0.0000      19.538546       531.6709 
 1022   0.0000      20.052427       545.6543 
 1023   0.0000      20.575538       559.8889 
 1024   0.0000      21.948476       597.2484 

                 SPIN DOWN ORBITALS
  NO   OCC          E(Eh)            E(eV) 
   0   1.0000    -261.543033     -7116.9478 
   1   1.0000    -104.772976     -2851.0176 
   2   1.0000    -104.772829     -2851.0136 
   3   1.0000    -104.768898     -2850.9066 
   4   1.0000     -32.052401      -872.1902 
   5   1.0000     -27.530524      -749.1436 
   6   1.0000     -27.530321      -749.1381 
   7   1.0000     -27.529773      -749.1232 
   8   1.0000     -20.538612      -558.8840 
   9   1.0000     -11.392672      -310.0104 
  10   1.0000     -11.365971      -309.2838 
  11   1.0000     -11.285880      -307.1044 
  12   1.0000     -11.279733      -306.9371 
  13   1.0000     -11.274375      -306.7913 
  14   1.0000     -11.263864      -306.5053 
  15   1.0000     -11.246410      -306.0304 
  16   1.0000     -11.240778      -305.8771 
  17   1.0000     -10.499359      -285.7021 
  18   1.0000     -10.499314      -285.7009 
  19   1.0000     -10.495324      -285.5923 
  20   1.0000      -7.965299      -216.7468 
  21   1.0000      -7.965172      -216.7433 
  22   1.0000      -7.964751      -216.7319 
  23   1.0000      -7.964704      -216.7306 
  24   1.0000      -7.964654      -216.7293 
  25   1.0000      -7.964630      -216.7286 
  26   1.0000      -7.961299      -216.6379 
  27   1.0000      -7.960558      -216.6178 
  28   1.0000      -7.960485      -216.6158 
  29   1.0000      -4.127726      -112.3211 
  30   1.0000      -2.649574       -72.0986 
  31   1.0000      -2.649459       -72.0954 
  32   1.0000      -2.648854       -72.0790 
  33   1.0000      -1.358371       -36.9631 
  34   1.0000      -1.183904       -32.2157 
  35   1.0000      -1.083987       -29.4968 
  36   1.0000      -1.039928       -28.2979 
  37   1.0000      -1.031266       -28.0622 
  38   1.0000      -1.020996       -27.7827 
  39   1.0000      -1.017260       -27.6811 
  40   1.0000      -1.011777       -27.5319 
  41   1.0000      -0.973929       -26.5019 
  42   1.0000      -0.933310       -25.3966 
  43   1.0000      -0.795442       -21.6451 
  44   1.0000      -0.769844       -20.9485 
  45   1.0000      -0.702963       -19.1286 
  46   1.0000      -0.691317       -18.8117 
  47   1.0000      -0.675827       -18.3902 
  48   1.0000      -0.647166       -17.6103 
  49   1.0000      -0.635683       -17.2978 
  50   1.0000      -0.629429       -17.1276 
  51   1.0000      -0.600633       -16.3441 
  52   1.0000      -0.597282       -16.2529 
  53   1.0000      -0.593485       -16.1495 
  54   1.0000      -0.582180       -15.8419 
  55   1.0000      -0.577809       -15.7230 
  56   1.0000      -0.559838       -15.2340 
  57   1.0000      -0.556158       -15.1338 
  58   1.0000      -0.542155       -14.7528 
  59   1.0000      -0.532905       -14.5011 
  60   1.0000      -0.524396       -14.2695 
  61   1.0000      -0.500750       -13.6261 
  62   1.0000      -0.470442       -12.8014 
  63   1.0000      -0.463963       -12.6251 
  64   1.0000      -0.457254       -12.4425 
  65   1.0000      -0.435599       -11.8532 
  66   1.0000      -0.431931       -11.7534 
  67   1.0000      -0.431495       -11.7416 
  68   1.0000      -0.424706       -11.5568 
  69   1.0000      -0.410365       -11.1666 
  70   1.0000      -0.398474       -10.8430 
  71   1.0000      -0.393055       -10.6956 
  72   0.0000       0.006796         0.1849 
  73   0.0000       0.017660         0.4806 
  74   0.0000       0.021092         0.5739 
  75   0.0000       0.024153         0.6572 
  76   0.0000       0.030269         0.8237 
  77   0.0000       0.037414         1.0181 
  78   0.0000       0.040203         1.0940 
  79   0.0000       0.043807         1.1921 
  80   0.0000       0.043991         1.1970 
  81   0.0000       0.047119         1.2822 
  82   0.0000       0.056261         1.5309 
  83   0.0000       0.060117         1.6359 
  84   0.0000       0.060945         1.6584 
  85   0.0000       0.064787         1.7629 
  86   0.0000       0.066967         1.8223 
  87   0.0000       0.071053         1.9334 
  88   0.0000       0.072565         1.9746 
  89   0.0000       0.078999         2.1497 
  90   0.0000       0.088222         2.4006 
  91   0.0000       0.089442         2.4338 
  92   0.0000       0.091015         2.4767 
  93   0.0000       0.093240         2.5372 
  94   0.0000       0.099313         2.7024 
  95   0.0000       0.101737         2.7684 
  96   0.0000       0.109757         2.9866 
  97   0.0000       0.114832         3.1247 
  98   0.0000       0.118609         3.2275 
  99   0.0000       0.122661         3.3378 
 100   0.0000       0.123451         3.3593 
 101   0.0000       0.126264         3.4358 
 102   0.0000       0.126941         3.4542 
 103   0.0000       0.127874         3.4796 
 104   0.0000       0.130488         3.5507 
 105   0.0000       0.130935         3.5629 
 106   0.0000       0.132644         3.6094 
 107   0.0000       0.134601         3.6627 
 108   0.0000       0.138065         3.7569 
 109   0.0000       0.139441         3.7944 
 110   0.0000       0.140088         3.8120 
 111   0.0000       0.145281         3.9533 
 112   0.0000       0.148962         4.0535 
 113   0.0000       0.150308         4.0901 
 114   0.0000       0.153737         4.1834 
 115   0.0000       0.155256         4.2247 
 116   0.0000       0.157248         4.2789 
 117   0.0000       0.161427         4.3927 
 118   0.0000       0.164468         4.4754 
 119   0.0000       0.167426         4.5559 
 120   0.0000       0.170416         4.6372 
 121   0.0000       0.175029         4.7628 
 122   0.0000       0.177615         4.8332 
 123   0.0000       0.178164         4.8481 
 124   0.0000       0.185813         5.0562 
 125   0.0000       0.189170         5.1476 
 126   0.0000       0.193363         5.2617 
 127   0.0000       0.194895         5.3034 
 128   0.0000       0.200419         5.4537 
 129   0.0000       0.201922         5.4946 
 130   0.0000       0.205060         5.5800 
 131   0.0000       0.208459         5.6725 
 132   0.0000       0.209805         5.7091 
 133   0.0000       0.212499         5.7824 
 134   0.0000       0.217523         5.9191 
 135   0.0000       0.222985         6.0677 
 136   0.0000       0.226232         6.1561 
 137   0.0000       0.230908         6.2833 
 138   0.0000       0.235239         6.4012 
 139   0.0000       0.236937         6.4474 
 140   0.0000       0.239799         6.5253 
 141   0.0000       0.241751         6.5784 
 142   0.0000       0.244958         6.6656 
 143   0.0000       0.247158         6.7255 
 144   0.0000       0.250625         6.8198 
 145   0.0000       0.253183         6.8895 
 146   0.0000       0.257345         7.0027 
 147   0.0000       0.260428         7.0866 
 148   0.0000       0.262741         7.1495 
 149   0.0000       0.266188         7.2433 
 150   0.0000       0.269109         7.3228 
 151   0.0000       0.279165         7.5965 
 152   0.0000       0.282405         7.6846 
 153   0.0000       0.286998         7.8096 
 154   0.0000       0.291071         7.9204 
 155   0.0000       0.295718         8.0469 
 156   0.0000       0.302658         8.2357 
 157   0.0000       0.303676         8.2634 
 158   0.0000       0.308775         8.4022 
 159   0.0000       0.310157         8.4398 
 160   0.0000       0.313400         8.5280 
 161   0.0000       0.317020         8.6266 
 162   0.0000       0.319860         8.7038 
 163   0.0000       0.322437         8.7740 
 164   0.0000       0.328157         8.9296 
 165   0.0000       0.330524         8.9940 
 166   0.0000       0.336361         9.1528 
 167   0.0000       0.344966         9.3870 
 168   0.0000       0.346042         9.4163 
 169   0.0000       0.348587         9.4855 
 170   0.0000       0.350855         9.5472 
 171   0.0000       0.354420         9.6443 
 172   0.0000       0.362281         9.8582 
 173   0.0000       0.363862         9.9012 
 174   0.0000       0.366822         9.9817 
 175   0.0000       0.371461        10.1080 
 176   0.0000       0.372086        10.1250 
 177   0.0000       0.373910        10.1746 
 178   0.0000       0.378976        10.3125 
 179   0.0000       0.381674        10.3859 
 180   0.0000       0.386391        10.5142 
 181   0.0000       0.387801        10.5526 
 182   0.0000       0.389878        10.6091 
 183   0.0000       0.392354        10.6765 
 184   0.0000       0.396833        10.7984 
 185   0.0000       0.402099        10.9417 
 186   0.0000       0.404027        10.9941 
 187   0.0000       0.406237        11.0543 
 188   0.0000       0.408950        11.1281 
 189   0.0000       0.413986        11.2651 
 190   0.0000       0.417764        11.3679 
 191   0.0000       0.419593        11.4177 
 192   0.0000       0.423461        11.5230 
 193   0.0000       0.426325        11.6009 
 194   0.0000       0.430133        11.7045 
 195   0.0000       0.436160        11.8685 
 196   0.0000       0.439985        11.9726 
 197   0.0000       0.443510        12.0685 
 198   0.0000       0.451552        12.2874 
 199   0.0000       0.455272        12.3886 
 200   0.0000       0.459544        12.5048 
 201   0.0000       0.462522        12.5859 
 202   0.0000       0.462958        12.5977 
 203   0.0000       0.466508        12.6943 
 204   0.0000       0.469906        12.7868 
 205   0.0000       0.471789        12.8380 
 206   0.0000       0.473508        12.8848 
 207   0.0000       0.476034        12.9535 
 208   0.0000       0.480467        13.0742 
 209   0.0000       0.484040        13.1714 
 210   0.0000       0.489114        13.3095 
 211   0.0000       0.490164        13.3380 
 212   0.0000       0.492821        13.4103 
 213   0.0000       0.497864        13.5476 
 214   0.0000       0.501364        13.6428 
 215   0.0000       0.502034        13.6610 
 216   0.0000       0.505149        13.7458 
 217   0.0000       0.509472        13.8634 
 218   0.0000       0.511372        13.9152 
 219   0.0000       0.513934        13.9849 
 220   0.0000       0.515783        14.0352 
 221   0.0000       0.518950        14.1213 
 222   0.0000       0.524159        14.2631 
 223   0.0000       0.529216        14.4007 
 224   0.0000       0.534165        14.5354 
 225   0.0000       0.536793        14.6069 
 226   0.0000       0.539208        14.6726 
 227   0.0000       0.542816        14.7708 
 228   0.0000       0.544966        14.8293 
 229   0.0000       0.549673        14.9574 
 230   0.0000       0.553403        15.0589 
 231   0.0000       0.555327        15.1112 
 232   0.0000       0.561862        15.2891 
 233   0.0000       0.567346        15.4383 
 234   0.0000       0.571931        15.5630 
 235   0.0000       0.573742        15.6123 
 236   0.0000       0.576018        15.6743 
 237   0.0000       0.582260        15.8441 
 238   0.0000       0.583907        15.8889 
 239   0.0000       0.584767        15.9123 
 240   0.0000       0.592100        16.1119 
 241   0.0000       0.597090        16.2476 
 242   0.0000       0.599937        16.3251 
 243   0.0000       0.601080        16.3562 
 244   0.0000       0.605060        16.4645 
 245   0.0000       0.608413        16.5558 
 246   0.0000       0.614085        16.7101 
 247   0.0000       0.616508        16.7760 
 248   0.0000       0.620846        16.8941 
 249   0.0000       0.625143        17.0110 
 250   0.0000       0.628361        17.0986 
 251   0.0000       0.632045        17.1988 
 252   0.0000       0.634077        17.2541 
 253   0.0000       0.635279        17.2868 
 254   0.0000       0.638971        17.3873 
 255   0.0000       0.648315        17.6415 
 256   0.0000       0.651418        17.7260 
 257   0.0000       0.655022        17.8241 
 258   0.0000       0.660135        17.9632 
 259   0.0000       0.661662        18.0047 
 260   0.0000       0.669733        18.2243 
 261   0.0000       0.674301        18.3487 
 262   0.0000       0.675470        18.3805 
 263   0.0000       0.677455        18.4345 
 264   0.0000       0.686310        18.6754 
 265   0.0000       0.689071        18.7506 
 266   0.0000       0.696695        18.9580 
 267   0.0000       0.697319        18.9750 
 268   0.0000       0.698880        19.0175 
 269   0.0000       0.705495        19.1975 
 270   0.0000       0.712515        19.3885 
 271   0.0000       0.715669        19.4743 
 272   0.0000       0.722331        19.6556 
 273   0.0000       0.723998        19.7010 
 274   0.0000       0.729268        19.8444 
 275   0.0000       0.733630        19.9631 
 276   0.0000       0.735842        20.0233 
 277   0.0000       0.742985        20.2176 
 278   0.0000       0.752752        20.4834 
 279   0.0000       0.754637        20.5347 
 280   0.0000       0.762223        20.7411 
 281   0.0000       0.765918        20.8417 
 282   0.0000       0.767580        20.8869 
 283   0.0000       0.776988        21.1429 
 284   0.0000       0.783361        21.3163 
[...]
  | sigma^2 in % of trace(Dij) retained ...   8.88e+00
  | sigma^2 in % of trace(Dip) retained ...   1.61e+01
  | sigma^2 in % of trace(Dpq) retained ...   1.43e-01
  | Av. % of trace(Di) retained         ...  99.998497442901
  | Av. % of trace(Dp) retained         ...  99.999998551054
  | sigma^2 in % of trace(Di) retained  ...   7.92e-07
  | sigma^2 in % of trace(Dp) retained  ...   9.76e-13
 Distributions of % trace(Dij) recovered:
  |       >= 99.9  ...   105 ( 20.4 % of all IJ-pairs)
  |   [80.0, 90.0) ...    36 (  7.0 % of all IJ-pairs)
  |   [90.0, 99.0) ...   280 ( 54.5 % of all IJ-pairs)
  |   [99.0, 99.9) ...    93 ( 18.1 % of all IJ-pairs)
 Distributions of % trace(Dip) recovered:
  |   [80.0, 90.0) ...    10 (  8.5 % of all IP-pairs)
  |   [90.0, 99.0) ...    65 ( 55.6 % of all IP-pairs)
  |   [99.0, 99.9) ...    42 ( 35.9 % of all IP-pairs)
 Distributions of % trace(Dpq) recovered:
  |       >= 99.9  ...     5 ( 33.3 % of all PQ-pairs)
  |   [99.0, 99.9) ...    10 ( 66.7 % of all PQ-pairs)
 Distributions of % trace(Di) recovered :
  |       >= 99.9  ...    43 (100.0 % of all I-pairs )
 Distributions of % trace(Dp) recovered :
  |       >= 99.9  ...     5 (100.0 % of all P-pairs )

                       ===========================
                       1127 OF 1739 PAIRS ARE KEPT
                       ===========================

 Initial PAO correlation energy (all pairs)    ...  -2.6907290297 Eh
 Energy constituents in PAO basis (Eh):
  | Vijab(+0) ...  -2.2603176206
  | Viab (-1) ...  -0.1758043010
  | Vab  (-2) ...  -0.0573649913
  | Va   (-1) ...  -0.0000417206
  | Vija (+1) ...  -0.0732967193
  | Vij  (+2) ...  -0.0155133379
  | Via  (+0) ...  -0.1082299810
  | Vi   (+1) ...  -0.0001603580
 Initial PNO correlation energy                ...  -2.6558385726 Eh
 Energy constituents in PNO basis (Eh):
  | Vijab(+0) ...  -2.2414804689 (err=  0.0188371516)
  | Viab (-1) ...  -0.1614509964 (err=  0.0143533045)
  | Vab  (-2) ...  -0.0568774105 (err=  0.0004875808)
  | Va   (-1) ...  -0.0000237952 (err=  0.0000179254)
  | Vija (+1) ...  -0.0722733326 (err=  0.0010233867)
  | Vij  (+2) ...  -0.0154597993 (err=  0.0000535386)
  | Via  (+0) ...  -0.1081128361 (err=  0.0001171448)
  | Vi   (+1) ...  -0.0001599335 (err=  0.0000004245)
 Sum of total truncation errors ...   0.0348904571 Eh
  | Pair screening ...   0.0117868403 Eh
  | PNO truncation ...   0.0231036167 Eh

 UMP2 correlation energy (PAO) ...  -2.6858697042
  | alpha-alpha ...  -0.3859140656 (NP_aa=  946)
  | alpha-beta  ...  -1.9935166338 (NP_ab= 1714)
  | beta -beta  ...  -0.3064390048 (NP_bb=  735)
 UMP2 correlation energy (PNO) ...  -2.6506174382
  | alpha-alpha ...  -0.3737535332 (err=  0.0121605324, NP_aa=  598)
  | alpha-beta  ...  -1.9745273051 (err=  0.0189893287, NP_ab= 1102)
  | beta -beta  ...  -0.3023365999 (err=  0.0041024049, NP_bb=  471)
 Sum of total UMP2 truncation errors ...   0.0352522660 Eh
  | Pair screening ...   0.0117981807 Eh
  | PNO truncation ...   0.0234540853 Eh
 Timing for NEV-PNO construction (sec.)
  | Intermediate construction  ..           57.363
  | Amplitude construction     ..           73.965
  | Total time                 ..          131.328
 Making pair pair interaction lists ...      ok
 Total size for 2-ext PNO integrals ...     11.0 MB
Checking the number of SOMO/SOMO doubles PNOs ... 
 #Truncate: (72, 72)[175] -> [84] .. 
 #Truncate: (73, 73)[172] -> [84] .. 
 #Truncate: (74, 74)[172] -> [84] .. 
 #Truncate: (75, 75)[174] -> [84] .. 
 #Truncate: (76, 76)[174] -> [84] .. 

--------------------------------
LOCAL RI TRANSFORMATION (VABPAO)
--------------------------------

Number of PAOs:    1030
Basis functions:   1025 (343 shells)
Aux. functions:    2424 (644 shells)

Processing maps (0.0 sec)
Average map sizes:
   Aux shells -> PAOs           1030.0
   PAOs       -> AO shells       343.0

Calculating integrals (187.7 sec, 37370.165 MB)
Finished
-----------------------------
LOCAL RI TRANSFORMATION (IJV)
-----------------------------

Orbital window:      29 to 76
Basis functions:   1025 (343 shells)
Aux. functions:    2424 (644 shells)

Processing maps (0.0 sec)
Average map sizes:
   Aux shells -> MOs(i)           46.7
   Aux shells -> MOs(j)           48.0
   MOs        -> AO shells       342.0

Calculating integrals (22.4 sec, 41.489 MB)
Sorting integrals (0.3 sec, 41.462 MB)
Total time for the integral transformation: 22.8 sec


-------------------------------------
Pair Pair Term precalculation with     
RI-(ij|mn) and (im|jn) transformation  
ON THE FLY                             
-------------------------------------

   IBatch   1 (of   2)              ... done ( 1081.784 sec)
   IBatch   2 (of   2)              ... done (  998.942 sec)
Total EXT                           ...        2080.726 sec

---------------------
RI-PNO TRANSFORMATION
---------------------

Total Number of PNOs                   ... 34864
Total Number of IJ-PNOs                ... 30698
Total Number of IP-PNOs                ...  3222
Total Number of PQ-PNOs                ...   944
Total Number of IJ-pairs               ...   985
Total Number of PI-pairs               ...   117
Total Number of PQ-pairs               ...    25
Average number of PNOs per pair        ...    30
Maximal number of PNOs per pair        ...    84
>> Statistics for ij-pairs..
   #pairs with  1 -  5 PNOs   :    0
   #pairs with  6 - 10 PNOs   :    0
   #pairs with 11 - 15 PNOs   :   56
   #pairs with 16 - 20 PNOs   :  250
   #pairs with 21 - 25 PNOs   :  172
   #pairs with 26 - 30 PNOs   :  148
   #pairs with 31 - 35 PNOs   :   64
   #pairs with 36 - 40 PNOs   :   58
   #pairs with 41 - 45 PNOs   :   46
   #pairs with 46 - 50 PNOs   :   21
   #pairs with 51 - 55 PNOs   :   36
   #pairs with 56 - 60 PNOs   :   54
   #pairs with 61 - 65 PNOs   :   73
   #pairs with 66 - 70 PNOs   :    4
   #pairs with 71 - 75 PNOs   :    3
>> Statistics for ip-pairs..
   #pairs with  1 -  5 PNOs   :    0
   #pairs with  6 - 10 PNOs   :    2
   #pairs with 11 - 15 PNOs   :   13
   #pairs with 16 - 20 PNOs   :    5
   #pairs with 21 - 25 PNOs   :   24
   #pairs with 26 - 30 PNOs   :   18
   #pairs with 31 - 35 PNOs   :   42
   #pairs with 36 - 40 PNOs   :   13
   #pairs with 41 - 45 PNOs   :    0
   #pairs with 46 - 50 PNOs   :    0
>> Statistics for pq-pairs..
   #pairs with  1 -  5 PNOs   :    0
   #pairs with  6 - 10 PNOs   :    0
   #pairs with 11 - 15 PNOs   :    0
   #pairs with 16 - 20 PNOs   :    0
   #pairs with 21 - 25 PNOs   :   10
   #pairs with 26 - 30 PNOs   :   10
   #pairs with 31 - 35 PNOs   :    0
   #pairs with 36 - 40 PNOs   :    0
   #pairs with 41 - 45 PNOs   :    0
   #pairs with 46 - 50 PNOs   :    0
   #pairs with 81 - 85 PNOs   :    5

Generation of (ij|ab)[P] integrals            ... on
Generation of (ia|bc)[P],(ja|bc)[P] integrals ... on
Storage of 3 and 4 external integrals         ... on
Generation of ALL (ka|bc)[P] integrals        ... on
Keep RI integrals in memory                   ... off

Ibatch:  1 (of  1)
Starting 2-4 index PNO integral generation ... done

Timings:
Total PNO integral transformation time     ...       2027.982 sec
Size of the 3-external file                ...       284 MB
Size of the 4-external file                ...      1912 MB
Size of the IKJL file                      ...        19 MB
Size of the all 3-external file            ...      6830 MB
Size of the 1-external file                ...        22 MB

Size of the PAO/PNO coefficient matrices   ...     228.6 MB

Making pair/pair overlap matrices          ... done (  321.853 sec)
Size of the pair overlap file              ...    2481.0 MB
Total # unrestricted pairs ...       2171
  # of alpha-alpha pairs   ...        598
  # of alpha-beta pairs    ...       1102
  # of beta-beta pairs     ...        471
Constructing the guess amplitudes          ... done (    0.571 sec)

-------------------------
FINAL STARTUP INFORMATION
-------------------------

E(0)                                       ...  -3028.425880255
E(SL-UMP2 in NEV-PNO space)                ...     -2.686739328
Initial E(tot)                             ...  -3031.112619583
<T|T>                                      ...      0.533665671
Number of unrestricted pairs included      ... 2171
Total number of pairs                      ... 4095
----------------------------------------------------------
                     OPEN-SHELL COUPLED CLUSTER ITERATIONS
----------------------------------------------------------

Number of PNO amplitudes to be optimized        ...          2119981
Number of canonical amplitudes for strong pairs ...       1960873202
Untruncated number of canonical amplitudes      ...       3698645738

Iter       E(tot)           E(Corr)          Delta-E          Residual     Time
  0  -3031.119773804     -2.657771659      0.028967669      0.022693383 1712.79
                           *** Turning on DIIS ***
  1  -3031.233767680     -2.771765536     -0.113993877      0.009036708 1672.85
  2  -3031.297845695     -2.835843550     -0.064078014      0.008977972 1781.26
  3  -3031.318668620     -2.856666475     -0.020822925      0.003954625 1819.16
  4  -3031.325611532     -2.863609387     -0.006942912      0.002830333 1811.19
  5  -3031.329148586     -2.867146441     -0.003537055      0.002442051 1780.66
  6  -3031.330456577     -2.868454432     -0.001307991      0.001014759 2064.04
  7  -3031.331254423     -2.869252278     -0.000797846      0.000631668 2117.66
  8  -3031.331407871     -2.869405726     -0.000153448      0.000182914 2114.68
  9  -3031.331451484     -2.869449339     -0.000043613      0.000130937 2119.02
 10  -3031.331446157     -2.869444012      0.000005327      0.000059931 2156.82
 11  -3031.331455665     -2.869453520     -0.000009507      0.000047990 2223.58
 12  -3031.331461278     -2.869459133     -0.000005614      0.000020509 2190.49
 13  -3031.331463668     -2.869461523     -0.000002390      0.000011640 2196.48
 14  -3031.331464190     -2.869462045     -0.000000522      0.000007474 2134.00
               --- The CCSD iterations have converged ---

E(0)                                       ...  -3028.425880255
E(CORR)(strong-pairs)                      ...     -2.869462045
E(CORR)(weak-pairs)                        ...     -0.036121890
E(CORR)(corrected)                         ...     -2.905583935
E(TOT)                                     ...  -3031.331464190
Singles norm <S|S>**1/2                    ...      0.185280764 ( 0.061256759, 0.124024006)  
T1 diagnostic                              ...      0.019422702                              
<S**2>(linearized)                         ...      8.7507173 (ideal value:      8.7500000)

----------------------
LARGEST PNO AMPLITUDES
----------------------
  51b-> 75b  -1b-> -1b       0.058672
  45a-> 78a  45b-> 78b       0.057688
  45a-> 77a  45b-> 77b       0.047315
  30b-> 75b  -1b-> -1b       0.047108
  49b-> 74b  -1b-> -1b       0.045955
  56a-> 77a  56b-> 77b       0.045081
  49b-> 72b  -1b-> -1b       0.044299
  67a-> 77a  67b-> 77b       0.043760
  52b-> 72b  -1b-> -1b       0.043620
  63a-> 77a  63b-> 77b       0.043371
  52b-> 75b  -1b-> -1b       0.043144
  59a-> 77a  59b-> 77b       0.042920
  53a-> 77a  53b-> 77b       0.042537
  71a-> 77a  71b-> 77b       0.042299
  55a-> 78a  55b-> 78b       0.042297
  44a-> 78a  44b-> 78b       0.042159

Total # unrestricted pairs ...       1224
  # of alpha-alpha pairs   ...        348
  # of alpha-beta pairs    ...        612
  # of beta-beta pairs     ...        264

-------------------------------------------
DLPNO BASED TRIPLES CORRECTION
-------------------------------------------

Singles multiplier          ...  1.000000
Fragment selection                          .... not used
TCutTNO                     ... 1.000e-09
TCutMP2Pairs                ... 1.000e-05
TCutDOStrong                ... 2.000e-02
TCutMKNStrong               ... 1.000e-02
TCutDOWeak                  ... 4.000e-02
TCutMKNWeak                 ... 1.000e-01
NTCutTNO                    ... 1

Number of Triples that are to be computed         ...     35594

 . . . . . . . . .
10% done  
20% done  
30% done  
40% done  
50% done  
60% done  
70% done  
80% done  
90% done  
          Batch   1   done (  18032.327 sec)

Triples-Correction TCutTNO=   1.000e-09 (NWeakPairs = 0  1  2  3)  -0.116460813620   -0.001852770437    0.000000000000    0.000000000000
Triples-Correction  -0.118313584056

Triples timings:
Total time                      ... 18773.192 sec

Triples List generation         ...     0.000 sec
TNO generation                  ...   740.573 sec
Pair density generation         ...     0.108 sec
Look up tables                  ...     0.119 sec
Generating 3-index integrals    ... 11658.893 sec
Make 4-ind.int. from 3-ind.int  ...     3.936 sec
Projecting amplitudes (D + S)   ...  6098.376 sec
Sorting integrals for spin cases...    55.976 sec
Calculate W0/W1                 ...   173.642 sec
Energy contr. (sum over a,b,c)  ...    41.364 sec

Everything after 3-index        ...  6517.925 sec

Energy contribution AAA         ...    26.131 sec
Energy contribution AAB         ...   120.205 sec
Energy contribution ABB         ...   109.904 sec
Energy contribution BBB         ...    14.783 sec
prep                ...     3.406 sec
makeTTNO            ...  6037.129 sec
copyij              ...     0.135 sec
copyil              ...     4.386 sec
transposeij         ...     0.081 sec
newMatInDoubleProj  ...    57.737 sec
BlasInDoubleProj    ...  3268.097 sec
ProjSingles         ...    50.538 sec
ProjDoubles         ...  6047.837 sec
overall Doubles for projection      ... 3288353
used Doubles for projection         ... 3288353


Number of Triples   (0, 1, 2, 3 weak pairs; overall):  17281   12238       0       0  ( 29519)
Number of Atoms     (0, 1, 2, 3 weak pairs; overall):   20.2    14.8     0.0     0.0  (    29)
Number of PAOs      (0, 1, 2, 3 weak pairs; overall):  780.4   596.8     0.0     0.0  (  1025)
Number of AuxFcns   (0, 1, 2, 3 weak pairs; overall):  984.2   569.9     0.0     0.0  (  2424)
Number of TNOs (0, 1, 2, 3 weak pairs         ):   78.6    55.8     0.0     0.0
Aver. Number of NTNO, Atoms, PAOs, AuxFcns / Triples:  29519    69.1    18.0   704.3   812.4

Triples Correction (T)                     ...     -0.118313584
    alpha-alpha-alpha ... -0.003891104 (  3.3%)
    alpha-alpha-beta  ... -0.055545974 ( 46.9%)
    alpha-beta -beta  ... -0.054775529 ( 46.3%)
    beta -beta -beta  ... -0.004100977 (  3.5%)
Final correlation energy                   ...     -3.023897519
E(CCSD)                                    ...  -3031.331464190
E(CCSD(T))                                 ...  -3031.449777774

----------------------------
STATISTICS FOR PAIR-ENERGIES
----------------------------
Minimum, maximum and average ratios of UMP and CCSD pair-energies ... 0.49, 1.42, 1.02


------------------------------------------------------------------------------- 
                                     TIMINGS                                   
------------------------------------------------------------------------------- 


Total execution time                   ...    57080.039 sec

Localization of occupied MO's          ...        9.776 sec (  0.0%)
Fock Matrix Formation                  ...     1410.051 sec (  2.5%)
Differential overlap integrals         ...        1.466 sec (  0.0%)
Organizing maps                        ...        1.698 sec (  0.0%)
RI 3-index integral generations        ...      273.774 sec (  0.5%)
RI-PNO integral transformation         ...     4747.771 sec (  8.3%)
Initial Guess                          ...     1919.232 sec (  3.4%)
DIIS Solver                            ...       15.850 sec (  0.0%)
State Vector Update                    ...        0.730 sec (  0.0%)
Sigma-vector construction              ...    29894.661 sec ( 52.4%)
  <0|H|D>                              ...        0.030 sec (  0.0% of sigma)
  <D|H|D>(0-ext)                       ...     5612.594 sec ( 18.8% of sigma)
  <D|H|D>(2-ext Fock)                  ...        1.534 sec (  0.0% of sigma)
  <D|H|D>(2-ext)                       ...     4388.928 sec ( 14.7% of sigma)
  <D|H|D>(4-ext)                       ...      142.889 sec (  0.5% of sigma)
  <D|H|D>(4-ext-corr)                  ...      892.755 sec (  3.0% of sigma)
  CCSD doubles correction              ...      555.466 sec (  1.9% of sigma)
  <S|H|S>                              ...      719.401 sec (  2.4% of sigma)
  <S|H|D>(1-ext)                       ...      253.830 sec (  0.8% of sigma)
  <D|H|S>(1-ext)                       ...        0.760 sec (  0.0% of sigma)
  <S|H|D>(3-ext)                       ...       20.604 sec (  0.1% of sigma)
  CCSD singles correction              ...        0.004 sec (  0.0% of sigma)
  Fock-dressing                        ...     9168.089 sec ( 30.7% of sigma)
  Singles amplitudes                   ...      106.448 sec (  0.4% of sigma)
  (ik|jl)-dressing                     ...     6222.066 sec ( 20.8% of sigma)
  (ij|ab),(ia|jb)-dressing             ...     1616.635 sec (  5.4% of sigma)
  Pair energies                        ...        0.138 sec (  0.0% of sigma)
Total Time for computing (T)           ...    19179.736 sec ( 33.6% of ALL)


-------------------------   --------------------
FINAL SINGLE POINT ENERGY     -3031.449777774069
-------------------------   --------------------


                            ***************************************
                            *     ORCA property calculations      *
                            ***************************************

                                    ---------------------
                                    Active property flags
                                    ---------------------
   (+) Dipole Moment


------------------------------------------------------------------------------
                       ORCA ELECTRIC PROPERTIES CALCULATION
------------------------------------------------------------------------------

Dipole Moment Calculation                       ... on
Quadrupole Moment Calculation                   ... off
Polarizability Calculation                      ... off
GBWName                                         ... simple-grid-185-230-b3lyp_d3bj-631gd-gas-singlepoint-DLPNO_CCSD_T1-NormalPNO-augtz-gas.gbw
Electron density file                           ... simple-grid-185-230-b3lyp_d3bj-631gd-gas-singlepoint-DLPNO_CCSD_T1-NormalPNO-augtz-gas.scfp.tmp
The origin for moment calculation is the CENTER OF MASS  = ( 0.302711,  0.025908  0.018408)

-------------
DIPOLE MOMENT
-------------
                                X             Y             Z
Electronic contribution:     40.25457       4.19210       2.29270
Nuclear contribution   :    -45.10391      -3.86032      -2.74275
                        -----------------------------------------
Total Dipole Moment    :     -4.84935       0.33178      -0.45005
                        -----------------------------------------
Magnitude (a.u.)       :      4.88147
Magnitude (Debye)      :     12.40772



--------------------
Rotational spectrum 
--------------------
 
Rotational constants in cm-1:     0.019181     0.011701     0.010704 
Rotational constants in MHz :   575.026200   350.794554   320.911894 

 Dipole components along the rotational axes: 
x,y,z [a.u.] :    -4.852194     0.290514    -0.447875 
x,y,z [Debye]:   -12.333296     0.738428    -1.138407 

 

Timings for individual modules:

Sum of individual times         ...    73774.106 sec (=1229.568 min)
GTO integral calculation        ...       12.256 sec (=   0.204 min)   0.0 %
SCF iterations                  ...    16664.066 sec (= 277.734 min)  22.6 %
MDCI module                     ...    57097.785 sec (= 951.630 min)  77.4 %
                             ****ORCA TERMINATED NORMALLY****
TOTAL RUN TIME: 0 days 20 hours 29 minutes 36 seconds 592 msec
