
                                 *****************
                                 * O   R   C   A *
                                 *****************

           --- An Ab Initio, DFT and Semiempirical electronic structure package ---

                  #######################################################
                  #                        -***-                        #
                  #          Department of theory and spectroscopy      #
                  #               Directorship: Frank Neese             #
                  #        Max Planck Institute fuer Kohlenforschung    #
                  #                Kaiser Wilhelm Platz 1               #
                  #                 D-45470 Muelheim/Ruhr               #
                  #                      Germany                        #
                  #                                                     #
                  #                  All rights reserved                #
                  #                        -***-                        #
                  #######################################################


                         Program Version 4.1.2  - RELEASE  -


 With contributions from (in alphabetic order):
   Daniel Aravena         : Magnetic Properties
   Michael Atanasov       : Ab Initio Ligand Field Theory
   Alexander A. Auer      : GIAO ZORA
   Ute Becker             : Parallelization
   Giovanni Bistoni       : ED, Open-shell LED
   Martin Brehm           : Molecular dynamics
   Dmytro Bykov           : SCF Hessian
   Vijay G. Chilkuri      : MRCI spin determinant printing
   Dipayan Datta          : RHF DLPNO-CCSD density
   Achintya Kumar Dutta   : EOM-CC, STEOM-CC
   Dmitry Ganyushin       : Spin-Orbit,Spin-Spin,Magnetic field MRCI
   Miquel Garcia          : C-PCM Hessian
   Yang Guo               : DLPNO-NEVPT2, CIM, IAO-localization
   Andreas Hansen         : Spin unrestricted coupled pair/coupled cluster methods
   Benjamin Helmich-Paris : CASSCF linear response (MC-RPA)
   Lee Huntington         : MR-EOM, pCC
   Robert Izsak           : Overlap fitted RIJCOSX, COSX-SCS-MP3, EOM
   Christian Kollmar      : KDIIS, OOCD, Brueckner-CCSD(T), CCSD density
   Simone Kossmann        : Meta GGA functionals, TD-DFT gradient, OOMP2, MP2 Hessian
   Martin Krupicka        : AUTO-CI
   Lucas Lang             : DCDCAS
   Dagmar Lenk            : GEPOL surface, SMD
   Dimitrios Liakos       : Extrapolation schemes; parallel MDCI
   Dimitrios Manganas     : ROCIS; embedding schemes
   Dimitrios Pantazis     : SARC Basis sets
   Taras Petrenko         : DFT Hessian,TD-DFT gradient, ASA, ECA, R-Raman, ABS, FL, XAS/XES, NRVS
   Peter Pinski           : DLPNO-MP2, DLPNO-MP2 Gradient
   Christoph Reimann      : Effective Core Potentials
   Marius Retegan         : Local ZFS, SOC
   Christoph Riplinger    : Optimizer, TS searches, QM/MM, DLPNO-CCSD(T), (RO)-DLPNO pert. Triples
   Tobias Risthaus        : Range-separated hybrids, TD-DFT gradient, RPA, STAB
   Michael Roemelt        : Restricted open shell CIS
   Masaaki Saitow         : Open-shell DLPNO
   Barbara Sandhoefer     : DKH picture change effects
   Avijit Sen             : IP-ROCIS
   Kantharuban Sivalingam : CASSCF convergence, NEVPT2, FIC-MRCI
   Bernardo de Souza      : ESD, SOC TD-DFT
   Georgi Stoychev        : AutoAux, RI-MP2 NMR
   Willem Van den Heuvel  : Paramagnetic NMR
   Boris Wezisla          : Elementary symmetry handling
   Frank Wennmohs         : Technical directorship


 We gratefully acknowledge several colleagues who have allowed us to
 interface, adapt or use parts of their codes:
   Stefan Grimme, W. Hujo, H. Kruse,             : VdW corrections, initial TS optimization,
                  C. Bannwarth                     DFT functionals, gCP, sTDA/sTD-DF
   Ed Valeev                                     : LibInt (2-el integral package), F12 methods
   Garnet Chan, S. Sharma, J. Yang, R. Olivares  : DMRG
   Ulf Ekstrom                                   : XCFun DFT Library
   Mihaly Kallay                                 : mrcc  (arbitrary order and MRCC methods)
   Andreas Klamt, Michael Diedenhofen            : otool_cosmo (COSMO solvation model)
   Jiri Pittner, Ondrej Demel                    : Mk-CCSD
   Frank Weinhold                                : gennbo (NPA and NBO analysis)
   Christopher J. Cramer and Donald G. Truhlar   : smd solvation model
   Lars Goerigk                                  : TD-DFT with DH, B97 family of functionals
   V. Asgeirsson, H. Jonsson                     : NEB implementation
   FAccTs GmbH                                   : IRC, NEB, NEB-TS, Multilevel


 Your calculation uses the libint2 library for the computation of 2-el integrals
 For citations please refer to: http://libint.valeyev.net

 This ORCA versions uses:
   CBLAS   interface :  Fast vector & matrix operations
   LAPACKE interface :  Fast linear algebra routines
   SCALAPACK package :  Parallel linear algebra routines


----- Orbital basis set information -----
Your calculation utilizes the basis: aug-cc-pVTZ 
    H, B-Ne : Obtained from the ccRepo (grant-hill.group.shef.ac.uk/ccrepo) Feb. 2017
              R. A. Kendall, T. H. Dunning, Jr., R. J. Harrison, J. Chem. Phys. 96, 6796 (1992)
         He : Obtained from the ccRepo (grant-hill.group.shef.ac.uk/ccrepo) Feb. 2017
              D. E. Woon, T. H. Dunning, Jr., J. Chem. Phys. 100, 2975 (1994)
  Li-Be, Na : Obtained from the ccRepo (grant-hill.group.shef.ac.uk/ccrepo) Feb. 2017
              B. P. Prascher, D. E. Woon, K. A. Peterson, T. H. Dunning, Jr., A. K. Wilson, Theor. Chem. Acc. 128, 69 (2011)
         Mg : Obtained from the Peterson Research Group Website (tyr0.chem.wsu.edu/~kipeters) Feb. 2017
              B. P. Prascher, D. E. Woon, K. A. Peterson, T. H. Dunning, Jr., A. K. Wilson, Theor. Chem. Acc. 128, 69 (2011)
      Al-Ar : Obtained from the ccRepo (grant-hill.group.shef.ac.uk/ccrepo) Feb. 2017
              D. E. Woon, T. H. Dunning, Jr., J. Chem. Phys. 98, 1358 (1993)
      Sc-Zn : Obtained from the ccRepo (grant-hill.group.shef.ac.uk/ccrepo) Feb. 2017
              N. B. Balabanov, K. A. Peterson, J. Chem. Phys. 123, 064107 (2005)
              N. B. Balabanov, K. A. Peterson, J. Chem. Phys. 125, 074110 (2006)
      Ga-Kr : Obtained from the ccRepo (grant-hill.group.shef.ac.uk/ccrepo) Feb. 2017
              A. K. Wilson, D. E. Woon, K. A. Peterson, T. H. Dunning, Jr., J. Chem. Phys. 110, 7667 (1999)
     Ag, Au : Obtained from the Peterson Research Group Website (tyr0.chem.wsu.edu/~kipeters) Feb. 2017
              K. A. Peterson, C. Puzzarini, Theor. Chem. Acc. 114, 283 (2005)

----- AuxJ basis set information -----
Your calculation utilizes the AutoAux generation procedure.
  G. L. Stoychev, A. A. Auer, F. Neese, J. Chem. Theory Comput. 13, 554 (2017)

----- AuxC basis set information -----
Your calculation utilizes the auxiliary basis: aug-cc-pVTZ/C 
  H-He, B-F, Al-Ar, Ga-Kr : Obtained from the EMSL Basis Set Exchange (bse.pnl.gov) Feb. 2017
                            F. Weigend, A. Kohn, C. Hattig, J. Chem. Phys. 116, 3175 (2002)
                   Be, Mg : Obtained from the TURBOMOLE 7.0 basis set library
                            C. Haettig, Phys. Chem. Chem. Phys. 7, 59 (2005)
                       Ne : Obtained from the EMSL Basis Set Exchange (bse.pnl.gov) Feb. 2017
                            C. Haettig, Phys. Chem. Chem. Phys. 7, 59 (2005)
                            F. Weigend, A. Kohn, C. Hattig, J. Chem. Phys. 116, 3175 (2002)
                    Sc-Zn : Obtained from the EMSL Basis Set Exchange (bse.pnl.gov) Feb. 2017
                            J. G. Hill, J. A. Platts, J. Chem. Phys. 128, 044104 (2008)

----- AuxJK basis set information -----
Your calculation utilizes the AutoAux generation procedure.
  G. L. Stoychev, A. A. Auer, F. Neese, J. Chem. Theory Comput. 13, 554 (2017)

================================================================================
                                        WARNINGS
                       Please study these warnings very carefully!
================================================================================


WARNING: your system is open-shell and RHF/RKS was chosen
  ===> : WILL SWITCH to UHF/UKS


WARNING: MDCI localization with Augmented Hessian Foster-Boys
  ===> : Switching off randomization!

WARNING: Post HF methods need fully converged wavefunctions
  ===> : Setting SCFConvForced true
         You can overwrite this default with %scf ConvForced false 


INFO   : the flag for use of LIBINT has been found!

================================================================================
                                       INPUT FILE
================================================================================
NAME = simple-grid-205-230-b3lyp_d3bj-631gd-gas-singlepoint-DLPNO_CCSD_T1-NormalPNO-augtz-gas.inp
|  1> ! aug-cc-pVTZ aug-cc-pVTZ/C DLPNO-CCSD(T1) TightSCF NormalPNO UNO MiniPrint AutoAux
|  2> %pal nproc 10 end
|  3> %maxcore 20000
|  4> %mdci
|  5>      density none
|  6> end
|  7> 
|  8> * xyz 0 6
|  9>  O     -0.33131200     -0.12738700     -0.58309700
| 10>  C     -1.27655400     -1.03928900     -0.50872400
| 11>  C     -3.01451500     -0.06694900     -0.02237100
| 12>  C     -2.25381700      1.07513700     -0.19850800
| 13>  C     -2.13704300      1.74470400     -1.52420300
| 14> Fe      1.43218200      0.05674200      0.04376100
| 15> Cl      1.98343100      2.03468700     -0.75378200
| 16>  C     -1.58130700      1.76817100      0.93724300
| 17> Cl      2.49667500     -1.68998400     -0.76577800
| 18> Cl      1.35172000      0.02563400      2.25703700
| 19>  H     -3.61961500     -0.36587500     -0.87534300
| 20>  H     -2.31655600      2.45874600      1.37839000
| 21>  H     -1.25501900      1.08935000      1.72598900
| 22>  H     -0.72527000      2.35548900      0.59844200
| 23>  H     -2.57847200      2.74704200     -1.42875000
| 24>  H     -1.08288300      1.88237400     -1.78505400
| 25>  H     -2.66171300      1.21549600     -2.32173200
| 26>  C     -3.56568700     -0.50034400      1.31656800
| 27>  H     -4.46808600      0.08160100      1.54366900
| 28>  H     -3.85707800     -1.55374700      1.30380200
| 29>  H     -2.86304300     -0.35158800      2.13881900
| 30>  C     -1.14933800     -2.03551800      0.61850700
| 31>  H     -2.00350500     -2.71033200      0.68874200
| 32>  H     -0.25746500     -2.63121400      0.37680500
| 33>  H     -0.95864700     -1.55015100      1.57612200
| 34>  C     -1.67067100     -1.62518000     -1.84793000
| 35>  H     -0.80440400     -2.21161000     -2.18226700
| 36>  H     -2.53876600     -2.28497800     -1.77845500
| 37>  H     -1.84316200     -0.84690800     -2.59280900
| 38> *
| 39> 
| 40> 
| 41>                          ****END OF INPUT****
================================================================================

                       ****************************
                       * Single Point Calculation *
                       ****************************

---------------------------------
CARTESIAN COORDINATES (ANGSTROEM)
---------------------------------
  O     -0.331312   -0.127387   -0.583097
  C     -1.276554   -1.039289   -0.508724
  C     -3.014515   -0.066949   -0.022371
  C     -2.253817    1.075137   -0.198508
  C     -2.137043    1.744704   -1.524203
  Fe     1.432182    0.056742    0.043761
  Cl     1.983431    2.034687   -0.753782
  C     -1.581307    1.768171    0.937243
  Cl     2.496675   -1.689984   -0.765778
  Cl     1.351720    0.025634    2.257037
  H     -3.619615   -0.365875   -0.875343
  H     -2.316556    2.458746    1.378390
  H     -1.255019    1.089350    1.725989
  H     -0.725270    2.355489    0.598442
  H     -2.578472    2.747042   -1.428750
  H     -1.082883    1.882374   -1.785054
  H     -2.661713    1.215496   -2.321732
  C     -3.565687   -0.500344    1.316568
  H     -4.468086    0.081601    1.543669
  H     -3.857078   -1.553747    1.303802
  H     -2.863043   -0.351588    2.138819
  C     -1.149338   -2.035518    0.618507
  H     -2.003505   -2.710332    0.688742
  H     -0.257465   -2.631214    0.376805
  H     -0.958647   -1.550151    1.576122
  C     -1.670671   -1.625180   -1.847930
  H     -0.804404   -2.211610   -2.182267
  H     -2.538766   -2.284978   -1.778455
  H     -1.843162   -0.846908   -2.592809

----------------------------
CARTESIAN COORDINATES (A.U.)
----------------------------
  NO LB      ZA    FRAG     MASS         X           Y           Z
   0 O     8.0000    0    15.999   -0.626089   -0.240727   -1.101894
   1 C     6.0000    0    12.011   -2.412337   -1.963972   -0.961349
   2 C     6.0000    0    12.011   -5.696608   -0.126515   -0.042275
   3 C     6.0000    0    12.011   -4.259097    2.031714   -0.375126
   4 C     6.0000    0    12.011   -4.038426    3.297013   -2.880326
   5 Fe   26.0000    0    55.850    2.706432    0.107227    0.082696
   6 Cl   17.0000    0    35.453    3.748141    3.845001   -1.424442
   7 C     6.0000    0    12.011   -2.988237    3.341359    1.771133
   8 Cl   17.0000    0    35.453    4.718032   -3.193607   -1.447111
   9 Cl   17.0000    0    35.453    2.554381    0.048441    4.265182
  10 H     1.0000    0     1.008   -6.840081   -0.691404   -1.654159
  11 H     1.0000    0     1.008   -4.377656    4.646357    2.604780
  12 H     1.0000    0     1.008   -2.371642    2.058573    3.261647
  13 H     1.0000    0     1.008   -1.370562    4.451229    1.130891
  14 H     1.0000    0     1.008   -4.872606    5.191157   -2.699946
  15 H     1.0000    0     1.008   -2.046352    3.557171   -3.373263
  16 H     1.0000    0     1.008   -5.029909    2.296955   -4.387438
  17 C     6.0000    0    12.011   -6.738172   -0.945513    2.487953
  18 H     1.0000    0     1.008   -8.443459    0.154204    2.917112
  19 H     1.0000    0     1.008   -7.288821   -2.936156    2.463829
  20 H     1.0000    0     1.008   -5.410367   -0.664405    4.041782
  21 C     6.0000    0    12.011   -2.171934   -3.846572    1.168809
  22 H     1.0000    0     1.008   -3.786076   -5.121785    1.301534
  23 H     1.0000    0     1.008   -0.486538   -4.972274    0.712058
  24 H     1.0000    0     1.008   -1.811580   -2.929361    2.978439
  25 C     6.0000    0    12.011   -3.157111   -3.071145   -3.492082
  26 H     1.0000    0     1.008   -1.520103   -4.179337   -4.123887
  27 H     1.0000    0     1.008   -4.797572   -4.317983   -3.360793
  28 H     1.0000    0     1.008   -3.483071   -1.600424   -4.899699



           ************************************************************
           *        Program running with 10 parallel MPI-processes    *
           *              working on a common directory               *
           ************************************************************


           ************************************************************
           *        Program running with 10 parallel MPI-processes    *
           *              working on a common directory               *
           ************************************************************

Diagonalization of the overlap matrix:
Smallest eigenvalue                        ... 6.244e-07
Time for diagonalization                   ...    0.331 sec
Threshold for overlap eigenvalues          ... 1.000e-08
Number of eigenvalues below threshold      ... 0
Time for construction of square roots      ...    0.275 sec
Total time needed                          ...    0.610 sec

-------------------
DFT GRID GENERATION
-------------------

General Integration Accuracy     IntAcc      ...  4.340
Radial Grid Type                 RadialGrid  ... Gauss-Chebyshev
Angular Grid (max. acc.)         AngularGrid ... Lebedev-110
Angular grid pruning method      GridPruning ... 3 (G Style)
Weight generation scheme         WeightScheme... Becke
Basis function cutoff            BFCut       ...    1.0000e-11
Integration weight cutoff        WCut        ...    1.0000e-14
Grids for H and He will be reduced by one unit

# of grid points (after initial pruning)     ...  36112 (   0.0 sec)
# of grid points (after weights+screening)   ...  32302 (   0.1 sec)
nearest neighbour list constructed           ...    0.0 sec
Grid point re-assignment to atoms done       ...    0.0 sec
Grid point division into batches done        ...    0.0 sec
Reduced shell lists constructed in    0.2 sec

Total number of grid points                  ...    32302
Total number of batches                      ...      521
Average number of points per batch           ...       62
Average number of grid points per atom       ...     1114
Average number of shells per batch           ...   294.56 (85.88%)
Average number of basis functions per batch  ...   876.89 (85.55%)
Average number of large shells per batch     ...   243.30 (82.60%)
Average number of large basis fcns per batch ...   722.41 (82.38%)
Maximum spatial batch extension              ...   2.92,  2.93,  3.90 au
Average spatial batch extension              ...   0.18,  0.18,  0.18 au

Time for grid setup =    0.348 sec

Loading Hartree-Fock densities                     ... done
Calculating cut-offs                               ... done
Setting up the integral package                    ... done
Initializing the effective Hamiltonian             ... done
Starting the Coulomb interaction                   ... done (   1.1 sec)
Reading the grid                                   ... done
Mapping shells                                     ... done
Starting the XC term evaluation                    ... done (   0.8 sec)
Transforming the Hamiltonian                       ... done (   0.2 sec)
Diagonalizing the Hamiltonian                      ... done (   0.3 sec)
Back transforming the eigenvectors                 ... done (   0.1 sec)
Now organizing SCF variables                       ... done
--------------
SCF ITERATIONS
--------------
ITER       Energy         Delta-E        Max-DP      RMS-DP      [F,P]     Damp
               ***  Starting incremental Fock matrix formation  ***
  0  -3027.5651596767   0.000000000000 0.25955193  0.00118616  0.2765912 0.7000
  1  -3027.8140981455  -0.248938468769 0.18520848  0.00091254  0.1669722 0.7000
                               ***Turning on DIIS***
  2  -3027.9815441410  -0.167445995512 0.12883138  0.00066634  0.1092281 0.7000
  3  -3029.6627538585  -1.681209717492 0.27777061  0.00165295  0.0820337 0.0000
  4  -3028.2876574263   1.375096432116 0.04683970  0.00023512  0.0192419 0.0000
  5  -3028.4089651818  -0.121307755445 0.03987432  0.00017445  0.0118644 0.0000
  6  -3028.4379331369  -0.028967955115 0.02063512  0.00006901  0.0054714 0.0000
  7  -3028.4516165110  -0.013683374084 0.00907974  0.00003168  0.0033737 0.0000
  8  -3028.4480827548   0.003533756159 0.00603814  0.00001833  0.0013901 0.0000
  9  -3028.4386717790   0.009410975846 0.00232660  0.00001046  0.0007314 0.0000
 10  -3028.4278025454   0.010869233603 0.00102471  0.00000344  0.0004318 0.0000
 11  -3028.4341247943  -0.006322248876 0.00034289  0.00000194  0.0000784 0.0000
 12  -3028.4315505822   0.002574212022 0.00081851  0.00000192  0.0000315 0.0000
 13  -3028.4315652908  -0.000014708599 0.00110757  0.00000264  0.0000101 0.0000
 14  -3028.4316051931  -0.000039902285 0.00128053  0.00000269  0.0000067 0.0000
 15  -3028.4315508474   0.000054345721 0.00111113  0.00000248  0.0000031 0.0000
 16  -3028.4315713875  -0.000020540121 0.00159477  0.00000317  0.0000021 0.0000
 17  -3028.4315851545  -0.000013766938 0.00128364  0.00000283  0.0000014 0.0000
 18  -3028.4315680263   0.000017128194 0.00225772  0.00000454  0.0000012 0.0000
 19  -3028.4315806542  -0.000012627922 0.00168677  0.00000422  0.0000010 0.0000
               *** Restarting incremental Fock matrix formation ***
                                   *** Resetting DIIS ***
                            ***DIIS convergence achieved***

               *****************************************************
               *                     SUCCESS                       *
               *           SCF CONVERGED AFTER  20 CYCLES          *
               *****************************************************

Total Energy       :        -3028.43157790 Eh          -82407.81277 eV
  Last Energy change         ...    2.7547e-06  Tolerance :   1.0000e-08
  Last MAX-Density change    ...    1.0467e-02  Tolerance :   1.0000e-07
             **** THE GBW FILE WAS UPDATED (simple-grid-205-230-b3lyp_d3bj-631gd-gas-singlepoint-DLPNO_CCSD_T1-NormalPNO-augtz-gas.gbw) ****
             **** DENSITY FILE WAS UPDATED (simple-grid-205-230-b3lyp_d3bj-631gd-gas-singlepoint-DLPNO_CCSD_T1-NormalPNO-augtz-gas.scfp.tmp) ****
             **** ENERGY FILE WAS UPDATED (simple-grid-205-230-b3lyp_d3bj-631gd-gas-singlepoint-DLPNO_CCSD_T1-NormalPNO-augtz-gas.en.tmp) ****
----------------------
UHF SPIN CONTAMINATION
----------------------

Expectation value of <S**2>     :     8.764483
Ideal value S*(S+1) for S=2.5   :     8.750000
Deviation                       :     0.014483

----------------
ORBITAL ENERGIES
----------------
                 SPIN UP ORBITALS
  NO   OCC          E(Eh)            E(eV) 
   0   1.0000    -261.555051     -7117.2748 
   1   1.0000    -104.779114     -2851.1846 
   2   1.0000    -104.777902     -2851.1517 
   3   1.0000    -104.776972     -2851.1263 
   4   1.0000     -32.222930      -876.8305 
   5   1.0000     -27.698968      -753.7272 
   6   1.0000     -27.698552      -753.7159 
   7   1.0000     -27.698348      -753.7104 
   8   1.0000     -20.561355      -559.5029 
   9   1.0000     -11.397813      -310.1502 
  10   1.0000     -11.347721      -308.7872 
  11   1.0000     -11.273737      -306.7740 
  12   1.0000     -11.264733      -306.5290 
  13   1.0000     -11.260183      -306.4051 
  14   1.0000     -11.259186      -306.3780 
  15   1.0000     -11.258863      -306.3692 
  16   1.0000     -11.254869      -306.2605 
  17   1.0000     -10.505730      -285.8755 
  18   1.0000     -10.504433      -285.8401 
  19   1.0000     -10.503532      -285.8156 
  20   1.0000      -7.972611      -216.9458 
  21   1.0000      -7.971779      -216.9231 
  22   1.0000      -7.971735      -216.9219 
  23   1.0000      -7.971246      -216.9086 
  24   1.0000      -7.970537      -216.8893 
  25   1.0000      -7.970450      -216.8870 
  26   1.0000      -7.970376      -216.8850 
  27   1.0000      -7.969635      -216.8648 
  28   1.0000      -7.969547      -216.8624 
  29   1.0000      -4.578329      -124.5827 
  30   1.0000      -3.191112       -86.8346 
  31   1.0000      -3.190278       -86.8119 
  32   1.0000      -3.189809       -86.7991 
  33   1.0000      -1.409795       -38.3625 
  34   1.0000      -1.169023       -31.8107 
  35   1.0000      -1.087613       -29.5955 
  36   1.0000      -1.050976       -28.5985 
  37   1.0000      -1.045562       -28.4512 
  38   1.0000      -1.043687       -28.4002 
  39   1.0000      -1.039699       -28.2917 
  40   1.0000      -0.997908       -27.1544 
  41   1.0000      -0.986005       -26.8306 
  42   1.0000      -0.931463       -25.3464 
  43   1.0000      -0.918939       -25.0056 
  44   1.0000      -0.907897       -24.7051 
  45   1.0000      -0.907792       -24.7023 
  46   1.0000      -0.898576       -24.4515 
  47   1.0000      -0.898342       -24.4451 
  48   1.0000      -0.789002       -21.4698 
  49   1.0000      -0.760073       -20.6826 
  50   1.0000      -0.696067       -18.9409 
  51   1.0000      -0.692371       -18.8404 
  52   1.0000      -0.679813       -18.4987 
  53   1.0000      -0.660978       -17.9861 
  54   1.0000      -0.644627       -17.5412 
  55   1.0000      -0.622660       -16.9435 
  56   1.0000      -0.601551       -16.3690 
  57   1.0000      -0.594726       -16.1833 
  58   1.0000      -0.586336       -15.9550 
  59   1.0000      -0.579312       -15.7639 
  60   1.0000      -0.573903       -15.6167 
  61   1.0000      -0.565791       -15.3959 
  62   1.0000      -0.554566       -15.0905 
  63   1.0000      -0.550768       -14.9872 
  64   1.0000      -0.541056       -14.7229 
  65   1.0000      -0.525800       -14.3077 
  66   1.0000      -0.514130       -13.9902 
  67   1.0000      -0.481635       -13.1060 
  68   1.0000      -0.465659       -12.6712 
  69   1.0000      -0.455602       -12.3976 
  70   1.0000      -0.432674       -11.7737 
  71   1.0000      -0.428304       -11.6547 
  72   1.0000      -0.426429       -11.6037 
  73   1.0000      -0.418658       -11.3923 
  74   1.0000      -0.416888       -11.3441 
  75   1.0000      -0.415931       -11.3180 
  76   1.0000      -0.381807       -10.3895 
  77   0.0000       0.009902         0.2695 
  78   0.0000       0.020527         0.5586 
  79   0.0000       0.022239         0.6052 
  80   0.0000       0.030179         0.8212 
  81   0.0000       0.038034         1.0350 
  82   0.0000       0.038438         1.0460 
  83   0.0000       0.041623         1.1326 
  84   0.0000       0.043740         1.1902 
  85   0.0000       0.045307         1.2329 
  86   0.0000       0.049761         1.3541 
  87   0.0000       0.056374         1.5340 
  88   0.0000       0.059553         1.6205 
  89   0.0000       0.062548         1.7020 
  90   0.0000       0.064712         1.7609 
  91   0.0000       0.068275         1.8578 
  92   0.0000       0.071673         1.9503 
  93   0.0000       0.074308         2.0220 
  94   0.0000       0.079383         2.1601 
  95   0.0000       0.089725         2.4415 
  96   0.0000       0.090034         2.4499 
  97   0.0000       0.091900         2.5007 
  98   0.0000       0.095875         2.6089 
  99   0.0000       0.100554         2.7362 
 100   0.0000       0.102616         2.7923 
 101   0.0000       0.109869         2.9897 
 102   0.0000       0.114817         3.1243 
 103   0.0000       0.119613         3.2548 
 104   0.0000       0.123581         3.3628 
 105   0.0000       0.125054         3.4029 
 106   0.0000       0.127952         3.4817 
 107   0.0000       0.129092         3.5128 
 108   0.0000       0.131056         3.5662 
 109   0.0000       0.133362         3.6290 
 110   0.0000       0.136569         3.7162 
 111   0.0000       0.139139         3.7862 
 112   0.0000       0.143974         3.9177 
 113   0.0000       0.149106         4.0574 
 114   0.0000       0.150660         4.0997 
 115   0.0000       0.154006         4.1907 
 116   0.0000       0.156538         4.2596 
 117   0.0000       0.158595         4.3156 
 118   0.0000       0.164119         4.4659 
 119   0.0000       0.168058         4.5731 
 120   0.0000       0.169482         4.6118 
 121   0.0000       0.172913         4.7052 
 122   0.0000       0.174214         4.7406 
 123   0.0000       0.177632         4.8336 
 124   0.0000       0.182050         4.9538 
 125   0.0000       0.187223         5.0946 
 126   0.0000       0.190549         5.1851 
 127   0.0000       0.192479         5.2376 
 128   0.0000       0.195369         5.3163 
 129   0.0000       0.200037         5.4433 
 130   0.0000       0.201906         5.4941 
 131   0.0000       0.203693         5.5428 
 132   0.0000       0.207858         5.6561 
 133   0.0000       0.210503         5.7281 
 134   0.0000       0.213573         5.8116 
 135   0.0000       0.215653         5.8682 
 136   0.0000       0.216327         5.8866 
 137   0.0000       0.222795         6.0626 
 138   0.0000       0.229234         6.2378 
 139   0.0000       0.231089         6.2882 
 140   0.0000       0.234340         6.3767 
 141   0.0000       0.237510         6.4630 
 142   0.0000       0.238059         6.4779 
 143   0.0000       0.243009         6.6126 
 144   0.0000       0.246577         6.7097 
 145   0.0000       0.252706         6.8765 
 146   0.0000       0.253216         6.8904 
 147   0.0000       0.254836         6.9344 
 148   0.0000       0.259423         7.0593 
 149   0.0000       0.264039         7.1849 
 150   0.0000       0.265375         7.2212 
 151   0.0000       0.272110         7.4045 
 152   0.0000       0.276374         7.5205 
 153   0.0000       0.282806         7.6955 
 154   0.0000       0.284557         7.7432 
 155   0.0000       0.288503         7.8506 
 156   0.0000       0.288883         7.8609 
 157   0.0000       0.298237         8.1154 
 158   0.0000       0.302970         8.2442 
 159   0.0000       0.304513         8.2862 
 160   0.0000       0.307629         8.3710 
 161   0.0000       0.308171         8.3858 
 162   0.0000       0.318294         8.6612 
 163   0.0000       0.319494         8.6939 
 164   0.0000       0.324247         8.8232 
 165   0.0000       0.332283         9.0419 
 166   0.0000       0.333058         9.0630 
 167   0.0000       0.335595         9.1320 
 168   0.0000       0.340318         9.2605 
 169   0.0000       0.343825         9.3559 
 170   0.0000       0.351717         9.5707 
 171   0.0000       0.354654         9.6506 
 172   0.0000       0.358496         9.7552 
 173   0.0000       0.361848         9.8464 
 174   0.0000       0.363685         9.8964 
 175   0.0000       0.364591         9.9210 
 176   0.0000       0.368592        10.0299 
 177   0.0000       0.371204        10.1010 
 178   0.0000       0.373006        10.1500 
 179   0.0000       0.375727        10.2241 
 180   0.0000       0.383583        10.4378 
 181   0.0000       0.384903        10.4737 
 182   0.0000       0.388562        10.5733 
 183   0.0000       0.390483        10.6256 
 184   0.0000       0.391677        10.6581 
 185   0.0000       0.394565        10.7367 
 186   0.0000       0.396475        10.7886 
 187   0.0000       0.399874        10.8811 
 188   0.0000       0.404713        11.0128 
 189   0.0000       0.410555        11.1718 
 190   0.0000       0.413187        11.2434 
 191   0.0000       0.414554        11.2806 
 192   0.0000       0.417826        11.3696 
 193   0.0000       0.423853        11.5336 
 194   0.0000       0.430100        11.7036 
 195   0.0000       0.433633        11.7997 
 196   0.0000       0.437101        11.8941 
 197   0.0000       0.442591        12.0435 
 198   0.0000       0.447040        12.1646 
 199   0.0000       0.450538        12.2598 
 200   0.0000       0.451905        12.2970 
 201   0.0000       0.454716        12.3734 
 202   0.0000       0.458540        12.4775 
 203   0.0000       0.462533        12.5862 
 204   0.0000       0.464338        12.6353 
 205   0.0000       0.469328        12.7711 
 206   0.0000       0.471090        12.8190 
 207   0.0000       0.475771        12.9464 
 208   0.0000       0.476522        12.9668 
 209   0.0000       0.479481        13.0473 
 210   0.0000       0.481197        13.0940 
 211   0.0000       0.486741        13.2449 
 212   0.0000       0.489372        13.3165 
 213   0.0000       0.498112        13.5543 
 214   0.0000       0.498263        13.5584 
 215   0.0000       0.503312        13.6958 
 216   0.0000       0.504263        13.7217 
 217   0.0000       0.506016        13.7694 
 218   0.0000       0.510302        13.8860 
 219   0.0000       0.511492        13.9184 
 220   0.0000       0.514875        14.0104 
 221   0.0000       0.516702        14.0602 
 222   0.0000       0.520214        14.1558 
 223   0.0000       0.524479        14.2718 
 224   0.0000       0.529273        14.4023 
 225   0.0000       0.533760        14.5244 
 226   0.0000       0.538037        14.6407 
 227   0.0000       0.541240        14.7279 
 228   0.0000       0.543135        14.7794 
 229   0.0000       0.545553        14.8453 
 230   0.0000       0.550491        14.9796 
 231   0.0000       0.553775        15.0690 
 232   0.0000       0.560451        15.2506 
 233   0.0000       0.563440        15.3320 
 234   0.0000       0.566269        15.4090 
 235   0.0000       0.571070        15.5396 
 236   0.0000       0.573617        15.6089 
 237   0.0000       0.575306        15.6549 
 238   0.0000       0.579569        15.7709 
 239   0.0000       0.583756        15.8848 
 240   0.0000       0.588518        16.0144 
 241   0.0000       0.594672        16.1818 
 242   0.0000       0.599183        16.3046 
 243   0.0000       0.600181        16.3317 
 244   0.0000       0.602903        16.4058 
 245   0.0000       0.610113        16.6020 
 246   0.0000       0.610610        16.6155 
 247   0.0000       0.617960        16.8155 
 248   0.0000       0.620225        16.8772 
 249   0.0000       0.624724        16.9996 
 250   0.0000       0.627479        17.0746 
 251   0.0000       0.633224        17.2309 
 252   0.0000       0.634335        17.2611 
 253   0.0000       0.639676        17.4065 
 254   0.0000       0.643630        17.5141 
 255   0.0000       0.645241        17.5579 
 256   0.0000       0.647303        17.6140 
 257   0.0000       0.652324        17.7506 
 258   0.0000       0.654254        17.8031 
 259   0.0000       0.660925        17.9847 
 260   0.0000       0.662603        18.0303 
 261   0.0000       0.669554        18.2195 
 262   0.0000       0.670503        18.2453 
 263   0.0000       0.672399        18.2969 
 264   0.0000       0.678052        18.4507 
 265   0.0000       0.682776        18.5793 
 266   0.0000       0.691725        18.8228 
 267   0.0000       0.694760        18.9054 
 268   0.0000       0.697530        18.9808 
 269   0.0000       0.702872        19.1261 
 270   0.0000       0.708067        19.2675 
 271   0.0000       0.714238        19.4354 
 272   0.0000       0.717823        19.5329 
 273   0.0000       0.722600        19.6630 
 274   0.0000       0.723796        19.6955 
 275   0.0000       0.730407        19.8754 
 276   0.0000       0.732283        19.9264 
 277   0.0000       0.743023        20.2187 
 278   0.0000       0.743760        20.2387 
 279   0.0000       0.749776        20.4024 
 280   0.0000       0.756561        20.5871 
 281   0.0000       0.758370        20.6363 
 282   0.0000       0.762408        20.7462 
 283   0.0000       0.774903        21.0862 
 284   0.0000       0.782067        21.2811 
 285   0.0000       0.782984        21.3061 
 286   0.0000       0.785787        21.3824 
 287   0.0000       0.793545        21.5935 
 288   0.0000       0.799860        21.7653 
 289   0.0000       0.807353        21.9692 
 290   0.0000       0.813358        22.1326 
 291   0.0000       0.816974        22.2310 
 292   0.0000       0.823837        22.4177 
 293   0.0000       0.827127        22.5073 
 294   0.0000       0.827974        22.5303 
 295   0.0000       0.834118        22.6975 
 296   0.0000       0.842378        22.9223 
 297   0.0000       0.849962        23.1286 
 298   0.0000       0.852497        23.1976 
 299   0.0000       0.857645        23.3377 
 300   0.0000       0.863491        23.4968 
 301   0.0000       0.873744        23.7758 
 302   0.0000       0.878817        23.9138 
 303   0.0000       0.881410        23.9844 
 304   0.0000       0.886622        24.1262 
 305   0.0000       0.888686        24.1824 
 306   0.0000       0.891192        24.2506 
 307   0.0000       0.894398        24.3378 
 308   0.0000       0.901780        24.5387 
 309   0.0000       0.903373        24.5820 
 310   0.0000       0.907183        24.6857 
 311   0.0000       0.911817        24.8118 
 312   0.0000       0.917680        24.9713 
 313   0.0000       0.923411        25.1273 
 314   0.0000       0.926016        25.1982 
 315   0.0000       0.929026        25.2801 
 316   0.0000       0.933442        25.4003 
 317   0.0000       0.938903        25.5488 
 318   0.0000       0.940441        25.5907 
 319   0.0000       0.944445        25.6997 
 320   0.0000       0.952481        25.9183 
 321   0.0000       0.953477        25.9454 
 322   0.0000       0.956128        26.0176 
 323   0.0000       0.962370        26.1874 
 324   0.0000       0.964389        26.2424 
 325   0.0000       0.966647        26.3038 
 326   0.0000       0.971817        26.4445 
 327   0.0000       0.973742        26.4969 
 328   0.0000       0.978404        26.6237 
 329   0.0000       0.982334        26.7307 
 330   0.0000       0.985013        26.8036 
 331   0.0000       0.986537        26.8450 
 332   0.0000       0.990106        26.9422 
 333   0.0000       0.993368        27.0309 
 334   0.0000       0.998304        27.1652 
 335   0.0000       1.002100        27.2685 
 336   0.0000       1.005178        27.3523 
 337   0.0000       1.011516        27.5248 
 338   0.0000       1.015162        27.6240 
 339   0.0000       1.019414        27.7397 
 340   0.0000       1.021171        27.7875 
 341   0.0000       1.021702        27.8019 
 342   0.0000       1.031109        28.0579 
 343   0.0000       1.031927        28.0802 
 344   0.0000       1.036320        28.1997 
 345   0.0000       1.038675        28.2638 
 346   0.0000       1.039710        28.2920 
 347   0.0000       1.045943        28.4615 
 348   0.0000       1.051838        28.6220 
 349   0.0000       1.053295        28.6616 
 350   0.0000       1.055801        28.7298 
 351   0.0000       1.061891        28.8955 
 352   0.0000       1.064872        28.9766 
 353   0.0000       1.065681        28.9986 
 354   0.0000       1.069330        29.0980 
 355   0.0000       1.072040        29.1717 
 356   0.0000       1.077688        29.3254 
 357   0.0000       1.082154        29.4469 
 358   0.0000       1.087569        29.5943 
 359   0.0000       1.095773        29.8175 
 360   0.0000       1.097153        29.8550 
 361   0.0000       1.102296        29.9950 
 362   0.0000       1.107449        30.1352 
 363   0.0000       1.109188        30.1826 
 364   0.0000       1.111108        30.2348 
 365   0.0000       1.116836        30.3907 
 366   0.0000       1.122225        30.5373 
 367   0.0000       1.127163        30.6717 
 368   0.0000       1.133778        30.8517 
 369   0.0000       1.138402        30.9775 
 370   0.0000       1.140335        31.0301 
 371   0.0000       1.145547        31.1719 
 372   0.0000       1.150635        31.3104 
 373   0.0000       1.152472        31.3603 
 374   0.0000       1.153505        31.3885 
 375   0.0000       1.162595        31.6358 
 376   0.0000       1.166580        31.7443 
 377   0.0000       1.170764        31.8581 
 378   0.0000       1.176875        32.0244 
 379   0.0000       1.182800        32.1856 
 380   0.0000       1.184442        32.2303 
 381   0.0000       1.190592        32.3977 
 382   0.0000       1.196688        32.5635 
 383   0.0000       1.201839        32.7037 
 384   0.0000       1.205092        32.7922 
 385   0.0000       1.210684        32.9444 
 386   0.0000       1.213480        33.0205 
 387   0.0000       1.214948        33.0604 
 388   0.0000       1.220046        33.1991 
 389   0.0000       1.224273        33.3141 
 390   0.0000       1.234239        33.5854 
 391   0.0000       1.237117        33.6637 
 392   0.0000       1.241251        33.7762 
 393   0.0000       1.246317        33.9140 
 394   0.0000       1.248046        33.9611 
 395   0.0000       1.257116        34.2079 
 396   0.0000       1.260079        34.2885 
 397   0.0000       1.264568        34.4106 
 398   0.0000       1.270617        34.5753 
 399   0.0000       1.274488        34.6806 
 400   0.0000       1.279132        34.8069 
 401   0.0000       1.286018        34.9943 
 402   0.0000       1.296868        35.2896 
 403   0.0000       1.297997        35.3203 
 404   0.0000       1.306819        35.5603 
 405   0.0000       1.308211        35.5982 
 406   0.0000       1.310284        35.6546 
 407   0.0000       1.316876        35.8340 
 408   0.0000       1.324362        36.0377 
 409   0.0000       1.331147        36.2224 
 410   0.0000       1.334717        36.3195 
 411   0.0000       1.337562        36.3969 
 412   0.0000       1.340123        36.4666 
 413   0.0000       1.348317        36.6896 
 414   0.0000       1.355322        36.8802 
 415   0.0000       1.356851        36.9218 
 416   0.0000       1.366725        37.1905 
 417   0.0000       1.366973        37.1972 
 418   0.0000       1.371648        37.3244 
 419   0.0000       1.382349        37.6156 
 420   0.0000       1.390277        37.8314 
 421   0.0000       1.394248        37.9394 
 422   0.0000       1.400260        38.1030 
 423   0.0000       1.403586        38.1935 
 424   0.0000       1.407889        38.3106 
 425   0.0000       1.419071        38.6149 
 426   0.0000       1.420551        38.6552 
 427   0.0000       1.427132        38.8342 
 428   0.0000       1.429050        38.8864 
 429   0.0000       1.433767        39.0148 
 430   0.0000       1.438018        39.1305 
 431   0.0000       1.445011        39.3207 
 432   0.0000       1.450734        39.4765 
 433   0.0000       1.452627        39.5280 
 434   0.0000       1.456257        39.6268 
 435   0.0000       1.459937        39.7269 
 436   0.0000       1.467195        39.9244 
 437   0.0000       1.481672        40.3183 
 438   0.0000       1.486380        40.4465 
 439   0.0000       1.491060        40.5738 
 440   0.0000       1.493209        40.6323 
 441   0.0000       1.498600        40.7790 
 442   0.0000       1.503442        40.9107 
 443   0.0000       1.505854        40.9764 
 444   0.0000       1.515573        41.2408 
 445   0.0000       1.520350        41.3708 
 446   0.0000       1.524216        41.4760 
 447   0.0000       1.530386        41.6439 
 448   0.0000       1.536695        41.8156 
 449   0.0000       1.543218        41.9931 
 450   0.0000       1.545890        42.0658 
 451   0.0000       1.547152        42.1001 
 452   0.0000       1.552731        42.2520 
 453   0.0000       1.556716        42.3604 
 454   0.0000       1.569335        42.7038 
 455   0.0000       1.571347        42.7585 
 456   0.0000       1.575637        42.8753 
 457   0.0000       1.579818        42.9890 
 458   0.0000       1.584395        43.1136 
 459   0.0000       1.589124        43.2423 
 460   0.0000       1.591788        43.3148 
 461   0.0000       1.595965        43.4284 
 462   0.0000       1.601838        43.5882 
 463   0.0000       1.608539        43.7706 
 464   0.0000       1.616638        43.9910 
 465   0.0000       1.621691        44.1285 
 466   0.0000       1.625057        44.2201 
 467   0.0000       1.629717        44.3469 
 468   0.0000       1.635844        44.5136 
 469   0.0000       1.645832        44.7854 
 470   0.0000       1.651653        44.9438 
 471   0.0000       1.659401        45.1546 
 472   0.0000       1.662664        45.2434 
 473   0.0000       1.665313        45.3155 
 474   0.0000       1.673484        45.5378 
 475   0.0000       1.681785        45.7637 
 476   0.0000       1.688557        45.9480 
 477   0.0000       1.689983        45.9868 
 478   0.0000       1.700108        46.2623 
 479   0.0000       1.701305        46.2949 
 480   0.0000       1.707392        46.4605 
 481   0.0000       1.710859        46.5548 
 482   0.0000       1.713251        46.6199 
 483   0.0000       1.717368        46.7319 
 484   0.0000       1.724198        46.9178 
 485   0.0000       1.727536        47.0087 
 486   0.0000       1.730141        47.0795 
 487   0.0000       1.736190        47.2441 
 488   0.0000       1.744785        47.4780 
 489   0.0000       1.750664        47.6380 
 490   0.0000       1.756655        47.8010 
 491   0.0000       1.758384        47.8481 
 492   0.0000       1.765444        48.0402 
 493   0.0000       1.768676        48.1281 
 494   0.0000       1.779474        48.4220 
 495   0.0000       1.779702        48.4282 
 496   0.0000       1.783892        48.5422 
 497   0.0000       1.788345        48.6634 
 498   0.0000       1.793319        48.7987 
 499   0.0000       1.795799        48.8662 
 500   0.0000       1.800557        48.9956 
 501   0.0000       1.806534        49.1583 
 502   0.0000       1.815336        49.3978 
 503   0.0000       1.820811        49.5468 
 504   0.0000       1.822773        49.6002 
 505   0.0000       1.826414        49.6992 
 506   0.0000       1.833776        49.8996 
 507   0.0000       1.843690        50.1694 
 508   0.0000       1.848668        50.3048 
 509   0.0000       1.851815        50.3905 
 510   0.0000       1.860783        50.6345 
 511   0.0000       1.863406        50.7059 
 512   0.0000       1.867062        50.8053 
 513   0.0000       1.876053        51.0500 
 514   0.0000       1.876530        51.0630 
 515   0.0000       1.881064        51.1863 
 516   0.0000       1.884464        51.2789 
 517   0.0000       1.892579        51.4997 
 518   0.0000       1.896799        51.6145 
 519   0.0000       1.899251        51.6812 
 520   0.0000       1.907932        51.9175 
 521   0.0000       1.914387        52.0931 
 522   0.0000       1.928781        52.4848 
 523   0.0000       1.931300        52.5533 
 524   0.0000       1.933633        52.6168 
 525   0.0000       1.940330        52.7991 
 526   0.0000       1.943832        52.8944 
 527   0.0000       1.946015        52.9538 
 528   0.0000       1.954778        53.1922 
 529   0.0000       1.958464        53.2925 
 530   0.0000       1.966795        53.5192 
 531   0.0000       1.972824        53.6833 
 532   0.0000       1.979511        53.8652 
 533   0.0000       1.984209        53.9931 
 534   0.0000       1.996018        54.3144 
 535   0.0000       2.001801        54.4718 
 536   0.0000       2.006444        54.5981 
 537   0.0000       2.013846        54.7995 
 538   0.0000       2.018284        54.9203 
 539   0.0000       2.027472        55.1703 
 540   0.0000       2.030962        55.2653 
 541   0.0000       2.033643        55.3382 
 542   0.0000       2.038431        55.4685 
 543   0.0000       2.043348        55.6023 
 544   0.0000       2.053168        55.8695 
 545   0.0000       2.063915        56.1620 
 546   0.0000       2.066971        56.2451 
 547   0.0000       2.078149        56.5493 
 548   0.0000       2.081849        56.6500 
 549   0.0000       2.084534        56.7231 
 550   0.0000       2.096975        57.0616 
 551   0.0000       2.100691        57.1627 
 552   0.0000       2.105601        57.2963 
 553   0.0000       2.110253        57.4229 
 554   0.0000       2.114503        57.5385 
 555   0.0000       2.130336        57.9694 
 556   0.0000       2.132842        58.0376 
 557   0.0000       2.135195        58.1016 
 558   0.0000       2.143310        58.3224 
 559   0.0000       2.153589        58.6021 
 560   0.0000       2.163883        58.8823 
 561   0.0000       2.168502        59.0079 
 562   0.0000       2.177192        59.2444 
 563   0.0000       2.184191        59.4349 
 564   0.0000       2.186851        59.5073 
 565   0.0000       2.203748        59.9670 
 566   0.0000       2.208370        60.0928 
 567   0.0000       2.214821        60.2683 
 568   0.0000       2.222105        60.4665 
 569   0.0000       2.226733        60.5925 
 570   0.0000       2.231795        60.7302 
 571   0.0000       2.241325        60.9896 
 572   0.0000       2.256470        61.4017 
 573   0.0000       2.260829        61.5203 
 574   0.0000       2.264368        61.6166 
 575   0.0000       2.270092        61.7723 
 576   0.0000       2.282752        62.1168 
 577   0.0000       2.285263        62.1852 
 578   0.0000       2.288273        62.2671 
 579   0.0000       2.292183        62.3735 
 580   0.0000       2.300736        62.6062 
 581   0.0000       2.313886        62.9640 
 582   0.0000       2.320841        63.1533 
 583   0.0000       2.327574        63.3365 
 584   0.0000       2.330471        63.4153 
 585   0.0000       2.336183        63.5708 
 586   0.0000       2.337580        63.6088 
 587   0.0000       2.349802        63.9414 
 588   0.0000       2.362993        64.3003 
 589   0.0000       2.374501        64.6135 
 590   0.0000       2.379037        64.7369 
 591   0.0000       2.388156        64.9850 
 592   0.0000       2.399133        65.2837 
 593   0.0000       2.404422        65.4276 
 594   0.0000       2.408997        65.5521 
 595   0.0000       2.421237        65.8852 
 596   0.0000       2.423592        65.9493 
 597   0.0000       2.431123        66.1542 
 598   0.0000       2.443889        66.5016 
 599   0.0000       2.447920        66.6113 
 600   0.0000       2.455060        66.8056 
 601   0.0000       2.461639        66.9846 
 602   0.0000       2.473799        67.3155 
 603   0.0000       2.477921        67.4277 
 604   0.0000       2.484565        67.6085 
 605   0.0000       2.492835        67.8335 
 606   0.0000       2.499479        68.0143 
 607   0.0000       2.507621        68.2358 
 608   0.0000       2.525929        68.7340 
 609   0.0000       2.539947        69.1155 
 610   0.0000       2.557932        69.6049 
 611   0.0000       2.562844        69.7385 
 612   0.0000       2.575141        70.0732 
 613   0.0000       2.586523        70.3829 
 614   0.0000       2.592157        70.5362 
 615   0.0000       2.620664        71.3119 
 616   0.0000       2.622706        71.3675 
 617   0.0000       2.631462        71.6057 
 618   0.0000       2.654496        72.2325 
 619   0.0000       2.660365        72.3922 
 620   0.0000       2.663998        72.4911 
 621   0.0000       2.677074        72.8469 
 622   0.0000       2.683151        73.0122 
 623   0.0000       2.695304        73.3429 
 624   0.0000       2.703659        73.5703 
 625   0.0000       2.710164        73.7473 
 626   0.0000       2.717240        73.9399 
 627   0.0000       2.722471        74.0822 
 628   0.0000       2.730657        74.3050 
 629   0.0000       2.736562        74.4656 
 630   0.0000       2.750603        74.8477 
 631   0.0000       2.762616        75.1746 
 632   0.0000       2.771684        75.4214 
 633   0.0000       2.779451        75.6327 
 634   0.0000       2.783557        75.7444 
 635   0.0000       2.795487        76.0691 
 636   0.0000       2.800810        76.2139 
 637   0.0000       2.825923        76.8973 
 638   0.0000       2.834541        77.1318 
 639   0.0000       2.853269        77.6414 
 640   0.0000       2.865841        77.9835 
 641   0.0000       2.868711        78.0616 
 642   0.0000       2.895428        78.7886 
 643   0.0000       2.906612        79.0929 
 644   0.0000       2.915709        79.3405 
 645   0.0000       2.922044        79.5128 
 646   0.0000       2.941947        80.0545 
 647   0.0000       2.945685        80.1562 
 648   0.0000       2.952975        80.3545 
 649   0.0000       2.971500        80.8586 
 650   0.0000       2.986453        81.2655 
 651   0.0000       2.999448        81.6191 
 652   0.0000       3.019869        82.1748 
 653   0.0000       3.036786        82.6352 
 654   0.0000       3.047343        82.9224 
 655   0.0000       3.057791        83.2067 
 656   0.0000       3.066284        83.4378 
 657   0.0000       3.083509        83.9065 
 658   0.0000       3.098623        84.3178 
 659   0.0000       3.124529        85.0228 
 660   0.0000       3.131863        85.2223 
 661   0.0000       3.146066        85.6088 
 662   0.0000       3.165374        86.1342 
 663   0.0000       3.168212        86.2114 
 664   0.0000       3.187375        86.7329 
 665   0.0000       3.202661        87.1488 
 666   0.0000       3.208242        87.3007 
 667   0.0000       3.215281        87.4923 
 668   0.0000       3.228877        87.8622 
 669   0.0000       3.234187        88.0067 
 670   0.0000       3.243585        88.2624 
 671   0.0000       3.255429        88.5847 
 672   0.0000       3.259268        88.6892 
 673   0.0000       3.270829        89.0038 
 674   0.0000       3.282405        89.3188 
 675   0.0000       3.297194        89.7212 
 676   0.0000       3.307775        90.0091 
 677   0.0000       3.319120        90.3178 
 678   0.0000       3.321988        90.3959 
 679   0.0000       3.325362        90.4877 
 680   0.0000       3.338053        90.8330 
 681   0.0000       3.347440        91.0885 
 682   0.0000       3.349458        91.1434 
 683   0.0000       3.351989        91.2123 
 684   0.0000       3.365253        91.5732 
 685   0.0000       3.380661        91.9925 
 686   0.0000       3.395562        92.3979 
 687   0.0000       3.400928        92.5439 
 688   0.0000       3.417336        92.9904 
 689   0.0000       3.428996        93.3077 
 690   0.0000       3.436771        93.5193 
 691   0.0000       3.440809        93.6292 
 692   0.0000       3.446886        93.7945 
 693   0.0000       3.459164        94.1286 
 694   0.0000       3.473178        94.5100 
 695   0.0000       3.485299        94.8398 
 696   0.0000       3.490160        94.9721 
 697   0.0000       3.493831        95.0720 
 698   0.0000       3.506682        95.4217 
 699   0.0000       3.512447        95.5785 
 700   0.0000       3.516438        95.6871 
 701   0.0000       3.529629        96.0461 
 702   0.0000       3.536866        96.2430 
 703   0.0000       3.544664        96.4552 
 704   0.0000       3.562094        96.9295 
 705   0.0000       3.575499        97.2943 
 706   0.0000       3.577657        97.3530 
 707   0.0000       3.584741        97.5457 
 708   0.0000       3.592809        97.7653 
 709   0.0000       3.599821        97.9561 
 710   0.0000       3.608850        98.2018 
 711   0.0000       3.622795        98.5813 
 712   0.0000       3.625907        98.6659 
 713   0.0000       3.631042        98.8057 
 714   0.0000       3.637055        98.9693 
 715   0.0000       3.654378        99.4407 
 716   0.0000       3.657578        99.5278 
 717   0.0000       3.662499        99.6617 
 718   0.0000       3.676461       100.0416 
 719   0.0000       3.681632       100.1823 
 720   0.0000       3.685995       100.3010 
 721   0.0000       3.688974       100.3821 
 722   0.0000       3.698992       100.6547 
 723   0.0000       3.711414       100.9927 
 724   0.0000       3.721183       101.2585 
 725   0.0000       3.724752       101.3557 
 726   0.0000       3.732468       101.5656 
 727   0.0000       3.744511       101.8933 
 728   0.0000       3.746774       101.9549 
 729   0.0000       3.753184       102.1293 
 730   0.0000       3.756955       102.2319 
 731   0.0000       3.772960       102.6674 
 732   0.0000       3.776465       102.7628 
 733   0.0000       3.784623       102.9848 
 734   0.0000       3.798437       103.3607 
 735   0.0000       3.803752       103.5054 
 736   0.0000       3.806024       103.5672 
 737   0.0000       3.807487       103.6070 
 738   0.0000       3.827948       104.1638 
 739   0.0000       3.831935       104.2723 
 740   0.0000       3.833620       104.3181 
 741   0.0000       3.842414       104.5574 
 742   0.0000       3.849651       104.7543 
 743   0.0000       3.855735       104.9199 
 744   0.0000       3.864628       105.1619 
 745   0.0000       3.875464       105.4567 
 746   0.0000       3.883337       105.6710 
 747   0.0000       3.893223       105.9400 
 748   0.0000       3.899472       106.1100 
 749   0.0000       3.900413       106.1356 
 750   0.0000       3.913895       106.5025 
 751   0.0000       3.915409       106.5437 
 752   0.0000       3.927964       106.8853 
 753   0.0000       3.931588       106.9840 
 754   0.0000       3.934971       107.0760 
 755   0.0000       3.938594       107.1746 
 756   0.0000       3.942160       107.2716 
 757   0.0000       3.950217       107.4909 
 758   0.0000       3.956172       107.6529 
 759   0.0000       3.963009       107.8389 
 760   0.0000       3.973115       108.1140 
 761   0.0000       3.975763       108.1860 
 762   0.0000       3.990569       108.5889 
 763   0.0000       3.999348       108.8278 
 764   0.0000       4.003786       108.9485 
 765   0.0000       4.012001       109.1721 
 766   0.0000       4.019070       109.3645 
 767   0.0000       4.033100       109.7462 
 768   0.0000       4.043932       110.0410 
 769   0.0000       4.045387       110.0806 
 770   0.0000       4.052200       110.2660 
 771   0.0000       4.058645       110.4413 
 772   0.0000       4.069285       110.7309 
 773   0.0000       4.075689       110.9051 
 774   0.0000       4.082152       111.0810 
 775   0.0000       4.088635       111.2574 
 776   0.0000       4.098697       111.5312 
 777   0.0000       4.105352       111.7123 
 778   0.0000       4.114872       111.9714 
 779   0.0000       4.125003       112.2470 
 780   0.0000       4.131140       112.4140 
 781   0.0000       4.135577       112.5348 
 782   0.0000       4.142256       112.7165 
 783   0.0000       4.156344       113.0999 
 784   0.0000       4.157491       113.1311 
 785   0.0000       4.172746       113.5462 
 786   0.0000       4.177154       113.6661 
 787   0.0000       4.189566       114.0039 
 788   0.0000       4.198421       114.2448 
 789   0.0000       4.204315       114.4052 
 790   0.0000       4.210515       114.5739 
 791   0.0000       4.215516       114.7100 
 792   0.0000       4.224628       114.9580 
 793   0.0000       4.237361       115.3044 
 794   0.0000       4.240257       115.3833 
 795   0.0000       4.254297       115.7653 
 796   0.0000       4.257311       115.8473 
 797   0.0000       4.268891       116.1624 
 798   0.0000       4.273761       116.2949 
 799   0.0000       4.297073       116.9293 
 800   0.0000       4.303046       117.0918 
 801   0.0000       4.306821       117.1945 
 802   0.0000       4.308540       117.2413 
 803   0.0000       4.325742       117.7094 
 804   0.0000       4.331668       117.8707 
 805   0.0000       4.336891       118.0128 
 806   0.0000       4.346800       118.2824 
 807   0.0000       4.363265       118.7305 
 808   0.0000       4.370761       118.9345 
 809   0.0000       4.376803       119.0989 
 810   0.0000       4.383136       119.2712 
 811   0.0000       4.392803       119.5342 
 812   0.0000       4.400925       119.7553 
 813   0.0000       4.411262       120.0366 
 814   0.0000       4.427076       120.4669 
 815   0.0000       4.435157       120.6868 
 816   0.0000       4.440133       120.8222 
 817   0.0000       4.449327       121.0723 
 818   0.0000       4.457742       121.3013 
 819   0.0000       4.466427       121.5377 
 820   0.0000       4.475576       121.7866 
 821   0.0000       4.483592       122.0047 
 822   0.0000       4.491165       122.2108 
 823   0.0000       4.504944       122.5858 
 824   0.0000       4.511741       122.7707 
 825   0.0000       4.517877       122.9377 
 826   0.0000       4.524099       123.1070 
 827   0.0000       4.536213       123.4366 
 828   0.0000       4.554989       123.9475 
 829   0.0000       4.560188       124.0890 
 830   0.0000       4.574264       124.4720 
 831   0.0000       4.591634       124.9447 
 832   0.0000       4.600199       125.1778 
 833   0.0000       4.607121       125.3661 
 834   0.0000       4.613029       125.5269 
 835   0.0000       4.619668       125.7075 
 836   0.0000       4.629543       125.9763 
 837   0.0000       4.640325       126.2697 
 838   0.0000       4.663111       126.8897 
 839   0.0000       4.680138       127.3530 
 840   0.0000       4.687251       127.5466 
 841   0.0000       4.696996       127.8118 
 842   0.0000       4.705670       128.0478 
 843   0.0000       4.715346       128.3111 
 844   0.0000       4.730421       128.7213 
 845   0.0000       4.737352       128.9099 
 846   0.0000       4.752926       129.3337 
 847   0.0000       4.758201       129.4772 
 848   0.0000       4.766578       129.7052 
 849   0.0000       4.785356       130.2162 
 850   0.0000       4.795703       130.4977 
 851   0.0000       4.797671       130.5513 
 852   0.0000       4.811565       130.9293 
 853   0.0000       4.819770       131.1526 
 854   0.0000       4.831081       131.4604 
 855   0.0000       4.852869       132.0533 
 856   0.0000       4.861503       132.2882 
 857   0.0000       4.884016       132.9008 
 858   0.0000       4.887122       132.9853 
 859   0.0000       4.902944       133.4159 
 860   0.0000       4.904122       133.4479 
 861   0.0000       4.915551       133.7589 
 862   0.0000       4.932972       134.2330 
 863   0.0000       4.944726       134.5528 
 864   0.0000       4.952966       134.7771 
 865   0.0000       4.962026       135.0236 
 866   0.0000       4.975973       135.4031 
 867   0.0000       4.994659       135.9116 
 868   0.0000       5.000506       136.0707 
 869   0.0000       5.013897       136.4351 
 870   0.0000       5.018491       136.5601 
 871   0.0000       5.028024       136.8195 
 872   0.0000       5.040729       137.1652 
 873   0.0000       5.047303       137.3441 
 874   0.0000       5.057674       137.6263 
 875   0.0000       5.067099       137.8828 
 876   0.0000       5.084481       138.3558 
 877   0.0000       5.096503       138.6829 
 878   0.0000       5.113330       139.1408 
 879   0.0000       5.129682       139.5857 
 880   0.0000       5.139516       139.8533 
 881   0.0000       5.151255       140.1728 
 882   0.0000       5.165554       140.5619 
 883   0.0000       5.172522       140.7515 
 884   0.0000       5.184408       141.0749 
 885   0.0000       5.202948       141.5794 
 886   0.0000       5.209890       141.7683 
 887   0.0000       5.227111       142.2369 
 888   0.0000       5.239567       142.5759 
 889   0.0000       5.245594       142.7399 
 890   0.0000       5.259764       143.1255 
 891   0.0000       5.260871       143.1556 
 892   0.0000       5.282733       143.7505 
 893   0.0000       5.292664       144.0207 
 894   0.0000       5.310970       144.5188 
 895   0.0000       5.321936       144.8172 
 896   0.0000       5.343443       145.4025 
 897   0.0000       5.359482       145.8389 
 898   0.0000       5.367658       146.0614 
 899   0.0000       5.381525       146.4387 
 900   0.0000       5.392126       146.7272 
 901   0.0000       5.392618       146.7406 
 902   0.0000       5.399031       146.9151 
 903   0.0000       5.414074       147.3244 
 904   0.0000       5.427948       147.7020 
 905   0.0000       5.433474       147.8523 
 906   0.0000       5.448067       148.2494 
 907   0.0000       5.462242       148.6352 
 908   0.0000       5.470994       148.8733 
 909   0.0000       5.473339       148.9371 
 910   0.0000       5.490131       149.3941 
 911   0.0000       5.516526       150.1123 
 912   0.0000       5.533119       150.5638 
 913   0.0000       5.553480       151.1179 
 914   0.0000       5.557528       151.2280 
 915   0.0000       5.566777       151.4797 
 916   0.0000       5.575727       151.7233 
 917   0.0000       5.591207       152.1445 
 918   0.0000       5.595364       152.2576 
 919   0.0000       5.610938       152.6814 
 920   0.0000       5.628464       153.1583 
 921   0.0000       5.637273       153.3980 
 922   0.0000       5.641137       153.5032 
 923   0.0000       5.654206       153.8588 
 924   0.0000       5.658707       153.9812 
 925   0.0000       5.670162       154.2929 
 926   0.0000       5.679291       154.5414 
 927   0.0000       5.690643       154.8503 
 928   0.0000       5.700875       155.1287 
 929   0.0000       5.715159       155.5174 
 930   0.0000       5.732280       155.9833 
 931   0.0000       5.738382       156.1493 
 932   0.0000       5.752896       156.5443 
 933   0.0000       5.754646       156.5919 
 934   0.0000       5.769404       156.9935 
 935   0.0000       5.782930       157.3615 
 936   0.0000       5.786481       157.4582 
 937   0.0000       5.815263       158.2414 
 938   0.0000       5.822325       158.4335 
 939   0.0000       5.846818       159.1000 
 940   0.0000       5.855895       159.3470 
 941   0.0000       5.887209       160.1991 
 942   0.0000       5.916711       161.0019 
 943   0.0000       5.934162       161.4768 
 944   0.0000       5.950436       161.9196 
 945   0.0000       5.979623       162.7138 
 946   0.0000       6.045944       164.5185 
 947   0.0000       6.090456       165.7297 
 948   0.0000       6.127067       166.7260 
 949   0.0000       6.137493       167.0097 
 950   0.0000       6.157689       167.5592 
 951   0.0000       6.174152       168.0072 
 952   0.0000       6.192651       168.5106 
 953   0.0000       6.203764       168.8130 
 954   0.0000       6.232829       169.6039 
 955   0.0000       6.239745       169.7921 
 956   0.0000       6.257463       170.2742 
 957   0.0000       6.262431       170.4094 
 958   0.0000       6.270680       170.6339 
 959   0.0000       6.285113       171.0266 
 960   0.0000       6.319458       171.9612 
 961   0.0000       6.335128       172.3876 
 962   0.0000       6.358223       173.0160 
 963   0.0000       6.365701       173.2195 
 964   0.0000       6.397788       174.0927 
 965   0.0000       6.400673       174.1712 
 966   0.0000       6.441673       175.2868 
 967   0.0000       6.452897       175.5923 
 968   0.0000       6.515909       177.3069 
 969   0.0000       6.538163       177.9124 
 970   0.0000       6.585986       179.2138 
 971   0.0000       6.713835       182.6927 
 972   0.0000       6.834542       185.9773 
 973   0.0000       6.867521       186.8747 
 974   0.0000       6.883850       187.3191 
 975   0.0000       6.907963       187.9752 
 976   0.0000       6.942981       188.9281 
 977   0.0000       6.950067       189.1209 
 978   0.0000       6.975047       189.8007 
 979   0.0000       6.989699       190.1994 
 980   0.0000       7.021768       191.0720 
 981   0.0000       7.029087       191.2712 
 982   0.0000       7.082123       192.7144 
 983   0.0000       7.099014       193.1740 
 984   0.0000       7.173597       195.2035 
 985   0.0000       7.214427       196.3146 
 986   0.0000       7.375936       200.7094 
 987   0.0000       7.421390       201.9463 
 988   0.0000       7.503889       204.1912 
 989   0.0000       7.533051       204.9847 
 990   0.0000       7.564764       205.8477 
 991   0.0000       7.612687       207.1517 
 992   0.0000       7.703728       209.6291 
 993   0.0000       7.759786       211.1545 
 994   0.0000       7.853363       213.7009 
 995   0.0000       7.922025       215.5693 
 996   0.0000       8.059358       219.3063 
 997   0.0000       8.145779       221.6579 
 998   0.0000       8.334007       226.7799 
 999   0.0000       9.432262       256.6649 
 1000   0.0000       9.453715       257.2487 
 1001   0.0000       9.465727       257.5755 
 1002   0.0000       9.474056       257.8022 
 1003   0.0000       9.484320       258.0815 
 1004   0.0000       9.517143       258.9746 
 1005   0.0000       9.754195       265.4251 
 1006   0.0000      10.096470       274.7389 
 1007   0.0000      10.127871       275.5934 
 1008   0.0000      10.143102       276.0078 
 1009   0.0000      10.219549       278.0881 
 1010   0.0000      10.222619       278.1716 
 1011   0.0000      10.262239       279.2497 
 1012   0.0000      10.390534       282.7408 
 1013   0.0000      10.431028       283.8427 
 1014   0.0000      10.553033       287.1626 
 1015   0.0000      17.279063       470.1872 
 1016   0.0000      18.161230       494.1922 
 1017   0.0000      18.471075       502.6235 
 1018   0.0000      18.610041       506.4050 
 1019   0.0000      18.868704       513.4435 
 1020   0.0000      19.061128       518.6797 
 1021   0.0000      19.401435       527.9399 
 1022   0.0000      20.339845       553.4753 
 1023   0.0000      20.934935       569.6686 
 1024   0.0000      22.035805       599.6247 

                 SPIN DOWN ORBITALS
  NO   OCC          E(Eh)            E(eV) 
   0   1.0000    -261.551503     -7117.1782 
   1   1.0000    -104.777720     -2851.1467 
   2   1.0000    -104.776522     -2851.1141 
   3   1.0000    -104.775523     -2851.0869 
   4   1.0000     -32.060881      -872.4209 
   5   1.0000     -27.538898      -749.3715 
   6   1.0000     -27.538779      -749.3683 
   7   1.0000     -27.538384      -749.3575 
   8   1.0000     -20.556303      -559.3654 
   9   1.0000     -11.397749      -310.1485 
  10   1.0000     -11.347677      -308.7860 
  11   1.0000     -11.273448      -306.7661 
  12   1.0000     -11.264729      -306.5289 
  13   1.0000     -11.260081      -306.4024 
  14   1.0000     -11.259217      -306.3789 
  15   1.0000     -11.258889      -306.3700 
  16   1.0000     -11.254835      -306.2596 
  17   1.0000     -10.504233      -285.8347 
  18   1.0000     -10.502957      -285.8000 
  19   1.0000     -10.501981      -285.7734 
  20   1.0000      -7.970119      -216.8780 
  21   1.0000      -7.969555      -216.8626 
  22   1.0000      -7.969482      -216.8606 
  23   1.0000      -7.968930      -216.8456 
  24   1.0000      -7.968238      -216.8268 
  25   1.0000      -7.968143      -216.8242 
  26   1.0000      -7.967907      -216.8178 
  27   1.0000      -7.967236      -216.7995 
  28   1.0000      -7.967150      -216.7972 
  29   1.0000      -4.136048      -112.5476 
  30   1.0000      -2.657772       -72.3217 
  31   1.0000      -2.657707       -72.3199 
  32   1.0000      -2.657157       -72.3049 
  33   1.0000      -1.396911       -38.0119 
  34   1.0000      -1.167940       -31.7813 
  35   1.0000      -1.084887       -29.5213 
  36   1.0000      -1.038962       -28.2716 
  37   1.0000      -1.036429       -28.2027 
  38   1.0000      -1.024880       -27.8884 
  39   1.0000      -1.023272       -27.8447 
  40   1.0000      -0.997325       -27.1386 
  41   1.0000      -0.985692       -26.8220 
  42   1.0000      -0.927261       -25.2321 
  43   1.0000      -0.802669       -21.8417 
  44   1.0000      -0.760552       -20.6957 
  45   1.0000      -0.695421       -18.9234 
  46   1.0000      -0.693342       -18.8668 
  47   1.0000      -0.681388       -18.5415 
  48   1.0000      -0.660069       -17.9614 
  49   1.0000      -0.644460       -17.5366 
  50   1.0000      -0.622615       -16.9422 
  51   1.0000      -0.600644       -16.3444 
  52   1.0000      -0.594538       -16.1782 
  53   1.0000      -0.586276       -15.9534 
  54   1.0000      -0.579105       -15.7582 
  55   1.0000      -0.573658       -15.6100 
  56   1.0000      -0.565694       -15.3933 
  57   1.0000      -0.553914       -15.0728 
  58   1.0000      -0.550478       -14.9793 
  59   1.0000      -0.535884       -14.5822 
  60   1.0000      -0.525472       -14.2988 
  61   1.0000      -0.506962       -13.7951 
  62   1.0000      -0.478811       -13.0291 
  63   1.0000      -0.469552       -12.7772 
  64   1.0000      -0.466241       -12.6871 
  65   1.0000      -0.440429       -11.9847 
  66   1.0000      -0.437380       -11.9017 
  67   1.0000      -0.435772       -11.8580 
  68   1.0000      -0.423526       -11.5247 
  69   1.0000      -0.415687       -11.3114 
  70   1.0000      -0.402610       -10.9556 
  71   1.0000      -0.379277       -10.3207 
  72   0.0000       0.009902         0.2695 
  73   0.0000       0.020490         0.5576 
  74   0.0000       0.022218         0.6046 
  75   0.0000       0.030209         0.8220 
  76   0.0000       0.037805         1.0287 
  77   0.0000       0.038388         1.0446 
  78   0.0000       0.041535         1.1302 
  79   0.0000       0.043618         1.1869 
  80   0.0000       0.045345         1.2339 
  81   0.0000       0.048991         1.3331 
  82   0.0000       0.056348         1.5333 
  83   0.0000       0.059557         1.6206 
  84   0.0000       0.062356         1.6968 
  85   0.0000       0.064548         1.7564 
  86   0.0000       0.068268         1.8577 
  87   0.0000       0.071579         1.9478 
  88   0.0000       0.074260         2.0207 
  89   0.0000       0.079179         2.1546 
  90   0.0000       0.089474         2.4347 
  91   0.0000       0.089810         2.4439 
  92   0.0000       0.091706         2.4954 
  93   0.0000       0.095811         2.6072 
  94   0.0000       0.100258         2.7282 
  95   0.0000       0.102611         2.7922 
  96   0.0000       0.109205         2.9716 
  97   0.0000       0.114550         3.1171 
  98   0.0000       0.118519         3.2251 
  99   0.0000       0.120416         3.2767 
 100   0.0000       0.121265         3.2998 
 101   0.0000       0.122055         3.3213 
 102   0.0000       0.124017         3.3747 
 103   0.0000       0.126075         3.4307 
 104   0.0000       0.127437         3.4677 
 105   0.0000       0.128263         3.4902 
 106   0.0000       0.131288         3.5725 
 107   0.0000       0.132512         3.6058 
 108   0.0000       0.134854         3.6696 
 109   0.0000       0.135609         3.6901 
 110   0.0000       0.138604         3.7716 
 111   0.0000       0.140694         3.8285 
 112   0.0000       0.146859         3.9962 
 113   0.0000       0.149539         4.0692 
 114   0.0000       0.151897         4.1333 
 115   0.0000       0.155007         4.2180 
 116   0.0000       0.156912         4.2698 
 117   0.0000       0.160117         4.3570 
 118   0.0000       0.165363         4.4998 
 119   0.0000       0.168721         4.5911 
 120   0.0000       0.170180         4.6308 
 121   0.0000       0.173384         4.7180 
 122   0.0000       0.176923         4.8143 
 123   0.0000       0.178741         4.8638 
 124   0.0000       0.184159         5.0112 
 125   0.0000       0.188156         5.1200 
 126   0.0000       0.191688         5.2161 
 127   0.0000       0.194139         5.2828 
 128   0.0000       0.198464         5.4005 
 129   0.0000       0.202617         5.5135 
 130   0.0000       0.203766         5.5448 
 131   0.0000       0.208114         5.6631 
 132   0.0000       0.209951         5.7130 
 133   0.0000       0.211649         5.7593 
 134   0.0000       0.215671         5.8687 
 135   0.0000       0.218026         5.9328 
 136   0.0000       0.224795         6.1170 
 137   0.0000       0.226820         6.1721 
 138   0.0000       0.233693         6.3591 
 139   0.0000       0.234485         6.3807 
 140   0.0000       0.236303         6.4301 
 141   0.0000       0.241017         6.5584 
 142   0.0000       0.243379         6.6227 
 143   0.0000       0.245350         6.6763 
 144   0.0000       0.249157         6.7799 
 145   0.0000       0.254602         6.9281 
 146   0.0000       0.256218         6.9721 
 147   0.0000       0.260927         7.1002 
 148   0.0000       0.261808         7.1242 
 149   0.0000       0.266581         7.2540 
 150   0.0000       0.271660         7.3923 
 151   0.0000       0.277820         7.5599 
 152   0.0000       0.283735         7.7208 
 153   0.0000       0.285241         7.7618 
 154   0.0000       0.288857         7.8602 
 155   0.0000       0.294955         8.0261 
 156   0.0000       0.301426         8.2022 
 157   0.0000       0.305927         8.3247 
 158   0.0000       0.306678         8.3451 
 159   0.0000       0.308706         8.4003 
 160   0.0000       0.310704         8.4547 
 161   0.0000       0.315996         8.5987 
 162   0.0000       0.321074         8.7369 
 163   0.0000       0.326393         8.8816 
 164   0.0000       0.330772         9.0008 
 165   0.0000       0.332996         9.0613 
 166   0.0000       0.335870         9.1395 
 167   0.0000       0.340130         9.2554 
 168   0.0000       0.341839         9.3019 
 169   0.0000       0.347519         9.4565 
 170   0.0000       0.352987         9.6053 
 171   0.0000       0.357028         9.7152 
 172   0.0000       0.362281         9.8582 
 173   0.0000       0.364307         9.9133 
 174   0.0000       0.365836         9.9549 
 175   0.0000       0.369723        10.0607 
 176   0.0000       0.371032        10.0963 
 177   0.0000       0.374981        10.2037 
 178   0.0000       0.376204        10.2370 
 179   0.0000       0.380256        10.3473 
 180   0.0000       0.387950        10.5567 
 181   0.0000       0.389241        10.5918 
 182   0.0000       0.391971        10.6661 
 183   0.0000       0.394156        10.7255 
 184   0.0000       0.396130        10.7792 
 185   0.0000       0.400797        10.9063 
 186   0.0000       0.404597        11.0096 
 187   0.0000       0.404858        11.0167 
 188   0.0000       0.409938        11.1550 
 189   0.0000       0.414041        11.2666 
 190   0.0000       0.415885        11.3168 
 191   0.0000       0.417381        11.3575 
 192   0.0000       0.423349        11.5199 
 193   0.0000       0.425607        11.5814 
 194   0.0000       0.430936        11.7264 
 195   0.0000       0.436663        11.8822 
 196   0.0000       0.439120        11.9491 
 197   0.0000       0.448449        12.2029 
 198   0.0000       0.451831        12.2950 
 199   0.0000       0.454747        12.3743 
 200   0.0000       0.456501        12.4220 
 201   0.0000       0.459926        12.5152 
 202   0.0000       0.463290        12.6068 
 203   0.0000       0.466493        12.6939 
 204   0.0000       0.470966        12.8156 
 205   0.0000       0.473723        12.8907 
 206   0.0000       0.476028        12.9534 
 207   0.0000       0.478569        13.0225 
 208   0.0000       0.479894        13.0586 
 209   0.0000       0.483692        13.1619 
 210   0.0000       0.487104        13.2548 
 211   0.0000       0.491661        13.3788 
 212   0.0000       0.492799        13.4097 
 213   0.0000       0.499428        13.5901 
 214   0.0000       0.504202        13.7200 
 215   0.0000       0.505254        13.7487 
 216   0.0000       0.507099        13.7989 
 217   0.0000       0.508942        13.8490 
 218   0.0000       0.512417        13.9436 
 219   0.0000       0.516043        14.0422 
 220   0.0000       0.517845        14.0913 
 221   0.0000       0.521191        14.1823 
 222   0.0000       0.525295        14.2940 
 223   0.0000       0.527620        14.3573 
 224   0.0000       0.532619        14.4933 
 225   0.0000       0.536441        14.5973 
 226   0.0000       0.541984        14.7481 
 227   0.0000       0.543169        14.7804 
 228   0.0000       0.547726        14.9044 
 229   0.0000       0.549597        14.9553 
 230   0.0000       0.552634        15.0379 
 231   0.0000       0.557063        15.1585 
 232   0.0000       0.562749        15.3132 
 233   0.0000       0.565211        15.3802 
 234   0.0000       0.567390        15.4395 
 235   0.0000       0.572842        15.5878 
 236   0.0000       0.576129        15.6773 
 237   0.0000       0.578155        15.7324 
 238   0.0000       0.582349        15.8465 
 239   0.0000       0.585007        15.9188 
 240   0.0000       0.590855        16.0780 
 241   0.0000       0.595635        16.2081 
 242   0.0000       0.601369        16.3641 
 243   0.0000       0.602214        16.3871 
 244   0.0000       0.606204        16.4956 
 245   0.0000       0.612029        16.6542 
 246   0.0000       0.613618        16.6974 
 247   0.0000       0.619941        16.8695 
 248   0.0000       0.623015        16.9531 
 249   0.0000       0.626669        17.0525 
 250   0.0000       0.629874        17.1398 
 251   0.0000       0.635293        17.2872 
 252   0.0000       0.636612        17.3231 
 253   0.0000       0.640617        17.4321 
 254   0.0000       0.645860        17.5748 
 255   0.0000       0.647343        17.6151 
 256   0.0000       0.649397        17.6710 
 257   0.0000       0.654323        17.8050 
 258   0.0000       0.657248        17.8846 
 259   0.0000       0.661890        18.0109 
 260   0.0000       0.665379        18.1059 
 261   0.0000       0.671902        18.2834 
 262   0.0000       0.674352        18.3500 
 263   0.0000       0.675488        18.3810 
 264   0.0000       0.682511        18.5721 
 265   0.0000       0.686092        18.6695 
 266   0.0000       0.696437        18.9510 
 267   0.0000       0.698143        18.9974 
 268   0.0000       0.699578        19.0365 
 269   0.0000       0.705202        19.1895 
 270   0.0000       0.712569        19.3900 
 271   0.0000       0.716857        19.5067 
 272   0.0000       0.720590        19.6082 
 273   0.0000       0.724935        19.7265 
 274   0.0000       0.727842        19.8056 
 275   0.0000       0.734368        19.9832 
 276   0.0000       0.737347        20.0642 
 277   0.0000       0.747215        20.3328 
 278   0.0000       0.749204        20.3869 
[...]
  | sigma^2 in % of trace(Dij) retained ...   8.51e+00
  | sigma^2 in % of trace(Dip) retained ...   1.74e+01
  | sigma^2 in % of trace(Dpq) retained ...   1.43e-01
  | Av. % of trace(Di) retained         ...  99.998488260339
  | Av. % of trace(Dp) retained         ...  99.999999511484
  | sigma^2 in % of trace(Di) retained  ...   7.86e-07
  | sigma^2 in % of trace(Dp) retained  ...   2.51e-13
 Distributions of % trace(Dij) recovered:
  |       >= 99.9  ...   103 ( 19.7 % of all IJ-pairs)
  |   [80.0, 90.0) ...    37 (  7.1 % of all IJ-pairs)
  |   [90.0, 99.0) ...   286 ( 54.8 % of all IJ-pairs)
  |   [99.0, 99.9) ...    96 ( 18.4 % of all IJ-pairs)
 Distributions of % trace(Dip) recovered:
  |   [70.0, 80.0) ...     1 (  0.8 % of all IP-pairs)
  |   [80.0, 90.0) ...    12 ( 10.2 % of all IP-pairs)
  |   [90.0, 99.0) ...    63 ( 53.4 % of all IP-pairs)
  |   [99.0, 99.9) ...    42 ( 35.6 % of all IP-pairs)
 Distributions of % trace(Dpq) recovered:
  |       >= 99.9  ...     5 ( 33.3 % of all PQ-pairs)
  |   [99.0, 99.9) ...    10 ( 66.7 % of all PQ-pairs)
 Distributions of % trace(Di) recovered :
  |       >= 99.9  ...    43 (100.0 % of all I-pairs )
 Distributions of % trace(Dp) recovered :
  |       >= 99.9  ...     5 (100.0 % of all P-pairs )

                       ===========================
                       1144 OF 1727 PAIRS ARE KEPT
                       ===========================

 Initial PAO correlation energy (all pairs)    ...  -2.6952615081 Eh
 Energy constituents in PAO basis (Eh):
  | Vijab(+0) ...  -2.2658409689
  | Viab (-1) ...  -0.1753810561
  | Vab  (-2) ...  -0.0573638403
  | Va   (-1) ...  -0.0000421491
  | Vija (+1) ...  -0.0726947457
  | Vij  (+2) ...  -0.0155068581
  | Via  (+0) ...  -0.1082725302
  | Vi   (+1) ...  -0.0001593597
 Initial PNO correlation energy                ...  -2.6608911379 Eh
 Energy constituents in PNO basis (Eh):
  | Vijab(+0) ...  -2.2476223737 (err=  0.0182185951)
  | Viab (-1) ...  -0.1609374001 (err=  0.0144436560)
  | Vab  (-2) ...  -0.0568905555 (err=  0.0004732848)
  | Va   (-1) ...  -0.0000243594 (err=  0.0000177898)
  | Vija (+1) ...  -0.0716493392 (err=  0.0010454064)
  | Vij  (+2) ...  -0.0154471411 (err=  0.0000597170)
  | Via  (+0) ...  -0.1081610689 (err=  0.0001114613)
  | Vi   (+1) ...  -0.0001588999 (err=  0.0000004598)
 Sum of total truncation errors ...   0.0343703702 Eh
  | Pair screening ...   0.0110565145 Eh
  | PNO truncation ...   0.0233138558 Eh

 UMP2 correlation energy (PAO) ...  -2.6903736353
  | alpha-alpha ...  -0.3870914830 (NP_aa=  939)
  | alpha-beta  ...  -1.9957789997 (NP_ab= 1702)
  | beta -beta  ...  -0.3075031526 (NP_bb=  730)
 UMP2 correlation energy (PNO) ...  -2.6556214594
  | alpha-alpha ...  -0.3750302856 (err=  0.0120611974, NP_aa=  607)
  | alpha-beta  ...  -1.9770573015 (err=  0.0187216982, NP_ab= 1119)
  | beta -beta  ...  -0.3035338722 (err=  0.0039692804, NP_bb=  479)
 Sum of total UMP2 truncation errors ...   0.0347521759 Eh
  | Pair screening ...   0.0110712863 Eh
  | PNO truncation ...   0.0236808896 Eh
 Timing for NEV-PNO construction (sec.)
  | Intermediate construction  ..           62.968
  | Amplitude construction     ..           73.548
  | Total time                 ..          136.516
 Making pair pair interaction lists ...      ok
 Total size for 2-ext PNO integrals ...     11.1 MB
Checking the number of SOMO/SOMO doubles PNOs ... 
 #Truncate: (72, 72)[171] -> [84] .. 
 #Truncate: (73, 73)[174] -> [84] .. 
 #Truncate: (74, 74)[172] -> [84] .. 
 #Truncate: (75, 75)[172] -> [84] .. 
 #Truncate: (76, 76)[172] -> [84] .. 

--------------------------------
LOCAL RI TRANSFORMATION (VABPAO)
--------------------------------

Number of PAOs:    1030
Basis functions:   1025 (343 shells)
Aux. functions:    2424 (644 shells)

Processing maps (0.0 sec)
Average map sizes:
   Aux shells -> PAOs           1030.0
   PAOs       -> AO shells       343.0

Calculating integrals (199.6 sec, 37370.165 MB)
Finished
-----------------------------
LOCAL RI TRANSFORMATION (IJV)
-----------------------------

Orbital window:      29 to 76
Basis functions:   1025 (343 shells)
Aux. functions:    2424 (644 shells)

Processing maps (0.0 sec)
Average map sizes:
   Aux shells -> MOs(i)           46.6
   Aux shells -> MOs(j)           48.0
   MOs        -> AO shells       340.1

Calculating integrals (23.2 sec, 41.526 MB)
Sorting integrals (0.3 sec, 41.498 MB)
Total time for the integral transformation: 23.6 sec


-------------------------------------
Pair Pair Term precalculation with     
RI-(ij|mn) and (im|jn) transformation  
ON THE FLY                             
-------------------------------------

   IBatch   1 (of   2)              ... done ( 1043.232 sec)
   IBatch   2 (of   2)              ... done ( 1310.532 sec)
Total EXT                           ...        2353.764 sec

---------------------
RI-PNO TRANSFORMATION
---------------------

Total Number of PNOs                   ... 35230
Total Number of IJ-PNOs                ... 31055
Total Number of IP-PNOs                ...  3231
Total Number of PQ-PNOs                ...   944
Total Number of IJ-pairs               ...  1001
Total Number of PI-pairs               ...   118
Total Number of PQ-pairs               ...    25
Average number of PNOs per pair        ...    30
Maximal number of PNOs per pair        ...    84
>> Statistics for ij-pairs..
   #pairs with  1 -  5 PNOs   :    0
   #pairs with  6 - 10 PNOs   :    0
   #pairs with 11 - 15 PNOs   :   64
   #pairs with 16 - 20 PNOs   :  260
   #pairs with 21 - 25 PNOs   :  160
   #pairs with 26 - 30 PNOs   :  160
   #pairs with 31 - 35 PNOs   :   62
   #pairs with 36 - 40 PNOs   :   48
   #pairs with 41 - 45 PNOs   :   46
   #pairs with 46 - 50 PNOs   :   28
   #pairs with 51 - 55 PNOs   :   33
   #pairs with 56 - 60 PNOs   :   57
   #pairs with 61 - 65 PNOs   :   76
   #pairs with 66 - 70 PNOs   :    4
   #pairs with 76 - 80 PNOs   :    3
>> Statistics for ip-pairs..
   #pairs with  1 -  5 PNOs   :    0
   #pairs with  6 - 10 PNOs   :    2
   #pairs with 11 - 15 PNOs   :   14
   #pairs with 16 - 20 PNOs   :    4
   #pairs with 21 - 25 PNOs   :   27
   #pairs with 26 - 30 PNOs   :    9
   #pairs with 31 - 35 PNOs   :   50
   #pairs with 36 - 40 PNOs   :   12
   #pairs with 41 - 45 PNOs   :    0
   #pairs with 46 - 50 PNOs   :    0
>> Statistics for pq-pairs..
   #pairs with  1 -  5 PNOs   :    0
   #pairs with  6 - 10 PNOs   :    0
   #pairs with 11 - 15 PNOs   :    0
   #pairs with 16 - 20 PNOs   :    0
   #pairs with 21 - 25 PNOs   :   12
   #pairs with 26 - 30 PNOs   :    8
   #pairs with 31 - 35 PNOs   :    0
   #pairs with 36 - 40 PNOs   :    0
   #pairs with 41 - 45 PNOs   :    0
   #pairs with 46 - 50 PNOs   :    0
   #pairs with 81 - 85 PNOs   :    5

Generation of (ij|ab)[P] integrals            ... on
Generation of (ia|bc)[P],(ja|bc)[P] integrals ... on
Storage of 3 and 4 external integrals         ... on
Generation of ALL (ka|bc)[P] integrals        ... on
Keep RI integrals in memory                   ... off

Ibatch:  1 (of  1)
Starting 2-4 index PNO integral generation ... done

Timings:
Total PNO integral transformation time     ...       2457.447 sec
Size of the 3-external file                ...       288 MB
Size of the 4-external file                ...      1952 MB
Size of the IKJL file                      ...        19 MB
Size of the all 3-external file            ...      6935 MB
Size of the 1-external file                ...        22 MB

Size of the PAO/PNO coefficient matrices   ...     232.8 MB

Making pair/pair overlap matrices          ... done (  405.694 sec)
Size of the pair overlap file              ...    2520.0 MB
Total # unrestricted pairs ...       2205
  # of alpha-alpha pairs   ...        607
  # of alpha-beta pairs    ...       1119
  # of beta-beta pairs     ...        479
Constructing the guess amplitudes          ... done (    0.616 sec)

-------------------------
FINAL STARTUP INFORMATION
-------------------------

E(0)                                       ...  -3028.423586364
E(SL-UMP2 in NEV-PNO space)                ...     -2.691279223
Initial E(tot)                             ...  -3031.114865587
<T|T>                                      ...      0.535426861
Number of unrestricted pairs included      ... 2205
Total number of pairs                      ... 4095
----------------------------------------------------------
                     OPEN-SHELL COUPLED CLUSTER ITERATIONS
----------------------------------------------------------

Number of PNO amplitudes to be optimized        ...          2148681
Number of canonical amplitudes for strong pairs ...       1991585758
Untruncated number of canonical amplitudes      ...       3698645738

Iter       E(tot)           E(Corr)          Delta-E          Residual     Time
  0  -3031.122018176     -2.662774048      0.028505175      0.021670152 2193.79
                           *** Turning on DIIS ***
  1  -3031.233838264     -2.774594136     -0.111820088      0.008599658 2223.54
  2  -3031.298026593     -2.838782465     -0.064188329      0.008609996 2190.29
  3  -3031.318976225     -2.859732097     -0.020949632      0.003216227 2188.79
  4  -3031.325989074     -2.866744946     -0.007012849      0.002751333 2194.04
  5  -3031.329664453     -2.870420325     -0.003675379      0.001902761 2179.22
  6  -3031.331001130     -2.871757002     -0.001336677      0.000894796 2218.78
  7  -3031.331759754     -2.872515626     -0.000758624      0.000442192 2206.58
  8  -3031.331911998     -2.872667870     -0.000152244      0.000197085 2164.60
  9  -3031.331959809     -2.872715682     -0.000047811      0.000099564 2216.18
 10  -3031.331954728     -2.872710601      0.000005081      0.000070710 2204.60
 11  -3031.331964142     -2.872720014     -0.000009414      0.000049493 2086.39
 12  -3031.331969655     -2.872725527     -0.000005513      0.000028705 1868.70
 13  -3031.331971999     -2.872727871     -0.000002344      0.000015417 1868.93
 14  -3031.331972801     -2.872728673     -0.000000802      0.000008299 1873.35
               --- The CCSD iterations have converged ---

E(0)                                       ...  -3028.423586364
E(CORR)(strong-pairs)                      ...     -2.872728673
E(CORR)(weak-pairs)                        ...     -0.035657763
E(CORR)(corrected)                         ...     -2.908386437
E(TOT)                                     ...  -3031.331972801
Singles norm <S|S>**1/2                    ...      0.188751405 ( 0.063175131, 0.125576274)  
T1 diagnostic                              ...      0.019786524                              
<S**2>(linearized)                         ...      8.7507642 (ideal value:      8.7500000)

----------------------
LARGEST PNO AMPLITUDES
----------------------
  70a-> 77a  70b-> 77b       0.062150
  70a-> 78a  70b-> 78b       0.057271
  50b-> 76b  -1b-> -1b       0.056806
  51b-> 76b  -1b-> -1b       0.049339
  48b-> 72b  -1b-> -1b       0.048747
  48b-> 74b  -1b-> -1b       0.045743
  65a-> 77a  65b-> 77b       0.044844
  48b-> 75b  -1b-> -1b       0.044805
  55a-> 77a  55b-> 77b       0.044704
  61a-> 77a  61b-> 77b       0.043398
  69a-> 77a  69b-> 77b       0.043176
  39b-> 73b  -1b-> -1b       0.042663
  63a-> 77a  63b-> 77b       0.042656
  58a-> 77a  58b-> 77b       0.042483
  59a-> 77a  59b-> 77b       0.042208
  60a-> 77a  60b-> 77b       0.041936

Total # unrestricted pairs ...       1166
  # of alpha-alpha pairs   ...        332
  # of alpha-beta pairs    ...        583
  # of beta-beta pairs     ...        251

-------------------------------------------
DLPNO BASED TRIPLES CORRECTION
-------------------------------------------

Singles multiplier          ...  1.000000
Fragment selection                          .... not used
TCutTNO                     ... 1.000e-09
TCutMP2Pairs                ... 1.000e-05
TCutDOStrong                ... 2.000e-02
TCutMKNStrong               ... 1.000e-02
TCutDOWeak                  ... 4.000e-02
TCutMKNWeak                 ... 1.000e-01
NTCutTNO                    ... 1

Number of Triples that are to be computed         ...     36220

 . . . . . . . . .
10% done  
20% done  
30% done  
40% done  
50% done  
60% done  
70% done  
80% done  
90% done  
          Batch   1   done (  16960.993 sec)

Triples-Correction TCutTNO=   1.000e-09 (NWeakPairs = 0  1  2  3)  -0.117848489618   -0.001801486249    0.000000000000    0.000000000000
Triples-Correction  -0.119649975867

Triples timings:
Total time                      ... 17650.845 sec

Triples List generation         ...     0.000 sec
TNO generation                  ...   689.585 sec
Pair density generation         ...     0.087 sec
Look up tables                  ...     0.120 sec
Generating 3-index integrals    ... 10668.602 sec
Make 4-ind.int. from 3-ind.int  ...     3.911 sec
Projecting amplitudes (D + S)   ...  6008.323 sec
Sorting integrals for spin cases...    57.259 sec
Calculate W0/W1                 ...   181.320 sec
Energy contr. (sum over a,b,c)  ...    41.433 sec

Everything after 3-index        ...  6435.909 sec

Energy contribution AAA         ...    27.192 sec
Energy contribution AAB         ...   123.789 sec
Energy contribution ABB         ...   113.530 sec
Energy contribution BBB         ...    15.557 sec
prep                ...     3.349 sec
makeTTNO            ...  5947.630 sec
copyij              ...     0.136 sec
copyil              ...     4.396 sec
transposeij         ...     0.083 sec
newMatInDoubleProj  ...    56.601 sec
BlasInDoubleProj    ...  3228.349 sec
ProjSingles         ...    49.942 sec
ProjDoubles         ...  5958.380 sec
overall Doubles for projection      ... 3329504
used Doubles for projection         ... 3329504


Number of Triples   (0, 1, 2, 3 weak pairs; overall):  17830   12215       0       0  ( 30045)
Number of Atoms     (0, 1, 2, 3 weak pairs; overall):   20.4    14.7     0.0     0.0  (    29)
Number of PAOs      (0, 1, 2, 3 weak pairs; overall):  782.7   593.1     0.0     0.0  (  1025)
Number of AuxFcns   (0, 1, 2, 3 weak pairs; overall):  964.8   580.9     0.0     0.0  (  2424)
Number of TNOs (0, 1, 2, 3 weak pairs         ):   78.6    55.5     0.0     0.0
Aver. Number of NTNO, Atoms, PAOs, AuxFcns / Triples:  30045    69.2    18.1   705.6   808.7

Triples Correction (T)                     ...     -0.119649976
    alpha-alpha-alpha ... -0.003928559 (  3.3%)
    alpha-alpha-beta  ... -0.056160841 ( 46.9%)
    alpha-beta -beta  ... -0.055414687 ( 46.3%)
    beta -beta -beta  ... -0.004145889 (  3.5%)
Final correlation energy                   ...     -3.028036412
E(CCSD)                                    ...  -3031.331972801
E(CCSD(T))                                 ...  -3031.451622777

----------------------------
STATISTICS FOR PAIR-ENERGIES
----------------------------
Minimum, maximum and average ratios of UMP and CCSD pair-energies ... 0.53, 1.43, 1.02


------------------------------------------------------------------------------- 
                                     TIMINGS                                   
------------------------------------------------------------------------------- 


Total execution time                   ...    58499.890 sec

Localization of occupied MO's          ...       12.942 sec (  0.0%)
Fock Matrix Formation                  ...     1429.521 sec (  2.4%)
Differential overlap integrals         ...        1.534 sec (  0.0%)
Organizing maps                        ...        1.737 sec (  0.0%)
RI 3-index integral generations        ...      289.429 sec (  0.5%)
RI-PNO integral transformation         ...     5489.497 sec (  9.4%)
Initial Guess                          ...     1948.908 sec (  3.3%)
DIIS Solver                            ...       15.840 sec (  0.0%)
State Vector Update                    ...        0.836 sec (  0.0%)
Sigma-vector construction              ...    31877.773 sec ( 54.5%)
  <0|H|D>                              ...        0.032 sec (  0.0% of sigma)
  <D|H|D>(0-ext)                       ...     5587.488 sec ( 17.5% of sigma)
  <D|H|D>(2-ext Fock)                  ...        1.547 sec (  0.0% of sigma)
  <D|H|D>(2-ext)                       ...     4686.275 sec ( 14.7% of sigma)
  <D|H|D>(4-ext)                       ...      157.968 sec (  0.5% of sigma)
  <D|H|D>(4-ext-corr)                  ...      976.400 sec (  3.1% of sigma)
  CCSD doubles correction              ...      549.816 sec (  1.7% of sigma)
  <S|H|S>                              ...      826.802 sec (  2.6% of sigma)
  <S|H|D>(1-ext)                       ...      278.400 sec (  0.9% of sigma)
  <D|H|S>(1-ext)                       ...        1.036 sec (  0.0% of sigma)
  <S|H|D>(3-ext)                       ...       22.875 sec (  0.1% of sigma)
  CCSD singles correction              ...        0.004 sec (  0.0% of sigma)
  Fock-dressing                        ...     9732.322 sec ( 30.5% of sigma)
  Singles amplitudes                   ...      115.420 sec (  0.4% of sigma)
  (ik|jl)-dressing                     ...     7202.552 sec ( 22.6% of sigma)
  (ij|ab),(ia|jb)-dressing             ...     1690.822 sec (  5.3% of sigma)
  Pair energies                        ...        0.184 sec (  0.0% of sigma)
Total Time for computing (T)           ...    17803.811 sec ( 30.4% of ALL)


-------------------------   --------------------
FINAL SINGLE POINT ENERGY     -3031.451622776857
-------------------------   --------------------


                            ***************************************
                            *     ORCA property calculations      *
                            ***************************************

                                    ---------------------
                                    Active property flags
                                    ---------------------
   (+) Dipole Moment


------------------------------------------------------------------------------
                       ORCA ELECTRIC PROPERTIES CALCULATION
------------------------------------------------------------------------------

Dipole Moment Calculation                       ... on
Quadrupole Moment Calculation                   ... off
Polarizability Calculation                      ... off
GBWName                                         ... simple-grid-205-230-b3lyp_d3bj-631gd-gas-singlepoint-DLPNO_CCSD_T1-NormalPNO-augtz-gas.gbw
Electron density file                           ... simple-grid-205-230-b3lyp_d3bj-631gd-gas-singlepoint-DLPNO_CCSD_T1-NormalPNO-augtz-gas.scfp.tmp
The origin for moment calculation is the CENTER OF MASS  = ( 0.308212,  0.022150  0.018529)

-------------
DIPOLE MOMENT
-------------
                                X             Y             Z
Electronic contribution:     41.48181       3.10167       2.26493
Nuclear contribution   :    -45.92354      -3.30032      -2.76083
                        -----------------------------------------
Total Dipole Moment    :     -4.44174      -0.19865      -0.49590
                        -----------------------------------------
Magnitude (a.u.)       :      4.47374
Magnitude (Debye)      :     11.37135



--------------------
Rotational spectrum 
--------------------
 
Rotational constants in cm-1:     0.019403     0.011358     0.010567 
Rotational constants in MHz :   581.685417   340.499381   316.803136 

 Dipole components along the rotational axes: 
x,y,z [a.u.] :    -4.440449    -0.226128    -0.495652 
x,y,z [Debye]:   -11.286724    -0.574772    -1.259848 

 

Timings for individual modules:

Sum of individual times         ...    76703.818 sec (=1278.397 min)
GTO integral calculation        ...       11.861 sec (=   0.198 min)   0.0 %
SCF iterations                  ...    18175.111 sec (= 302.919 min)  23.7 %
MDCI module                     ...    58516.846 sec (= 975.281 min)  76.3 %
                             ****ORCA TERMINATED NORMALLY****
TOTAL RUN TIME: 0 days 21 hours 18 minutes 26 seconds 236 msec
