
                                 *****************
                                 * O   R   C   A *
                                 *****************

           --- An Ab Initio, DFT and Semiempirical electronic structure package ---

                  #######################################################
                  #                        -***-                        #
                  #          Department of theory and spectroscopy      #
                  #               Directorship: Frank Neese             #
                  #        Max Planck Institute fuer Kohlenforschung    #
                  #                Kaiser Wilhelm Platz 1               #
                  #                 D-45470 Muelheim/Ruhr               #
                  #                      Germany                        #
                  #                                                     #
                  #                  All rights reserved                #
                  #                        -***-                        #
                  #######################################################


                         Program Version 4.1.2  - RELEASE  -


 With contributions from (in alphabetic order):
   Daniel Aravena         : Magnetic Properties
   Michael Atanasov       : Ab Initio Ligand Field Theory
   Alexander A. Auer      : GIAO ZORA
   Ute Becker             : Parallelization
   Giovanni Bistoni       : ED, Open-shell LED
   Martin Brehm           : Molecular dynamics
   Dmytro Bykov           : SCF Hessian
   Vijay G. Chilkuri      : MRCI spin determinant printing
   Dipayan Datta          : RHF DLPNO-CCSD density
   Achintya Kumar Dutta   : EOM-CC, STEOM-CC
   Dmitry Ganyushin       : Spin-Orbit,Spin-Spin,Magnetic field MRCI
   Miquel Garcia          : C-PCM Hessian
   Yang Guo               : DLPNO-NEVPT2, CIM, IAO-localization
   Andreas Hansen         : Spin unrestricted coupled pair/coupled cluster methods
   Benjamin Helmich-Paris : CASSCF linear response (MC-RPA)
   Lee Huntington         : MR-EOM, pCC
   Robert Izsak           : Overlap fitted RIJCOSX, COSX-SCS-MP3, EOM
   Christian Kollmar      : KDIIS, OOCD, Brueckner-CCSD(T), CCSD density
   Simone Kossmann        : Meta GGA functionals, TD-DFT gradient, OOMP2, MP2 Hessian
   Martin Krupicka        : AUTO-CI
   Lucas Lang             : DCDCAS
   Dagmar Lenk            : GEPOL surface, SMD
   Dimitrios Liakos       : Extrapolation schemes; parallel MDCI
   Dimitrios Manganas     : ROCIS; embedding schemes
   Dimitrios Pantazis     : SARC Basis sets
   Taras Petrenko         : DFT Hessian,TD-DFT gradient, ASA, ECA, R-Raman, ABS, FL, XAS/XES, NRVS
   Peter Pinski           : DLPNO-MP2, DLPNO-MP2 Gradient
   Christoph Reimann      : Effective Core Potentials
   Marius Retegan         : Local ZFS, SOC
   Christoph Riplinger    : Optimizer, TS searches, QM/MM, DLPNO-CCSD(T), (RO)-DLPNO pert. Triples
   Tobias Risthaus        : Range-separated hybrids, TD-DFT gradient, RPA, STAB
   Michael Roemelt        : Restricted open shell CIS
   Masaaki Saitow         : Open-shell DLPNO
   Barbara Sandhoefer     : DKH picture change effects
   Avijit Sen             : IP-ROCIS
   Kantharuban Sivalingam : CASSCF convergence, NEVPT2, FIC-MRCI
   Bernardo de Souza      : ESD, SOC TD-DFT
   Georgi Stoychev        : AutoAux, RI-MP2 NMR
   Willem Van den Heuvel  : Paramagnetic NMR
   Boris Wezisla          : Elementary symmetry handling
   Frank Wennmohs         : Technical directorship


 We gratefully acknowledge several colleagues who have allowed us to
 interface, adapt or use parts of their codes:
   Stefan Grimme, W. Hujo, H. Kruse,             : VdW corrections, initial TS optimization,
                  C. Bannwarth                     DFT functionals, gCP, sTDA/sTD-DF
   Ed Valeev                                     : LibInt (2-el integral package), F12 methods
   Garnet Chan, S. Sharma, J. Yang, R. Olivares  : DMRG
   Ulf Ekstrom                                   : XCFun DFT Library
   Mihaly Kallay                                 : mrcc  (arbitrary order and MRCC methods)
   Andreas Klamt, Michael Diedenhofen            : otool_cosmo (COSMO solvation model)
   Jiri Pittner, Ondrej Demel                    : Mk-CCSD
   Frank Weinhold                                : gennbo (NPA and NBO analysis)
   Christopher J. Cramer and Donald G. Truhlar   : smd solvation model
   Lars Goerigk                                  : TD-DFT with DH, B97 family of functionals
   V. Asgeirsson, H. Jonsson                     : NEB implementation
   FAccTs GmbH                                   : IRC, NEB, NEB-TS, Multilevel


 Your calculation uses the libint2 library for the computation of 2-el integrals
 For citations please refer to: http://libint.valeyev.net

 This ORCA versions uses:
   CBLAS   interface :  Fast vector & matrix operations
   LAPACKE interface :  Fast linear algebra routines
   SCALAPACK package :  Parallel linear algebra routines


----- Orbital basis set information -----
Your calculation utilizes the basis: aug-cc-pVTZ 
    H, B-Ne : Obtained from the ccRepo (grant-hill.group.shef.ac.uk/ccrepo) Feb. 2017
              R. A. Kendall, T. H. Dunning, Jr., R. J. Harrison, J. Chem. Phys. 96, 6796 (1992)
         He : Obtained from the ccRepo (grant-hill.group.shef.ac.uk/ccrepo) Feb. 2017
              D. E. Woon, T. H. Dunning, Jr., J. Chem. Phys. 100, 2975 (1994)
  Li-Be, Na : Obtained from the ccRepo (grant-hill.group.shef.ac.uk/ccrepo) Feb. 2017
              B. P. Prascher, D. E. Woon, K. A. Peterson, T. H. Dunning, Jr., A. K. Wilson, Theor. Chem. Acc. 128, 69 (2011)
         Mg : Obtained from the Peterson Research Group Website (tyr0.chem.wsu.edu/~kipeters) Feb. 2017
              B. P. Prascher, D. E. Woon, K. A. Peterson, T. H. Dunning, Jr., A. K. Wilson, Theor. Chem. Acc. 128, 69 (2011)
      Al-Ar : Obtained from the ccRepo (grant-hill.group.shef.ac.uk/ccrepo) Feb. 2017
              D. E. Woon, T. H. Dunning, Jr., J. Chem. Phys. 98, 1358 (1993)
      Sc-Zn : Obtained from the ccRepo (grant-hill.group.shef.ac.uk/ccrepo) Feb. 2017
              N. B. Balabanov, K. A. Peterson, J. Chem. Phys. 123, 064107 (2005)
              N. B. Balabanov, K. A. Peterson, J. Chem. Phys. 125, 074110 (2006)
      Ga-Kr : Obtained from the ccRepo (grant-hill.group.shef.ac.uk/ccrepo) Feb. 2017
              A. K. Wilson, D. E. Woon, K. A. Peterson, T. H. Dunning, Jr., J. Chem. Phys. 110, 7667 (1999)
     Ag, Au : Obtained from the Peterson Research Group Website (tyr0.chem.wsu.edu/~kipeters) Feb. 2017
              K. A. Peterson, C. Puzzarini, Theor. Chem. Acc. 114, 283 (2005)

----- AuxJ basis set information -----
Your calculation utilizes the AutoAux generation procedure.
  G. L. Stoychev, A. A. Auer, F. Neese, J. Chem. Theory Comput. 13, 554 (2017)

----- AuxC basis set information -----
Your calculation utilizes the auxiliary basis: aug-cc-pVTZ/C 
  H-He, B-F, Al-Ar, Ga-Kr : Obtained from the EMSL Basis Set Exchange (bse.pnl.gov) Feb. 2017
                            F. Weigend, A. Kohn, C. Hattig, J. Chem. Phys. 116, 3175 (2002)
                   Be, Mg : Obtained from the TURBOMOLE 7.0 basis set library
                            C. Haettig, Phys. Chem. Chem. Phys. 7, 59 (2005)
                       Ne : Obtained from the EMSL Basis Set Exchange (bse.pnl.gov) Feb. 2017
                            C. Haettig, Phys. Chem. Chem. Phys. 7, 59 (2005)
                            F. Weigend, A. Kohn, C. Hattig, J. Chem. Phys. 116, 3175 (2002)
                    Sc-Zn : Obtained from the EMSL Basis Set Exchange (bse.pnl.gov) Feb. 2017
                            J. G. Hill, J. A. Platts, J. Chem. Phys. 128, 044104 (2008)

----- AuxJK basis set information -----
Your calculation utilizes the AutoAux generation procedure.
  G. L. Stoychev, A. A. Auer, F. Neese, J. Chem. Theory Comput. 13, 554 (2017)

================================================================================
                                        WARNINGS
                       Please study these warnings very carefully!
================================================================================


WARNING: your system is open-shell and RHF/RKS was chosen
  ===> : WILL SWITCH to UHF/UKS


WARNING: MDCI localization with Augmented Hessian Foster-Boys
  ===> : Switching off randomization!

WARNING: Post HF methods need fully converged wavefunctions
  ===> : Setting SCFConvForced true
         You can overwrite this default with %scf ConvForced false 


INFO   : the flag for use of LIBINT has been found!

================================================================================
                                       INPUT FILE
================================================================================
NAME = simple-grid-185-265-b3lyp_d3bj-631gd-gas-singlepoint-DLPNO_CCSD_T1-NormalPNO-augtz-gas.inp
|  1> ! aug-cc-pVTZ aug-cc-pVTZ/C DLPNO-CCSD(T1) TightSCF NormalPNO UNO MiniPrint AutoAux
|  2> %pal nproc 10 end
|  3> %maxcore 20000
|  4> %mdci
|  5>      density none
|  6> end
|  7> 
|  8> * xyz 0 6
|  9>  O     -0.35058600     -0.12364600     -0.48424900
| 10>  C     -1.22203800     -1.10784500     -0.33471600
| 11>  C     -2.60641000     -0.40830200      0.67357700
| 12>  C     -2.80930800      0.76968900     -0.06096600
| 13>  C     -3.75256700      0.81426400     -1.21219700
| 14> Fe      1.46069500      0.16955500     -0.07073100
| 15> Cl      1.76786200      2.21136500     -0.83927900
| 16>  C     -2.03910400      1.98875700      0.21494400
| 17> Cl      2.57516000     -1.43636000     -1.07708700
| 18> Cl      1.64890000      0.08733800      2.13472100
| 19>  H     -3.36879800     -1.16940500      0.50233300
| 20>  H     -2.43852200      2.87234200     -0.28662300
| 21>  H     -1.88532800      2.17592000      1.28014500
| 22>  H     -1.03206000      1.77844900     -0.20072400
| 23>  H     -4.55897200      1.51643000     -0.95422000
| 24>  H     -3.26393900      1.23110200     -2.10220700
| 25>  H     -4.19860900     -0.15257500     -1.44748100
| 26>  C     -2.13749600     -0.29428600      2.11916800
| 27>  H     -2.81601100      0.35706900      2.68112200
| 28>  H     -2.14401300     -1.27190100      2.60342500
| 29>  H     -1.12667100      0.11334100      2.19450200
| 30>  C     -0.75079700     -2.27716200      0.53155900
| 31>  H     -1.55824100     -2.98265400      0.74607200
| 32>  H      0.01997300     -2.79415100     -0.05229500
| 33>  H     -0.28914100     -1.94109500      1.45916600
| 34>  C     -1.79389700     -1.59179300     -1.66521800
| 35>  H     -1.00103100     -2.16753000     -2.15477200
| 36>  H     -2.66340100     -2.24379400     -1.53869800
| 37>  H     -2.04158700     -0.76056100     -2.32566800
| 38> *
| 39> 
| 40> 
| 41>                          ****END OF INPUT****
================================================================================

                       ****************************
                       * Single Point Calculation *
                       ****************************

---------------------------------
CARTESIAN COORDINATES (ANGSTROEM)
---------------------------------
  O     -0.350586   -0.123646   -0.484249
  C     -1.222038   -1.107845   -0.334716
  C     -2.606410   -0.408302    0.673577
  C     -2.809308    0.769689   -0.060966
  C     -3.752567    0.814264   -1.212197
  Fe     1.460695    0.169555   -0.070731
  Cl     1.767862    2.211365   -0.839279
  C     -2.039104    1.988757    0.214944
  Cl     2.575160   -1.436360   -1.077087
  Cl     1.648900    0.087338    2.134721
  H     -3.368798   -1.169405    0.502333
  H     -2.438522    2.872342   -0.286623
  H     -1.885328    2.175920    1.280145
  H     -1.032060    1.778449   -0.200724
  H     -4.558972    1.516430   -0.954220
  H     -3.263939    1.231102   -2.102207
  H     -4.198609   -0.152575   -1.447481
  C     -2.137496   -0.294286    2.119168
  H     -2.816011    0.357069    2.681122
  H     -2.144013   -1.271901    2.603425
  H     -1.126671    0.113341    2.194502
  C     -0.750797   -2.277162    0.531559
  H     -1.558241   -2.982654    0.746072
  H      0.019973   -2.794151   -0.052295
  H     -0.289141   -1.941095    1.459166
  C     -1.793897   -1.591793   -1.665218
  H     -1.001031   -2.167530   -2.154772
  H     -2.663401   -2.243794   -1.538698
  H     -2.041587   -0.760561   -2.325668

----------------------------
CARTESIAN COORDINATES (A.U.)
----------------------------
  NO LB      ZA    FRAG     MASS         X           Y           Z
   0 O     8.0000    0    15.999   -0.662512   -0.233657   -0.915098
   1 C     6.0000    0    12.011   -2.309317   -2.093524   -0.632522
   2 C     6.0000    0    12.011   -4.925401   -0.771579    1.272876
   3 C     6.0000    0    12.011   -5.308823    1.454501   -0.115209
   4 C     6.0000    0    12.011   -7.091324    1.538736   -2.290720
   5 Fe   26.0000    0    55.850    2.760314    0.320413   -0.133662
   6 Cl   17.0000    0    35.453    3.340775    4.178874   -1.586007
   7 C     6.0000    0    12.011   -3.853348    3.758206    0.406185
   8 Cl   17.0000    0    35.453    4.866347   -2.714327   -2.035399
   9 Cl   17.0000    0    35.453    3.115969    0.165045    4.034038
  10 H     1.0000    0     1.008   -6.366106   -2.209855    0.949272
  11 H     1.0000    0     1.008   -4.608139    5.427940   -0.541639
  12 H     1.0000    0     1.008   -3.562754    4.111893    2.419123
  13 H     1.0000    0     1.008   -1.950311    3.360782   -0.379313
  14 H     1.0000    0     1.008   -8.615209    2.865637   -1.803214
  15 H     1.0000    0     1.008   -6.167951    2.326446   -3.972596
  16 H     1.0000    0     1.008   -7.934221   -0.288325   -2.735343
  17 C     6.0000    0    12.011   -4.039282   -0.556120    4.004647
  18 H     1.0000    0     1.008   -5.321490    0.674763    5.066586
  19 H     1.0000    0     1.008   -4.051597   -2.403545    4.919760
  20 H     1.0000    0     1.008   -2.129100    0.214183    4.147008
  21 C     6.0000    0    12.011   -1.418801   -4.303213    1.004501
  22 H     1.0000    0     1.008   -2.944649   -5.636399    1.409872
  23 H     1.0000    0     1.008    0.037744   -5.280180   -0.098823
  24 H     1.0000    0     1.008   -0.546397   -3.668138    2.757424
  25 C     6.0000    0    12.011   -3.389974   -3.008053   -3.146806
  26 H     1.0000    0     1.008   -1.891674   -4.096038   -4.071929
  27 H     1.0000    0     1.008   -5.033098   -4.240156   -2.907718
  28 H     1.0000    0     1.008   -3.858040   -1.437252   -4.394876



           ************************************************************
           *        Program running with 10 parallel MPI-processes    *
           *              working on a common directory               *
           ************************************************************


           ************************************************************
           *        Program running with 10 parallel MPI-processes    *
           *              working on a common directory               *
           ************************************************************

Diagonalization of the overlap matrix:
Smallest eigenvalue                        ... 6.545e-07
Time for diagonalization                   ...    0.392 sec
Threshold for overlap eigenvalues          ... 1.000e-08
Number of eigenvalues below threshold      ... 0
Time for construction of square roots      ...    0.333 sec
Total time needed                          ...    0.731 sec

-------------------
DFT GRID GENERATION
-------------------

General Integration Accuracy     IntAcc      ...  4.340
Radial Grid Type                 RadialGrid  ... Gauss-Chebyshev
Angular Grid (max. acc.)         AngularGrid ... Lebedev-110
Angular grid pruning method      GridPruning ... 3 (G Style)
Weight generation scheme         WeightScheme... Becke
Basis function cutoff            BFCut       ...    1.0000e-11
Integration weight cutoff        WCut        ...    1.0000e-14
Grids for H and He will be reduced by one unit

# of grid points (after initial pruning)     ...  36112 (   0.0 sec)
# of grid points (after weights+screening)   ...  32298 (   0.1 sec)
nearest neighbour list constructed           ...    0.0 sec
Grid point re-assignment to atoms done       ...    0.0 sec
Grid point division into batches done        ...    0.0 sec
Reduced shell lists constructed in    0.3 sec

Total number of grid points                  ...    32298
Total number of batches                      ...      520
Average number of points per batch           ...       62
Average number of grid points per atom       ...     1114
Average number of shells per batch           ...   294.09 (85.74%)
Average number of basis functions per batch  ...   875.53 (85.42%)
Average number of large shells per batch     ...   243.32 (82.74%)
Average number of large basis fcns per batch ...   723.62 (82.65%)
Maximum spatial batch extension              ...   3.12,  3.38,  3.42 au
Average spatial batch extension              ...   0.18,  0.17,  0.17 au

Time for grid setup =    0.405 sec

Loading Hartree-Fock densities                     ... done
Calculating cut-offs                               ... done
Setting up the integral package                    ... done
Initializing the effective Hamiltonian             ... done
Starting the Coulomb interaction                   ... done (   1.2 sec)
Reading the grid                                   ... done
Mapping shells                                     ... done
Starting the XC term evaluation                    ... done (   0.9 sec)
Transforming the Hamiltonian                       ... done (   0.2 sec)
Diagonalizing the Hamiltonian                      ... done (   0.4 sec)
Back transforming the eigenvectors                 ... done (   0.1 sec)
Now organizing SCF variables                       ... done
--------------
SCF ITERATIONS
--------------
ITER       Energy         Delta-E        Max-DP      RMS-DP      [F,P]     Damp
               ***  Starting incremental Fock matrix formation  ***
  0  -3027.5655258799   0.000000000000 0.46847526  0.00122309  0.2875386 0.7000
  1  -3027.8144771686  -0.248951288695 0.34164305  0.00094909  0.1658396 0.7000
                               ***Turning on DIIS***
  2  -3027.9816455648  -0.167168396203 0.23653643  0.00069373  0.1095367 0.7000
  3  -3029.6421794116  -1.660533846794 0.51045020  0.00171159  0.0822950 0.0000
  4  -3028.2881227831   1.354056628479 0.04854882  0.00022388  0.0197043 0.0000
  5  -3028.4052950991  -0.117172315920 0.04043942  0.00017298  0.0118808 0.0000
  6  -3028.4392744002  -0.033979301175 0.02122038  0.00007227  0.0053763 0.0000
  7  -3028.4540300429  -0.014755642715 0.00901249  0.00003386  0.0034303 0.0000
  8  -3028.4485100418   0.005520001176 0.00596124  0.00001973  0.0014788 0.0000
  9  -3028.4411018939   0.007408147853 0.00228647  0.00001201  0.0007160 0.0000
 10  -3028.4309705383   0.010131355583 0.00084181  0.00000357  0.0003646 0.0000
 11  -3028.4358040630  -0.004833524641 0.00053054  0.00000233  0.0001101 0.0000
 12  -3028.4324858596   0.003318203351 0.00025799  0.00000183  0.0000307 0.0000
 13  -3028.4328784765  -0.000392616921 0.00090054  0.00000208  0.0000134 0.0000
 14  -3028.4330331677  -0.000154691170 0.00048796  0.00000231  0.0000059 0.0000
 15  -3028.4329285379   0.000104629829 0.00160586  0.00000308  0.0000051 0.0000
 16  -3028.4329916157  -0.000063077814 0.00088485  0.00000259  0.0000044 0.0000
 17  -3028.4329749512   0.000016664508 0.00210549  0.00000405  0.0000039 0.0000
 18  -3028.4329627470   0.000012204180 0.00198025  0.00000486  0.0000032 0.0000
 19  -3028.4329836167  -0.000020869702 0.00092565  0.00000286  0.0000023 0.0000
               *** Restarting incremental Fock matrix formation ***
                                   *** Resetting DIIS ***
 20  -3028.4329911742  -0.000007557517 0.00932663  0.00001803  0.0000014 0.0000
 21  -3028.4329907626   0.000000411614 0.00143712  0.00000291  0.0000013 0.0000
 22  -3028.4329912791  -0.000000516515 0.00332412  0.00000623  0.0000011 0.0000
                            ***DIIS convergence achieved***

               *****************************************************
               *                     SUCCESS                       *
               *           SCF CONVERGED AFTER  23 CYCLES          *
               *****************************************************

Total Energy       :        -3028.43299308 Eh          -82407.85128 eV
  Last Energy change         ...   -1.7997e-06  Tolerance :   1.0000e-08
  Last MAX-Density change    ...    1.6123e-03  Tolerance :   1.0000e-07
             **** THE GBW FILE WAS UPDATED (simple-grid-185-265-b3lyp_d3bj-631gd-gas-singlepoint-DLPNO_CCSD_T1-NormalPNO-augtz-gas.gbw) ****
             **** DENSITY FILE WAS UPDATED (simple-grid-185-265-b3lyp_d3bj-631gd-gas-singlepoint-DLPNO_CCSD_T1-NormalPNO-augtz-gas.scfp.tmp) ****
             **** ENERGY FILE WAS UPDATED (simple-grid-185-265-b3lyp_d3bj-631gd-gas-singlepoint-DLPNO_CCSD_T1-NormalPNO-augtz-gas.en.tmp) ****
----------------------
UHF SPIN CONTAMINATION
----------------------

Expectation value of <S**2>     :     8.764455
Ideal value S*(S+1) for S=2.5   :     8.750000
Deviation                       :     0.014455

----------------
ORBITAL ENERGIES
----------------
                 SPIN UP ORBITALS
  NO   OCC          E(Eh)            E(eV) 
   0   1.0000    -261.546766     -7117.0493 
   1   1.0000    -104.773205     -2851.0239 
   2   1.0000    -104.771415     -2850.9751 
   3   1.0000    -104.770483     -2850.9498 
   4   1.0000     -32.214686      -876.6062 
   5   1.0000     -27.690645      -753.5008 
   6   1.0000     -27.690348      -753.4927 
   7   1.0000     -27.690119      -753.4864 
   8   1.0000     -20.548987      -559.1664 
   9   1.0000     -11.374053      -309.5037 
  10   1.0000     -11.371512      -309.4346 
  11   1.0000     -11.293385      -307.3086 
  12   1.0000     -11.283989      -307.0529 
  13   1.0000     -11.266904      -306.5880 
  14   1.0000     -11.251696      -306.1742 
  15   1.0000     -11.250732      -306.1480 
  16   1.0000     -11.242880      -305.9343 
  17   1.0000     -10.499811      -285.7144 
  18   1.0000     -10.497979      -285.6645 
  19   1.0000     -10.497093      -285.6404 
  20   1.0000      -7.966687      -216.7846 
  21   1.0000      -7.965858      -216.7620 
  22   1.0000      -7.965807      -216.7606 
  23   1.0000      -7.964805      -216.7334 
  24   1.0000      -7.964081      -216.7137 
  25   1.0000      -7.963990      -216.7112 
  26   1.0000      -7.963926      -216.7094 
  27   1.0000      -7.963195      -216.6896 
  28   1.0000      -7.963119      -216.6875 
  29   1.0000      -4.570098      -124.3587 
  30   1.0000      -3.182684       -86.6052 
  31   1.0000      -3.182176       -86.5914 
  32   1.0000      -3.181651       -86.5771 
  33   1.0000      -1.389859       -37.8200 
  34   1.0000      -1.188733       -32.3471 
  35   1.0000      -1.082648       -29.4603 
  36   1.0000      -1.045901       -28.4604 
  37   1.0000      -1.044321       -28.4174 
  38   1.0000      -1.039029       -28.2734 
  39   1.0000      -1.037244       -28.2249 
  40   1.0000      -1.009868       -27.4799 
  41   1.0000      -0.975768       -26.5520 
  42   1.0000      -0.931300       -25.3420 
  43   1.0000      -0.912627       -24.8338 
  44   1.0000      -0.899585       -24.4789 
  45   1.0000      -0.899532       -24.4775 
  46   1.0000      -0.890786       -24.2395 
  47   1.0000      -0.890399       -24.2290 
  48   1.0000      -0.790220       -21.5030 
  49   1.0000      -0.769393       -20.9362 
  50   1.0000      -0.704104       -19.1596 
  51   1.0000      -0.693965       -18.8838 
  52   1.0000      -0.670599       -18.2479 
  53   1.0000      -0.657792       -17.8994 
  54   1.0000      -0.651356       -17.7243 
  55   1.0000      -0.629751       -17.1364 
  56   1.0000      -0.601896       -16.3784 
  57   1.0000      -0.598536       -16.2870 
  58   1.0000      -0.593106       -16.1392 
  59   1.0000      -0.580402       -15.7935 
  60   1.0000      -0.574186       -15.6244 
  61   1.0000      -0.563143       -15.3239 
  62   1.0000      -0.557862       -15.1802 
  63   1.0000      -0.540742       -14.7143 
  64   1.0000      -0.533568       -14.5191 
  65   1.0000      -0.521769       -14.1981 
  66   1.0000      -0.508210       -13.8291 
  67   1.0000      -0.470512       -12.8033 
  68   1.0000      -0.460399       -12.5281 
  69   1.0000      -0.447173       -12.1682 
  70   1.0000      -0.426742       -11.6122 
  71   1.0000      -0.423518       -11.5245 
  72   1.0000      -0.419939       -11.4271 
  73   1.0000      -0.412244       -11.2177 
  74   1.0000      -0.410261       -11.1638 
  75   1.0000      -0.409840       -11.1523 
  76   1.0000      -0.399728       -10.8771 
  77   0.0000       0.005001         0.1361 
  78   0.0000       0.011640         0.3167 
  79   0.0000       0.018727         0.5096 
  80   0.0000       0.020118         0.5474 
  81   0.0000       0.029039         0.7902 
  82   0.0000       0.038651         1.0518 
  83   0.0000       0.038821         1.0564 
  84   0.0000       0.041584         1.1315 
  85   0.0000       0.045196         1.2299 
  86   0.0000       0.047604         1.2954 
  87   0.0000       0.057747         1.5714 
  88   0.0000       0.058577         1.5940 
  89   0.0000       0.061057         1.6615 
  90   0.0000       0.061925         1.6851 
  91   0.0000       0.064092         1.7440 
  92   0.0000       0.071779         1.9532 
  93   0.0000       0.075303         2.0491 
  94   0.0000       0.080064         2.1787 
  95   0.0000       0.089267         2.4291 
  96   0.0000       0.090829         2.4716 
  97   0.0000       0.093299         2.5388 
  98   0.0000       0.095286         2.5929 
  99   0.0000       0.097447         2.6517 
 100   0.0000       0.100793         2.7427 
 101   0.0000       0.107266         2.9189 
 102   0.0000       0.113794         3.0965 
 103   0.0000       0.117836         3.2065 
 104   0.0000       0.121680         3.3111 
 105   0.0000       0.123535         3.3615 
 106   0.0000       0.125250         3.4082 
 107   0.0000       0.131678         3.5831 
 108   0.0000       0.132555         3.6070 
 109   0.0000       0.134342         3.6556 
 110   0.0000       0.136285         3.7085 
 111   0.0000       0.137628         3.7451 
 112   0.0000       0.145369         3.9557 
 113   0.0000       0.150137         4.0854 
 114   0.0000       0.154000         4.1906 
 115   0.0000       0.156123         4.2483 
 116   0.0000       0.157401         4.2831 
 117   0.0000       0.160283         4.3615 
 118   0.0000       0.162647         4.4258 
 119   0.0000       0.164502         4.4763 
 120   0.0000       0.170354         4.6356 
 121   0.0000       0.172113         4.6834 
 122   0.0000       0.175443         4.7740 
 123   0.0000       0.176287         4.7970 
 124   0.0000       0.178127         4.8471 
 125   0.0000       0.183291         4.9876 
 126   0.0000       0.187061         5.0902 
 127   0.0000       0.189778         5.1641 
 128   0.0000       0.197089         5.3631 
 129   0.0000       0.203613         5.5406 
 130   0.0000       0.204215         5.5570 
 131   0.0000       0.207989         5.6597 
 132   0.0000       0.210611         5.7310 
 133   0.0000       0.217184         5.9099 
 134   0.0000       0.218279         5.9397 
 135   0.0000       0.219132         5.9629 
 136   0.0000       0.223120         6.0714 
 137   0.0000       0.225833         6.1452 
 138   0.0000       0.228223         6.2103 
 139   0.0000       0.229129         6.2349 
 140   0.0000       0.232756         6.3336 
 141   0.0000       0.236454         6.4342 
 142   0.0000       0.239912         6.5283 
 143   0.0000       0.243146         6.6163 
 144   0.0000       0.249493         6.7891 
 145   0.0000       0.252007         6.8575 
 146   0.0000       0.253788         6.9059 
 147   0.0000       0.254738         6.9318 
 148   0.0000       0.260797         7.0966 
 149   0.0000       0.266940         7.2638 
 150   0.0000       0.272755         7.4220 
 151   0.0000       0.273671         7.4470 
 152   0.0000       0.277032         7.5384 
 153   0.0000       0.283173         7.7055 
 154   0.0000       0.285973         7.7817 
 155   0.0000       0.291043         7.9197 
 156   0.0000       0.293095         7.9755 
 157   0.0000       0.295971         8.0538 
 158   0.0000       0.297646         8.0994 
 159   0.0000       0.302509         8.2317 
 160   0.0000       0.310632         8.4527 
 161   0.0000       0.311736         8.4828 
 162   0.0000       0.313283         8.5249 
 163   0.0000       0.321299         8.7430 
 164   0.0000       0.327658         8.9160 
 165   0.0000       0.331950         9.0328 
 166   0.0000       0.334926         9.1138 
 167   0.0000       0.336820         9.1653 
 168   0.0000       0.339044         9.2259 
 169   0.0000       0.340715         9.2713 
 170   0.0000       0.345494         9.4014 
 171   0.0000       0.351298         9.5593 
 172   0.0000       0.353484         9.6188 
 173   0.0000       0.357013         9.7148 
 174   0.0000       0.358955         9.7677 
 175   0.0000       0.361418         9.8347 
 176   0.0000       0.365544         9.9470 
 177   0.0000       0.371428        10.1071 
 178   0.0000       0.372182        10.1276 
 179   0.0000       0.376453        10.2438 
 180   0.0000       0.380763        10.3611 
 181   0.0000       0.384558        10.4643 
 182   0.0000       0.385553        10.4914 
 183   0.0000       0.388949        10.5838 
 184   0.0000       0.391207        10.6453 
 185   0.0000       0.396749        10.7961 
 186   0.0000       0.398761        10.8508 
 187   0.0000       0.401469        10.9245 
 188   0.0000       0.403936        10.9917 
 189   0.0000       0.409442        11.1415 
 190   0.0000       0.412891        11.2353 
 191   0.0000       0.415844        11.3157 
 192   0.0000       0.417768        11.3680 
 193   0.0000       0.424824        11.5601 
 194   0.0000       0.427480        11.6323 
 195   0.0000       0.430241        11.7075 
 196   0.0000       0.438376        11.9288 
 197   0.0000       0.442737        12.0475 
 198   0.0000       0.446006        12.1364 
 199   0.0000       0.446568        12.1517 
 200   0.0000       0.450630        12.2623 
 201   0.0000       0.453279        12.3343 
 202   0.0000       0.457566        12.4510 
 203   0.0000       0.462752        12.5921 
 204   0.0000       0.467433        12.7195 
 205   0.0000       0.468892        12.7592 
 206   0.0000       0.471309        12.8250 
 207   0.0000       0.472972        12.8702 
 208   0.0000       0.475803        12.9473 
 209   0.0000       0.478622        13.0240 
 210   0.0000       0.482711        13.1352 
 211   0.0000       0.489115        13.3095 
 212   0.0000       0.490597        13.3498 
 213   0.0000       0.497085        13.5264 
 214   0.0000       0.497927        13.5493 
 215   0.0000       0.500493        13.6191 
 216   0.0000       0.501889        13.6571 
 217   0.0000       0.505982        13.7685 
 218   0.0000       0.510751        13.8982 
 219   0.0000       0.512810        13.9543 
 220   0.0000       0.518219        14.1014 
 221   0.0000       0.520383        14.1603 
 222   0.0000       0.522928        14.2296 
 223   0.0000       0.525715        14.3054 
 224   0.0000       0.527621        14.3573 
 225   0.0000       0.529345        14.4042 
 226   0.0000       0.533687        14.5224 
 227   0.0000       0.538638        14.6571 
 228   0.0000       0.540418        14.7055 
 229   0.0000       0.546379        14.8677 
 230   0.0000       0.549680        14.9576 
 231   0.0000       0.551920        15.0185 
 232   0.0000       0.553902        15.0724 
 233   0.0000       0.561309        15.2740 
 234   0.0000       0.563910        15.3448 
 235   0.0000       0.566709        15.4209 
 236   0.0000       0.570783        15.5318 
 237   0.0000       0.577440        15.7129 
 238   0.0000       0.578401        15.7391 
 239   0.0000       0.583591        15.8803 
 240   0.0000       0.585040        15.9197 
 241   0.0000       0.587137        15.9768 
 242   0.0000       0.589740        16.0476 
 243   0.0000       0.600017        16.3273 
 244   0.0000       0.601118        16.3573 
 245   0.0000       0.602265        16.3885 
 246   0.0000       0.605777        16.4840 
 247   0.0000       0.609660        16.5897 
 248   0.0000       0.613866        16.7041 
 249   0.0000       0.618508        16.8304 
 250   0.0000       0.620953        16.8970 
 251   0.0000       0.624474        16.9928 
 252   0.0000       0.627700        17.0806 
 253   0.0000       0.630498        17.1567 
 254   0.0000       0.636073        17.3084 
 255   0.0000       0.644118        17.5273 
 256   0.0000       0.651374        17.7248 
 257   0.0000       0.654069        17.7981 
 258   0.0000       0.657573        17.8935 
 259   0.0000       0.660163        17.9640 
 260   0.0000       0.664370        18.0784 
 261   0.0000       0.671458        18.2713 
 262   0.0000       0.673773        18.3343 
 263   0.0000       0.678549        18.4643 
 264   0.0000       0.680223        18.5098 
 265   0.0000       0.686538        18.6816 
 266   0.0000       0.688442        18.7335 
 267   0.0000       0.695548        18.9268 
 268   0.0000       0.697748        18.9867 
 269   0.0000       0.700672        19.0662 
 270   0.0000       0.705285        19.1918 
 271   0.0000       0.709725        19.3126 
 272   0.0000       0.714596        19.4451 
 273   0.0000       0.719425        19.5766 
 274   0.0000       0.727839        19.8055 
 275   0.0000       0.732788        19.9402 
 276   0.0000       0.733674        19.9643 
 277   0.0000       0.737807        20.0767 
 278   0.0000       0.741953        20.1896 
 279   0.0000       0.746756        20.3203 
 280   0.0000       0.752146        20.4669 
 281   0.0000       0.757102        20.6018 
 282   0.0000       0.766444        20.8560 
 283   0.0000       0.769623        20.9425 
 284   0.0000       0.775666        21.1069 
 285   0.0000       0.781643        21.2696 
 286   0.0000       0.787115        21.4185 
 287   0.0000       0.787741        21.4355 
 288   0.0000       0.796266        21.6675 
 289   0.0000       0.800940        21.7947 
 290   0.0000       0.812193        22.1009 
 291   0.0000       0.817666        22.2498 
 292   0.0000       0.824682        22.4407 
 293   0.0000       0.827480        22.5169 
 294   0.0000       0.834380        22.7046 
 295   0.0000       0.839248        22.8371 
 296   0.0000       0.841705        22.9039 
 297   0.0000       0.848269        23.0826 
 298   0.0000       0.854776        23.2596 
 299   0.0000       0.855543        23.2805 
 300   0.0000       0.860473        23.4147 
 301   0.0000       0.868152        23.6236 
 302   0.0000       0.873865        23.7791 
 303   0.0000       0.876898        23.8616 
 304   0.0000       0.882955        24.0264 
 305   0.0000       0.885897        24.1065 
 306   0.0000       0.892881        24.2965 
 307   0.0000       0.897375        24.4188 
 308   0.0000       0.897900        24.4331 
 309   0.0000       0.901131        24.5210 
 310   0.0000       0.911745        24.8098 
 311   0.0000       0.914738        24.8913 
 312   0.0000       0.915442        24.9104 
 313   0.0000       0.920331        25.0435 
 314   0.0000       0.926853        25.2210 
 315   0.0000       0.928370        25.2622 
 316   0.0000       0.933502        25.4019 
 317   0.0000       0.938412        25.5355 
 318   0.0000       0.942281        25.6408 
 319   0.0000       0.946163        25.7464 
 320   0.0000       0.949365        25.8335 
 321   0.0000       0.957158        26.0456 
 322   0.0000       0.959422        26.1072 
 323   0.0000       0.961826        26.1726 
 324   0.0000       0.965397        26.2698 
 325   0.0000       0.968975        26.3671 
 326   0.0000       0.970107        26.3980 
 327   0.0000       0.973749        26.4970 
 328   0.0000       0.981217        26.7003 
 329   0.0000       0.983120        26.7521 
 330   0.0000       0.985638        26.8206 
 331   0.0000       0.991945        26.9922 
 332   0.0000       0.994850        27.0713 
 333   0.0000       0.998454        27.1693 
 334   0.0000       1.001006        27.2388 
 335   0.0000       1.002582        27.2816 
 336   0.0000       1.007605        27.4183 
 337   0.0000       1.012330        27.5469 
 338   0.0000       1.017074        27.6760 
 339   0.0000       1.019316        27.7370 
 340   0.0000       1.023171        27.8419 
 341   0.0000       1.027236        27.9525 
 342   0.0000       1.029407        28.0116 
 343   0.0000       1.039352        28.2822 
 344   0.0000       1.042245        28.3609 
 345   0.0000       1.043481        28.3946 
 346   0.0000       1.047660        28.5083 
 347   0.0000       1.048297        28.5256 
 348   0.0000       1.052297        28.6345 
 349   0.0000       1.056260        28.7423 
 350   0.0000       1.064188        28.9580 
 351   0.0000       1.065498        28.9937 
 352   0.0000       1.069114        29.0921 
 353   0.0000       1.073939        29.2234 
 354   0.0000       1.075737        29.2723 
 355   0.0000       1.077530        29.3211 
 356   0.0000       1.082504        29.4564 
 357   0.0000       1.091164        29.6921 
 358   0.0000       1.096450        29.8359 
 359   0.0000       1.098760        29.8988 
 360   0.0000       1.100566        29.9479 
 361   0.0000       1.109333        30.1865 
 362   0.0000       1.111730        30.2517 
 363   0.0000       1.114326        30.3224 
 364   0.0000       1.116312        30.3764 
 365   0.0000       1.122968        30.5575 
 366   0.0000       1.123300        30.5666 
 367   0.0000       1.130659        30.7668 
 368   0.0000       1.134987        30.8846 
 369   0.0000       1.137805        30.9613 
 370   0.0000       1.140698        31.0400 
 371   0.0000       1.145636        31.1743 
 372   0.0000       1.148075        31.2407 
 373   0.0000       1.155205        31.4347 
 374   0.0000       1.157590        31.4996 
 375   0.0000       1.160980        31.5919 
 376   0.0000       1.165887        31.7254 
 377   0.0000       1.169528        31.8245 
 378   0.0000       1.179817        32.1045 
 379   0.0000       1.185962        32.2717 
 380   0.0000       1.187383        32.3103 
 381   0.0000       1.192876        32.4598 
 382   0.0000       1.196239        32.5513 
 383   0.0000       1.204186        32.7676 
 384   0.0000       1.206357        32.8266 
 385   0.0000       1.211102        32.9558 
 386   0.0000       1.216071        33.0910 
 387   0.0000       1.221788        33.2465 
 388   0.0000       1.224410        33.3179 
 389   0.0000       1.228612        33.4322 
 390   0.0000       1.231674        33.5156 
 391   0.0000       1.236687        33.6520 
 392   0.0000       1.244293        33.8589 
 393   0.0000       1.246365        33.9153 
 394   0.0000       1.250617        34.0310 
 395   0.0000       1.257432        34.2165 
 396   0.0000       1.265143        34.4263 
 397   0.0000       1.269409        34.5424 
 398   0.0000       1.274110        34.6703 
 399   0.0000       1.276746        34.7420 
 400   0.0000       1.278844        34.7991 
 401   0.0000       1.285611        34.9833 
 402   0.0000       1.290941        35.1283 
 403   0.0000       1.293212        35.1901 
 404   0.0000       1.299632        35.3648 
 405   0.0000       1.301273        35.4095 
 406   0.0000       1.313070        35.7305 
 407   0.0000       1.315042        35.7841 
 408   0.0000       1.323193        36.0059 
 409   0.0000       1.326452        36.0946 
 410   0.0000       1.333816        36.2950 
 411   0.0000       1.338228        36.4150 
 412   0.0000       1.340258        36.4703 
 413   0.0000       1.343374        36.5551 
 414   0.0000       1.346325        36.6354 
 415   0.0000       1.355121        36.8747 
 416   0.0000       1.361147        37.0387 
 417   0.0000       1.367712        37.2173 
 418   0.0000       1.372584        37.3499 
 419   0.0000       1.380718        37.5713 
 420   0.0000       1.385757        37.7084 
 421   0.0000       1.386864        37.7385 
 422   0.0000       1.392901        37.9028 
 423   0.0000       1.406022        38.2598 
 424   0.0000       1.410234        38.3744 
 425   0.0000       1.414651        38.4946 
 426   0.0000       1.420092        38.6427 
 427   0.0000       1.424977        38.7756 
 428   0.0000       1.428937        38.8833 
 429   0.0000       1.432886        38.9908 
 430   0.0000       1.441538        39.2262 
 431   0.0000       1.447799        39.3966 
 432   0.0000       1.455476        39.6055 
 433   0.0000       1.458216        39.6801 
 434   0.0000       1.461593        39.7720 
 435   0.0000       1.463675        39.8286 
 436   0.0000       1.471842        40.0509 
 437   0.0000       1.473767        40.1032 
 438   0.0000       1.478608        40.2350 
 439   0.0000       1.483305        40.3628 
 440   0.0000       1.492366        40.6093 
 441   0.0000       1.495970        40.7074 
 442   0.0000       1.505708        40.9724 
 443   0.0000       1.507462        41.0201 
 444   0.0000       1.515857        41.2486 
 445   0.0000       1.522686        41.4344 
 446   0.0000       1.527710        41.5711 
 447   0.0000       1.536199        41.8021 
 448   0.0000       1.538860        41.8745 
 449   0.0000       1.543020        41.9877 
 450   0.0000       1.548962        42.1494 
 451   0.0000       1.549715        42.1699 
 452   0.0000       1.557482        42.3812 
 453   0.0000       1.557914        42.3930 
 454   0.0000       1.562791        42.5257 
 455   0.0000       1.569164        42.6991 
 456   0.0000       1.576873        42.9089 
 457   0.0000       1.585349        43.1395 
 458   0.0000       1.590589        43.2821 
 459   0.0000       1.592461        43.3331 
 460   0.0000       1.603625        43.6369 
 461   0.0000       1.607379        43.7390 
 462   0.0000       1.613192        43.8972 
 463   0.0000       1.614309        43.9276 
 464   0.0000       1.618121        44.0313 
 465   0.0000       1.620751        44.1029 
 466   0.0000       1.623474        44.1770 
 467   0.0000       1.627793        44.2945 
 468   0.0000       1.638213        44.5780 
 469   0.0000       1.640162        44.6311 
 470   0.0000       1.647741        44.8373 
 471   0.0000       1.653226        44.9866 
 472   0.0000       1.659495        45.1571 
 473   0.0000       1.661108        45.2011 
 474   0.0000       1.670911        45.4678 
 475   0.0000       1.673894        45.5490 
 476   0.0000       1.681269        45.7497 
 477   0.0000       1.683862        45.8202 
 478   0.0000       1.690153        45.9914 
 479   0.0000       1.697470        46.1905 
 480   0.0000       1.700202        46.2648 
 481   0.0000       1.703927        46.3662 
 482   0.0000       1.706534        46.4372 
 483   0.0000       1.718638        46.7665 
 484   0.0000       1.721023        46.8314 
 485   0.0000       1.723428        46.8969 
 486   0.0000       1.725787        46.9611 
 487   0.0000       1.734129        47.1881 
 488   0.0000       1.741113        47.3781 
 489   0.0000       1.743859        47.4528 
 490   0.0000       1.750450        47.6322 
 491   0.0000       1.758723        47.8573 
 492   0.0000       1.763648        47.9913 
 493   0.0000       1.765210        48.0338 
 494   0.0000       1.771075        48.1934 
 495   0.0000       1.779583        48.4249 
 496   0.0000       1.786967        48.6258 
 497   0.0000       1.790278        48.7160 
 498   0.0000       1.795888        48.8686 
 499   0.0000       1.801958        49.0338 
 500   0.0000       1.810558        49.2678 
 501   0.0000       1.813836        49.3570 
 502   0.0000       1.817525        49.4574 
 503   0.0000       1.820969        49.5511 
 504   0.0000       1.827663        49.7332 
 505   0.0000       1.833080        49.8806 
 506   0.0000       1.836994        49.9871 
 507   0.0000       1.847742        50.2796 
 508   0.0000       1.848585        50.3026 
 509   0.0000       1.853555        50.4378 
 510   0.0000       1.858053        50.5602 
 511   0.0000       1.868390        50.8415 
 512   0.0000       1.868822        50.8532 
 513   0.0000       1.873728        50.9867 
 514   0.0000       1.877020        51.0763 
 515   0.0000       1.882485        51.2250 
 516   0.0000       1.889589        51.4183 
 517   0.0000       1.893980        51.5378 
 518   0.0000       1.900051        51.7030 
 519   0.0000       1.905129        51.8412 
 520   0.0000       1.908650        51.9370 
 521   0.0000       1.913561        52.0707 
 522   0.0000       1.919412        52.2299 
 523   0.0000       1.921901        52.2976 
 524   0.0000       1.931661        52.5632 
 525   0.0000       1.942613        52.8612 
 526   0.0000       1.947503        52.9943 
 527   0.0000       1.949543        53.0498 
 528   0.0000       1.951448        53.1016 
 529   0.0000       1.953038        53.1449 
 530   0.0000       1.962952        53.4146 
 531   0.0000       1.968680        53.5705 
 532   0.0000       1.974336        53.7244 
 533   0.0000       1.978643        53.8416 
 534   0.0000       1.981336        53.9149 
 535   0.0000       1.990618        54.1675 
 536   0.0000       1.995057        54.2883 
 537   0.0000       2.004237        54.5381 
 538   0.0000       2.006227        54.5922 
 539   0.0000       2.017180        54.8903 
 540   0.0000       2.024100        55.0786 
 541   0.0000       2.030177        55.2439 
 542   0.0000       2.032133        55.2971 
 543   0.0000       2.035810        55.3972 
 544   0.0000       2.048711        55.7483 
 545   0.0000       2.060643        56.0729 
 546   0.0000       2.065213        56.1973 
 547   0.0000       2.076949        56.5167 
 548   0.0000       2.081215        56.6328 
 549   0.0000       2.093194        56.9587 
 550   0.0000       2.097955        57.0883 
 551   0.0000       2.099005        57.1168 
 552   0.0000       2.108568        57.3771 
 553   0.0000       2.111819        57.4655 
 554   0.0000       2.114964        57.5511 
 555   0.0000       2.129627        57.9501 
 556   0.0000       2.137327        58.1596 
 557   0.0000       2.141141        58.2634 
 558   0.0000       2.148392        58.4607 
 559   0.0000       2.154883        58.6374 
 560   0.0000       2.168541        59.0090 
 561   0.0000       2.171446        59.0880 
 562   0.0000       2.175721        59.2044 
 563   0.0000       2.187831        59.5339 
 564   0.0000       2.188680        59.5570 
 565   0.0000       2.201863        59.9157 
 566   0.0000       2.205009        60.0014 
 567   0.0000       2.211344        60.1737 
 568   0.0000       2.216743        60.3207 
 569   0.0000       2.221944        60.4622 
 570   0.0000       2.235664        60.8355 
 571   0.0000       2.238339        60.9083 
 572   0.0000       2.245264        61.0968 
 573   0.0000       2.247724        61.1637 
 574   0.0000       2.252279        61.2876 
 575   0.0000       2.259042        61.4716 
 576   0.0000       2.267604        61.7046 
 577   0.0000       2.276324        61.9419 
 578   0.0000       2.283774        62.1446 
 579   0.0000       2.294313        62.4314 
 580   0.0000       2.299888        62.5831 
 581   0.0000       2.305443        62.7343 
 582   0.0000       2.314184        62.9722 
 583   0.0000       2.330419        63.4139 
 584   0.0000       2.333927        63.5094 
 585   0.0000       2.340281        63.6823 
 586   0.0000       2.347028        63.8659 
 587   0.0000       2.351965        64.0002 
 588   0.0000       2.357069        64.1391 
 589   0.0000       2.359961        64.2178 
 590   0.0000       2.374238        64.6063 
 591   0.0000       2.382478        64.8305 
 592   0.0000       2.385962        64.9253 
 593   0.0000       2.402494        65.3752 
 594   0.0000       2.408980        65.5517 
 595   0.0000       2.413845        65.6841 
 596   0.0000       2.426913        66.0397 
 597   0.0000       2.435961        66.2859 
 598   0.0000       2.442711        66.4695 
 599   0.0000       2.446293        66.5670 
 600   0.0000       2.456605        66.8476 
 601   0.0000       2.467409        67.1416 
 602   0.0000       2.469933        67.2103 
 603   0.0000       2.481105        67.5143 
 604   0.0000       2.490095        67.7589 
 605   0.0000       2.495252        67.8993 
 606   0.0000       2.509776        68.2945 
 607   0.0000       2.525577        68.7244 
 608   0.0000       2.532378        68.9095 
 609   0.0000       2.547177        69.3122 
 610   0.0000       2.555808        69.5471 
 611   0.0000       2.563616        69.7595 
 612   0.0000       2.580179        70.2102 
 613   0.0000       2.590192        70.4827 
 614   0.0000       2.612221        71.0821 
 615   0.0000       2.625861        71.4533 
 616   0.0000       2.627817        71.5065 
 617   0.0000       2.640723        71.8577 
 618   0.0000       2.642855        71.9157 
 619   0.0000       2.665073        72.5203 
 620   0.0000       2.673974        72.7625 
 621   0.0000       2.688707        73.1634 
 622   0.0000       2.692760        73.2737 
 623   0.0000       2.701651        73.5157 
 624   0.0000       2.713623        73.8414 
 625   0.0000       2.715649        73.8966 
 626   0.0000       2.722798        74.0911 
 627   0.0000       2.729255        74.2668 
 628   0.0000       2.732801        74.3633 
 629   0.0000       2.743015        74.6412 
 630   0.0000       2.748195        74.7822 
 631   0.0000       2.761176        75.1354 
 632   0.0000       2.762356        75.1675 
 633   0.0000       2.773955        75.4832 
 634   0.0000       2.777448        75.5782 
 635   0.0000       2.794357        76.0383 
 636   0.0000       2.807323        76.3911 
 637   0.0000       2.837900        77.2232 
 638   0.0000       2.844036        77.3902 
 639   0.0000       2.852647        77.6245 
 640   0.0000       2.875278        78.2403 
 641   0.0000       2.880393        78.3795 
 642   0.0000       2.891767        78.6890 
 643   0.0000       2.906249        79.0831 
 644   0.0000       2.911750        79.2327 
 645   0.0000       2.924534        79.5806 
 646   0.0000       2.936530        79.9071 
 647   0.0000       2.943925        80.1083 
 648   0.0000       2.956041        80.4380 
 649   0.0000       2.975832        80.9765 
 650   0.0000       2.987130        81.2840 
 651   0.0000       2.998962        81.6059 
 652   0.0000       3.015268        82.0496 
 653   0.0000       3.028115        82.3992 
 654   0.0000       3.054064        83.1053 
 655   0.0000       3.066527        83.4445 
 656   0.0000       3.075566        83.6904 
 657   0.0000       3.091792        84.1319 
 658   0.0000       3.107635        84.5630 
 659   0.0000       3.113242        84.7156 
 660   0.0000       3.128049        85.1185 
 661   0.0000       3.159522        85.9750 
 662   0.0000       3.168614        86.2224 
 663   0.0000       3.178133        86.4814 
 664   0.0000       3.188296        86.7579 
 665   0.0000       3.199223        87.0553 
 666   0.0000       3.212377        87.4132 
 667   0.0000       3.218645        87.5838 
 668   0.0000       3.227423        87.8227 
 669   0.0000       3.238551        88.1255 
 670   0.0000       3.239484        88.1508 
 671   0.0000       3.255385        88.5835 
 672   0.0000       3.259803        88.7038 
 673   0.0000       3.268155        88.9310 
 674   0.0000       3.276897        89.1689 
 675   0.0000       3.287294        89.4518 
 676   0.0000       3.293523        89.6213 
 677   0.0000       3.309202        90.0480 
 678   0.0000       3.317500        90.2738 
 679   0.0000       3.332067        90.6702 
 680   0.0000       3.335766        90.7708 
 681   0.0000       3.345738        91.0422 
 682   0.0000       3.355786        91.3156 
 683   0.0000       3.364210        91.5448 
 684   0.0000       3.369935        91.7006 
 685   0.0000       3.389457        92.2318 
 686   0.0000       3.398226        92.4704 
 687   0.0000       3.401643        92.5634 
 688   0.0000       3.411689        92.8368 
 689   0.0000       3.418120        93.0118 
 690   0.0000       3.429950        93.3337 
 691   0.0000       3.437486        93.5388 
 692   0.0000       3.452403        93.9447 
 693   0.0000       3.463725        94.2528 
 694   0.0000       3.472553        94.4930 
 695   0.0000       3.483525        94.7915 
 696   0.0000       3.493619        95.0662 
 697   0.0000       3.497097        95.1609 
 698   0.0000       3.502276        95.3018 
 699   0.0000       3.510644        95.5295 
 700   0.0000       3.515442        95.6601 
 701   0.0000       3.525109        95.9231 
 702   0.0000       3.540640        96.3457 
 703   0.0000       3.543590        96.4260 
 704   0.0000       3.553075        96.6841 
 705   0.0000       3.556029        96.7645 
 706   0.0000       3.565993        97.0356 
 707   0.0000       3.580142        97.4206 
 708   0.0000       3.597267        97.8866 
 709   0.0000       3.603302        98.0508 
 710   0.0000       3.605045        98.0983 
 711   0.0000       3.610181        98.2380 
 712   0.0000       3.620101        98.5079 
 713   0.0000       3.622782        98.5809 
 714   0.0000       3.628551        98.7379 
 715   0.0000       3.641649        99.0943 
 716   0.0000       3.650760        99.3422 
 717   0.0000       3.655139        99.4614 
 718   0.0000       3.670823        99.8882 
 719   0.0000       3.684702       100.2658 
 720   0.0000       3.693757       100.5122 
 721   0.0000       3.694678       100.5373 
 722   0.0000       3.710702       100.9733 
 723   0.0000       3.714193       101.0683 
 724   0.0000       3.722819       101.3030 
 725   0.0000       3.725774       101.3835 
 726   0.0000       3.730372       101.5086 
 727   0.0000       3.741722       101.8174 
 728   0.0000       3.745708       101.9259 
 729   0.0000       3.755635       102.1960 
 730   0.0000       3.770696       102.6058 
 731   0.0000       3.772197       102.6467 
 732   0.0000       3.781394       102.8970 
 733   0.0000       3.787832       103.0722 
 734   0.0000       3.790240       103.1377 
 735   0.0000       3.798090       103.3513 
 736   0.0000       3.806629       103.5836 
 737   0.0000       3.812692       103.7486 
 738   0.0000       3.817954       103.8918 
 739   0.0000       3.821632       103.9919 
 740   0.0000       3.828262       104.1723 
 741   0.0000       3.836480       104.3959 
 742   0.0000       3.848120       104.7127 
 743   0.0000       3.858602       104.9979 
 744   0.0000       3.863351       105.1271 
 745   0.0000       3.869008       105.2811 
 746   0.0000       3.870705       105.3272 
 747   0.0000       3.887689       105.7894 
 748   0.0000       3.892785       105.9281 
 749   0.0000       3.904146       106.2372 
 750   0.0000       3.908204       106.3476 
 751   0.0000       3.917062       106.5887 
 752   0.0000       3.922880       106.7470 
 753   0.0000       3.926518       106.8460 
 754   0.0000       3.928160       106.8907 
 755   0.0000       3.938280       107.1660 
 756   0.0000       3.949059       107.4594 
 757   0.0000       3.954403       107.6048 
 758   0.0000       3.964428       107.8776 
 759   0.0000       3.969067       108.0038 
 760   0.0000       3.974841       108.1609 
 761   0.0000       3.985584       108.4532 
 762   0.0000       3.990114       108.5765 
 763   0.0000       3.999562       108.8336 
 764   0.0000       4.002829       108.9225 
 765   0.0000       4.013641       109.2167 
 766   0.0000       4.017040       109.3092 
 767   0.0000       4.040157       109.9383 
 768   0.0000       4.045826       110.0925 
 769   0.0000       4.046261       110.1044 
 770   0.0000       4.055845       110.3652 
 771   0.0000       4.059250       110.4578 
 772   0.0000       4.064729       110.6069 
 773   0.0000       4.068085       110.6982 
 774   0.0000       4.072336       110.8139 
 775   0.0000       4.087666       111.2310 
 776   0.0000       4.097556       111.5002 
 777   0.0000       4.108240       111.7909 
 778   0.0000       4.116290       112.0099 
 779   0.0000       4.119548       112.0986 
 780   0.0000       4.130500       112.3966 
 781   0.0000       4.131510       112.4241 
 782   0.0000       4.138044       112.6019 
 783   0.0000       4.150217       112.9332 
 784   0.0000       4.167480       113.4029 
 785   0.0000       4.171469       113.5114 
 786   0.0000       4.185311       113.8881 
 787   0.0000       4.187858       113.9574 
 788   0.0000       4.205135       114.4275 
 789   0.0000       4.206880       114.4750 
 790   0.0000       4.216516       114.7372 
 791   0.0000       4.227205       115.0281 
 792   0.0000       4.230888       115.1283 
 793   0.0000       4.243613       115.4746 
 794   0.0000       4.252751       115.7232 
 795   0.0000       4.259586       115.9092 
 796   0.0000       4.270581       116.2084 
 797   0.0000       4.272390       116.2576 
 798   0.0000       4.279323       116.4463 
 799   0.0000       4.289414       116.7209 
 800   0.0000       4.307658       117.2173 
 801   0.0000       4.315382       117.4275 
 802   0.0000       4.323028       117.6356 
 803   0.0000       4.333152       117.9111 
 804   0.0000       4.348857       118.3384 
 805   0.0000       4.349247       118.3490 
 806   0.0000       4.356272       118.5402 
 807   0.0000       4.367721       118.8517 
 808   0.0000       4.373571       119.0109 
 809   0.0000       4.377562       119.1195 
 810   0.0000       4.381808       119.2351 
 811   0.0000       4.392168       119.5170 
 812   0.0000       4.411140       120.0332 
 813   0.0000       4.416849       120.1886 
 814   0.0000       4.424222       120.3892 
 815   0.0000       4.432763       120.6216 
 816   0.0000       4.449424       121.0750 
 817   0.0000       4.456993       121.2809 
 818   0.0000       4.463713       121.4638 
 819   0.0000       4.465555       121.5139 
 820   0.0000       4.470621       121.6518 
 821   0.0000       4.488396       122.1355 
 822   0.0000       4.503465       122.5455 
 823   0.0000       4.504899       122.5845 
 824   0.0000       4.519064       122.9700 
 825   0.0000       4.530333       123.2766 
 826   0.0000       4.538907       123.5099 
 827   0.0000       4.546495       123.7164 
 828   0.0000       4.559446       124.0688 
 829   0.0000       4.563212       124.1713 
 830   0.0000       4.570814       124.3782 
 831   0.0000       4.595434       125.0481 
 832   0.0000       4.601978       125.2262 
 833   0.0000       4.613451       125.5384 
 834   0.0000       4.615136       125.5842 
 835   0.0000       4.634613       126.1142 
 836   0.0000       4.651061       126.5618 
 837   0.0000       4.660741       126.8252 
 838   0.0000       4.673213       127.1646 
 839   0.0000       4.681401       127.3874 
 840   0.0000       4.684087       127.4605 
 841   0.0000       4.698228       127.8453 
 842   0.0000       4.705949       128.0554 
 843   0.0000       4.722279       128.4998 
 844   0.0000       4.737007       128.9005 
 845   0.0000       4.749566       129.2423 
 846   0.0000       4.752705       129.3277 
 847   0.0000       4.764714       129.6544 
 848   0.0000       4.770582       129.8141 
 849   0.0000       4.794239       130.4579 
 850   0.0000       4.795851       130.5017 
 851   0.0000       4.805164       130.7552 
 852   0.0000       4.808824       130.8548 
 853   0.0000       4.835013       131.5674 
 854   0.0000       4.851390       132.0130 
 855   0.0000       4.859585       132.2360 
 856   0.0000       4.865294       132.3914 
 857   0.0000       4.884081       132.9026 
 858   0.0000       4.900865       133.3593 
 859   0.0000       4.910590       133.6239 
 860   0.0000       4.924846       134.0119 
 861   0.0000       4.931874       134.2031 
 862   0.0000       4.936589       134.3314 
 863   0.0000       4.941529       134.4658 
 864   0.0000       4.960327       134.9774 
 865   0.0000       4.969088       135.2158 
 866   0.0000       4.982527       135.5815 
 867   0.0000       4.993362       135.8763 
 868   0.0000       5.012358       136.3932 
 869   0.0000       5.013803       136.4325 
 870   0.0000       5.027096       136.7942 
 871   0.0000       5.033933       136.9803 
 872   0.0000       5.042049       137.2011 
 873   0.0000       5.053774       137.5202 
 874   0.0000       5.069011       137.9348 
 875   0.0000       5.074615       138.0873 
 876   0.0000       5.089102       138.4815 
 877   0.0000       5.100355       138.7877 
 878   0.0000       5.107588       138.9845 
 879   0.0000       5.124587       139.4471 
 880   0.0000       5.147579       140.0727 
 881   0.0000       5.157894       140.3534 
 882   0.0000       5.175484       140.8321 
 883   0.0000       5.184944       141.0895 
 884   0.0000       5.193605       141.3252 
 885   0.0000       5.198150       141.4488 
 886   0.0000       5.210469       141.7841 
 887   0.0000       5.226714       142.2261 
 888   0.0000       5.250009       142.8600 
 889   0.0000       5.256300       143.0312 
 890   0.0000       5.258925       143.1026 
 891   0.0000       5.280833       143.6988 
 892   0.0000       5.290903       143.9728 
 893   0.0000       5.301985       144.2744 
 894   0.0000       5.303336       144.3111 
 895   0.0000       5.319430       144.7490 
 896   0.0000       5.336824       145.2224 
 897   0.0000       5.352815       145.6575 
 898   0.0000       5.364916       145.9868 
 899   0.0000       5.371661       146.1703 
 900   0.0000       5.387826       146.6102 
 901   0.0000       5.393761       146.7717 
 902   0.0000       5.406372       147.1149 
 903   0.0000       5.423704       147.5865 
 904   0.0000       5.436152       147.9252 
 905   0.0000       5.443566       148.1270 
 906   0.0000       5.454845       148.4339 
 907   0.0000       5.463362       148.6656 
 908   0.0000       5.483288       149.2079 
 909   0.0000       5.491264       149.4249 
 910   0.0000       5.505171       149.8033 
 911   0.0000       5.528870       150.4482 
 912   0.0000       5.531846       150.5292 
 913   0.0000       5.537195       150.6747 
 914   0.0000       5.554560       151.1473 
 915   0.0000       5.561835       151.3452 
 916   0.0000       5.588280       152.0648 
 917   0.0000       5.590982       152.1383 
 918   0.0000       5.602218       152.4441 
 919   0.0000       5.615542       152.8067 
 920   0.0000       5.623139       153.0134 
 921   0.0000       5.633757       153.3023 
 922   0.0000       5.643873       153.5776 
 923   0.0000       5.659937       154.0147 
 924   0.0000       5.665229       154.1587 
 925   0.0000       5.672741       154.3631 
 926   0.0000       5.684456       154.6819 
 927   0.0000       5.700262       155.1120 
 928   0.0000       5.716069       155.5422 
 929   0.0000       5.717220       155.5735 
 930   0.0000       5.736204       156.0900 
 931   0.0000       5.739607       156.1826 
 932   0.0000       5.755675       156.6199 
 933   0.0000       5.775099       157.1484 
 934   0.0000       5.777011       157.2005 
 935   0.0000       5.788478       157.5125 
 936   0.0000       5.816628       158.2785 
 937   0.0000       5.820922       158.3953 
 938   0.0000       5.851316       159.2224 
 939   0.0000       5.865826       159.6172 
 940   0.0000       5.874419       159.8511 
 941   0.0000       5.886971       160.1926 
 942   0.0000       5.905565       160.6986 
 943   0.0000       5.935745       161.5198 
 944   0.0000       5.955533       162.0583 
 945   0.0000       5.962648       162.2519 
 946   0.0000       5.997009       163.1869 
 947   0.0000       6.084137       165.5578 
 948   0.0000       6.089626       165.7071 
 949   0.0000       6.140872       167.1016 
 950   0.0000       6.149930       167.3481 
 951   0.0000       6.161444       167.6614 
 952   0.0000       6.193069       168.5220 
 953   0.0000       6.207188       168.9062 
 954   0.0000       6.230326       169.5358 
 955   0.0000       6.247946       170.0153 
 956   0.0000       6.250398       170.0820 
 957   0.0000       6.263818       170.4472 
 958   0.0000       6.292350       171.2235 
 959   0.0000       6.302584       171.5020 
 960   0.0000       6.308479       171.6624 
 961   0.0000       6.330271       172.2554 
 962   0.0000       6.356945       172.9813 
 963   0.0000       6.366819       173.2499 
 964   0.0000       6.384175       173.7222 
 965   0.0000       6.397665       174.0893 
 966   0.0000       6.421414       174.7355 
 967   0.0000       6.440839       175.2641 
 968   0.0000       6.467869       175.9997 
 969   0.0000       6.528773       177.6570 
 970   0.0000       6.570325       178.7876 
 971   0.0000       6.716269       182.7590 
 972   0.0000       6.805112       185.1765 
 973   0.0000       6.864267       186.7862 
 974   0.0000       6.887701       187.4239 
 975   0.0000       6.914053       188.1409 
 976   0.0000       6.941611       188.8908 
 977   0.0000       6.964812       189.5222 
 978   0.0000       6.977185       189.8589 
 979   0.0000       6.988292       190.1611 
 980   0.0000       7.031725       191.3430 
 981   0.0000       7.041527       191.6097 
 982   0.0000       7.071128       192.4152 
 983   0.0000       7.080757       192.6772 
 984   0.0000       7.173215       195.1931 
 985   0.0000       7.243344       197.1014 
 986   0.0000       7.329158       199.4365 
 987   0.0000       7.395097       201.2308 
 988   0.0000       7.476208       203.4379 
 989   0.0000       7.502298       204.1479 
 990   0.0000       7.572230       206.0509 
 991   0.0000       7.627182       207.5462 
 992   0.0000       7.656669       208.3485 
 993   0.0000       7.782559       211.7742 
 994   0.0000       7.836342       213.2377 
 995   0.0000       7.946025       216.2223 
 996   0.0000       8.072653       219.6680 
 997   0.0000       8.146484       221.6771 
 998   0.0000       8.353692       227.3155 
 999   0.0000       9.443166       256.9616 
 1000   0.0000       9.458454       257.3776 
 1001   0.0000       9.470639       257.7092 
 1002   0.0000       9.481953       258.0171 
 1003   0.0000       9.501628       258.5524 
 1004   0.0000       9.522816       259.1290 
 1005   0.0000       9.760458       265.5956 
 1006   0.0000      10.107503       275.0391 
 1007   0.0000      10.126894       275.5668 
 1008   0.0000      10.156486       276.3720 
 1009   0.0000      10.226631       278.2808 
 1010   0.0000      10.233528       278.4685 
 1011   0.0000      10.259897       279.1860 
 1012   0.0000      10.403440       283.0920 
 1013   0.0000      10.435471       283.9636 
 1014   0.0000      10.561151       287.3835 
 1015   0.0000      16.267162       442.6520 
 1016   0.0000      17.684731       481.2260 
 1017   0.0000      18.130141       493.3462 
 1018   0.0000      18.414344       501.0798 
 1019   0.0000      18.775270       510.9011 
 1020   0.0000      19.069617       518.9107 
 1021   0.0000      19.180558       521.9295 
 1022   0.0000      19.762821       537.7737 
 1023   0.0000      20.570219       559.7441 
 1024   0.0000      21.947735       597.2282 

                 SPIN DOWN ORBITALS
  NO   OCC          E(Eh)            E(eV) 
   0   1.0000    -261.543215     -7116.9527 
   1   1.0000    -104.771827     -2850.9864 
   2   1.0000    -104.770037     -2850.9376 
   3   1.0000    -104.769049     -2850.9108 
   4   1.0000     -32.052629      -872.1964 
   5   1.0000     -27.530678      -749.1478 
   6   1.0000     -27.530522      -749.1436 
   7   1.0000     -27.530095      -749.1320 
   8   1.0000     -20.543662      -559.0215 
   9   1.0000     -11.373971      -309.5015 
  10   1.0000     -11.371475      -309.4336 
  11   1.0000     -11.293398      -307.3090 
  12   1.0000     -11.283821      -307.0484 
  13   1.0000     -11.266934      -306.5889 
  14   1.0000     -11.251722      -306.1749 
  15   1.0000     -11.250625      -306.1451 
  16   1.0000     -11.242848      -305.9334 
  17   1.0000     -10.498330      -285.6741 
  18   1.0000     -10.496503      -285.6244 
  19   1.0000     -10.495558      -285.5986 
  20   1.0000      -7.964212      -216.7172 
  21   1.0000      -7.963665      -216.7023 
  22   1.0000      -7.963588      -216.7002 
  23   1.0000      -7.962461      -216.6696 
  24   1.0000      -7.961803      -216.6517 
  25   1.0000      -7.961701      -216.6489 
  26   1.0000      -7.961508      -216.6436 
  27   1.0000      -7.960812      -216.6247 
  28   1.0000      -7.960734      -216.6226 
  29   1.0000      -4.127846      -112.3244 
  30   1.0000      -2.649689       -72.1017 
  31   1.0000      -2.649613       -72.0996 
  32   1.0000      -2.648739       -72.0758 
  33   1.0000      -1.376283       -37.4506 
  34   1.0000      -1.187801       -32.3217 
  35   1.0000      -1.080064       -29.3900 
  36   1.0000      -1.044919       -28.4337 
  37   1.0000      -1.029970       -28.0269 
  38   1.0000      -1.018569       -27.7167 
  39   1.0000      -1.016986       -27.6736 
  40   1.0000      -1.009557       -27.4715 
  41   1.0000      -0.974994       -26.5309 
  42   1.0000      -0.930166       -25.3111 
  43   1.0000      -0.799670       -21.7601 
  44   1.0000      -0.773332       -21.0434 
  45   1.0000      -0.704691       -19.1756 
  46   1.0000      -0.693215       -18.8633 
  47   1.0000      -0.670955       -18.2576 
  48   1.0000      -0.659854       -17.9555 
  49   1.0000      -0.649798       -17.6819 
  50   1.0000      -0.629078       -17.1181 
  51   1.0000      -0.602190       -16.3864 
  52   1.0000      -0.598293       -16.2804 
  53   1.0000      -0.591885       -16.1060 
  54   1.0000      -0.580451       -15.7949 
  55   1.0000      -0.573446       -15.6043 
  56   1.0000      -0.562636       -15.3101 
  57   1.0000      -0.557746       -15.1770 
  58   1.0000      -0.539612       -14.6836 
  59   1.0000      -0.533309       -14.5121 
  60   1.0000      -0.516920       -14.0661 
  61   1.0000      -0.500932       -13.6311 
  62   1.0000      -0.468756       -12.7555 
  63   1.0000      -0.463658       -12.6168 
  64   1.0000      -0.455437       -12.3931 
  65   1.0000      -0.434511       -11.8236 
  66   1.0000      -0.431606       -11.7446 
  67   1.0000      -0.429917       -11.6986 
  68   1.0000      -0.424757       -11.5582 
  69   1.0000      -0.409409       -11.1406 
  70   1.0000      -0.396337       -10.7849 
  71   1.0000      -0.392740       -10.6870 
  72   0.0000       0.005008         0.1363 
  73   0.0000       0.011441         0.3113 
  74   0.0000       0.018729         0.5096 
  75   0.0000       0.020094         0.5468 
  76   0.0000       0.029038         0.7902 
  77   0.0000       0.038611         1.0507 
  78   0.0000       0.038836         1.0568 
  79   0.0000       0.041502         1.1293 
  80   0.0000       0.045115         1.2277 
  81   0.0000       0.047685         1.2976 
  82   0.0000       0.057696         1.5700 
  83   0.0000       0.058513         1.5922 
  84   0.0000       0.061044         1.6611 
  85   0.0000       0.061827         1.6824 
  86   0.0000       0.064116         1.7447 
  87   0.0000       0.071700         1.9511 
  88   0.0000       0.075238         2.0473 
  89   0.0000       0.079993         2.1767 
  90   0.0000       0.089162         2.4262 
  91   0.0000       0.090503         2.4627 
  92   0.0000       0.093243         2.5373 
  93   0.0000       0.095198         2.5905 
  94   0.0000       0.097458         2.6520 
  95   0.0000       0.100737         2.7412 
  96   0.0000       0.107046         2.9129 
  97   0.0000       0.113657         3.0928 
  98   0.0000       0.117329         3.1927 
  99   0.0000       0.121368         3.3026 
 100   0.0000       0.122580         3.3356 
 101   0.0000       0.124120         3.3775 
 102   0.0000       0.127982         3.4826 
 103   0.0000       0.129302         3.5185 
 104   0.0000       0.130446         3.5496 
 105   0.0000       0.131492         3.5781 
 106   0.0000       0.134157         3.6506 
 107   0.0000       0.135088         3.6759 
 108   0.0000       0.136098         3.7034 
 109   0.0000       0.139759         3.8030 
 110   0.0000       0.140790         3.8311 
 111   0.0000       0.142892         3.8883 
 112   0.0000       0.147289         4.0079 
 113   0.0000       0.152188         4.1413 
 114   0.0000       0.155559         4.2330 
 115   0.0000       0.157885         4.2963 
 116   0.0000       0.158088         4.3018 
 117   0.0000       0.160919         4.3788 
 118   0.0000       0.163809         4.4575 
 119   0.0000       0.165564         4.5052 
 120   0.0000       0.170773         4.6470 
 121   0.0000       0.172748         4.7007 
 122   0.0000       0.176736         4.8092 
 123   0.0000       0.177962         4.8426 
 124   0.0000       0.178950         4.8695 
 125   0.0000       0.185875         5.0579 
 126   0.0000       0.187450         5.1008 
 127   0.0000       0.191259         5.2044 
 128   0.0000       0.198630         5.4050 
 129   0.0000       0.205720         5.5979 
 130   0.0000       0.206956         5.6316 
 131   0.0000       0.208959         5.6861 
 132   0.0000       0.213203         5.8015 
 133   0.0000       0.218753         5.9526 
 134   0.0000       0.220535         6.0011 
 135   0.0000       0.223543         6.0829 
 136   0.0000       0.226630         6.1669 
 137   0.0000       0.228851         6.2273 
 138   0.0000       0.231854         6.3091 
 139   0.0000       0.234369         6.3775 
 140   0.0000       0.236378         6.4322 
 141   0.0000       0.239814         6.5257 
 142   0.0000       0.244047         6.6409 
 143   0.0000       0.248510         6.7623 
 144   0.0000       0.251438         6.8420 
 145   0.0000       0.252809         6.8793 
 146   0.0000       0.257340         7.0026 
 147   0.0000       0.261760         7.1229 
 148   0.0000       0.267417         7.2768 
 149   0.0000       0.271129         7.3778 
 150   0.0000       0.278289         7.5726 
 151   0.0000       0.279254         7.5989 
 152   0.0000       0.282957         7.6996 
 153   0.0000       0.286642         7.7999 
 154   0.0000       0.291085         7.9208 
 155   0.0000       0.293920         7.9980 
 156   0.0000       0.296126         8.0580 
 157   0.0000       0.302576         8.2335 
 158   0.0000       0.307792         8.3754 
 159   0.0000       0.309738         8.4284 
 160   0.0000       0.313092         8.5197 
 161   0.0000       0.313654         8.5350 
 162   0.0000       0.316916         8.6237 
 163   0.0000       0.326231         8.8772 
 164   0.0000       0.330834         9.0025 
 165   0.0000       0.334366         9.0986 
 166   0.0000       0.339363         9.2345 
 167   0.0000       0.340201         9.2574 
 168   0.0000       0.343092         9.3360 
 169   0.0000       0.345969         9.4143 
 170   0.0000       0.348938         9.4951 
 171   0.0000       0.354573         9.6484 
 172   0.0000       0.356128         9.6907 
 173   0.0000       0.358030         9.7425 
 174   0.0000       0.361134         9.8270 
 175   0.0000       0.364606         9.9214 
 176   0.0000       0.371244        10.1021 
 177   0.0000       0.373329        10.1588 
 178   0.0000       0.375593        10.2204 
 179   0.0000       0.379722        10.3328 
 180   0.0000       0.384233        10.4555 
 181   0.0000       0.387348        10.5403 
 182   0.0000       0.393117        10.6973 
 183   0.0000       0.396296        10.7838 
 184   0.0000       0.398085        10.8324 
 185   0.0000       0.400885        10.9086 
 186   0.0000       0.403680        10.9847 
 187   0.0000       0.404978        11.0200 
 188   0.0000       0.410578        11.1724 
 189   0.0000       0.410799        11.1784 
 190   0.0000       0.414521        11.2797 
 191   0.0000       0.419620        11.4184 
 192   0.0000       0.422508        11.4970 
 193   0.0000       0.428268        11.6538 
 194   0.0000       0.431339        11.7373 
 195   0.0000       0.433038        11.7836 
 196   0.0000       0.439757        11.9664 
 197   0.0000       0.446504        12.1500 
 198   0.0000       0.448561        12.2060 
 199   0.0000       0.450898        12.2696 
 200   0.0000       0.452240        12.3061 
 201   0.0000       0.458566        12.4782 
 202   0.0000       0.464189        12.6312 
 203   0.0000       0.468676        12.7533 
 204   0.0000       0.471903        12.8411 
 205   0.0000       0.473585        12.8869 
 206   0.0000       0.474369        12.9082 
 207   0.0000       0.477855        13.0031 
 208   0.0000       0.480634        13.0787 
 209   0.0000       0.482204        13.1214 
 210   0.0000       0.490307        13.3419 
 211   0.0000       0.492872        13.4117 
 212   0.0000       0.493475        13.4281 
 213   0.0000       0.498669        13.5695 
 214   0.0000       0.501634        13.6502 
 215   0.0000       0.503851        13.7105 
 216   0.0000       0.506042        13.7701 
 217   0.0000       0.511205        13.9106 
 218   0.0000       0.512374        13.9424 
 219   0.0000       0.516757        14.0617 
 220   0.0000       0.521185        14.1822 
 221   0.0000       0.522195        14.2096 
 222   0.0000       0.526453        14.3255 
 223   0.0000       0.527983        14.3671 
 224   0.0000       0.532326        14.4853 
 225   0.0000       0.534340        14.5401 
 226   0.0000       0.538745        14.6600 
 227   0.0000       0.542135        14.7523 
 228   0.0000       0.547542        14.8994 
 229   0.0000       0.549921        14.9641 
 230   0.0000       0.553356        15.0576 
 231   0.0000       0.555302        15.1105 
 232   0.0000       0.555915        15.1272 
 233   0.0000       0.563130        15.3235 
 234   0.0000       0.564867        15.3708 
 235   0.0000       0.569514        15.4973 
 236   0.0000       0.574288        15.6272 
 237   0.0000       0.578449        15.7404 
 238   0.0000       0.580878        15.8065 
 239   0.0000       0.586511        15.9598 
 240   0.0000       0.587721        15.9927 
 241   0.0000       0.588757        16.0209 
 242   0.0000       0.592132        16.1127 
 243   0.0000       0.602421        16.3927 
 244   0.0000       0.602534        16.3958 
 245   0.0000       0.605908        16.4876 
 246   0.0000       0.607440        16.5293 
 247   0.0000       0.611257        16.6331 
 248   0.0000       0.615792        16.7566 
 249   0.0000       0.619980        16.8705 
 250   0.0000       0.622924        16.9506 
 251   0.0000       0.626439        17.0463 
 252   0.0000       0.628416        17.1001 
 253   0.0000       0.631384        17.1808 
 254   0.0000       0.639633        17.4053 
 255   0.0000       0.645906        17.5760 
 256   0.0000       0.653508        17.7829 
 257   0.0000       0.655508        17.8373 
 258   0.0000       0.659949        17.9581 
 259   0.0000       0.664116        18.0715 
 260   0.0000       0.666686        18.1414 
 261   0.0000       0.675022        18.3683 
 262   0.0000       0.679288        18.4844 
 263   0.0000       0.681885        18.5550 
 264   0.0000       0.684346        18.6220 
 265   0.0000       0.689669        18.7668 
 266   0.0000       0.691717        18.8226 
 267   0.0000       0.698164        18.9980 
 268   0.0000       0.700981        19.0747 
 269   0.0000       0.705148        19.1880 
 270   0.0000       0.707177        19.2433 
 271   0.0000       0.712814        19.3967 
 272   0.0000       0.715872        19.4799 
 273   0.0000       0.721859        19.6428 
[...]
  | Av. % of trace(Di) retained         ...  99.998480114726
  | Av. % of trace(Dp) retained         ...  99.999997642453
  | sigma^2 in % of trace(Di) retained  ...   7.70e-07
  | sigma^2 in % of trace(Dp) retained  ...   4.85e-12
 Distributions of % trace(Dij) recovered:
  |       >= 99.9  ...   105 ( 20.8 % of all IJ-pairs)
  |   [80.0, 90.0) ...    36 (  7.1 % of all IJ-pairs)
  |   [90.0, 99.0) ...   267 ( 53.0 % of all IJ-pairs)
  |   [99.0, 99.9) ...    96 ( 19.0 % of all IJ-pairs)
 Distributions of % trace(Dip) recovered:
  |   [70.0, 80.0) ...     1 (  0.8 % of all IP-pairs)
  |   [80.0, 90.0) ...    15 ( 12.4 % of all IP-pairs)
  |   [90.0, 99.0) ...    62 ( 51.2 % of all IP-pairs)
  |   [99.0, 99.9) ...    43 ( 35.5 % of all IP-pairs)
 Distributions of % trace(Dpq) recovered:
  |       >= 99.9  ...     5 ( 33.3 % of all PQ-pairs)
  |   [99.0, 99.9) ...    10 ( 66.7 % of all PQ-pairs)
 Distributions of % trace(Di) recovered :
  |       >= 99.9  ...    43 (100.0 % of all I-pairs )
 Distributions of % trace(Dp) recovered :
  |       >= 99.9  ...     5 (100.0 % of all P-pairs )

                       ===========================
                       1111 OF 1678 PAIRS ARE KEPT
                       ===========================

 Initial PAO correlation energy (all pairs)    ...  -2.6979946731 Eh
 Energy constituents in PAO basis (Eh):
  | Vijab(+0) ...  -2.2685589014
  | Viab (-1) ...  -0.1753417753
  | Vab  (-2) ...  -0.0573667838
  | Va   (-1) ...  -0.0000420091
  | Vija (+1) ...  -0.0727699020
  | Vij  (+2) ...  -0.0155030634
  | Via  (+0) ...  -0.1082529170
  | Vi   (+1) ...  -0.0001593210
 Initial PNO correlation energy                ...  -2.6635001665 Eh
 Energy constituents in PNO basis (Eh):
  | Vijab(+0) ...  -2.2499297777 (err=  0.0186291237)
  | Viab (-1) ...  -0.1611600403 (err=  0.0141817350)
  | Vab  (-2) ...  -0.0568754867 (err=  0.0004912971)
  | Va   (-1) ...  -0.0000241402 (err=  0.0000178689)
  | Vija (+1) ...  -0.0717424545 (err=  0.0010274475)
  | Vij  (+2) ...  -0.0154508430 (err=  0.0000522204)
  | Via  (+0) ...  -0.1081583874 (err=  0.0000945296)
  | Vi   (+1) ...  -0.0001590367 (err=  0.0000002843)
 Sum of total truncation errors ...   0.0344945066 Eh
  | Pair screening ...   0.0112578506 Eh
  | PNO truncation ...   0.0232366560 Eh

 UMP2 correlation energy (PAO) ...  -2.6931011667
  | alpha-alpha ...  -0.3878373272 (NP_aa=  907)
  | alpha-beta  ...  -1.9969877828 (NP_ab= 1653)
  | beta -beta  ...  -0.3082760567 (NP_bb=  713)
 UMP2 correlation energy (PNO) ...  -2.6582275264
  | alpha-alpha ...  -0.3757863516 (err=  0.0120509756, NP_aa=  592)
  | alpha-beta  ...  -1.9782134690 (err=  0.0187743138, NP_ab= 1086)
  | beta -beta  ...  -0.3042277059 (err=  0.0040483508, NP_bb=  461)
 Sum of total UMP2 truncation errors ...   0.0348736403 Eh
  | Pair screening ...   0.0112764539 Eh
  | PNO truncation ...   0.0235971864 Eh
 Timing for NEV-PNO construction (sec.)
  | Intermediate construction  ..           52.567
  | Amplitude construction     ..           68.337
  | Total time                 ..          120.904
 Making pair pair interaction lists ...      ok
 Total size for 2-ext PNO integrals ...     11.2 MB
Checking the number of SOMO/SOMO doubles PNOs ... 
 #Truncate: (72, 72)[170] -> [86] .. 
 #Truncate: (73, 73)[168] -> [86] .. 
 #Truncate: (74, 74)[173] -> [86] .. 
 #Truncate: (75, 75)[171] -> [86] .. 
 #Truncate: (76, 76)[172] -> [86] .. 

--------------------------------
LOCAL RI TRANSFORMATION (VABPAO)
--------------------------------

Number of PAOs:    1030
Basis functions:   1025 (343 shells)
Aux. functions:    2424 (644 shells)

Processing maps (0.0 sec)
Average map sizes:
   Aux shells -> PAOs           1030.0
   PAOs       -> AO shells       343.0

Calculating integrals (205.0 sec, 37370.165 MB)
Finished
-----------------------------
LOCAL RI TRANSFORMATION (IJV)
-----------------------------

Orbital window:      29 to 76
Basis functions:   1025 (343 shells)
Aux. functions:    2424 (644 shells)

Processing maps (0.0 sec)
Average map sizes:
   Aux shells -> MOs(i)           46.2
   Aux shells -> MOs(j)           48.0
   MOs        -> AO shells       338.4

Calculating integrals (25.3 sec, 41.179 MB)
Sorting integrals (0.3 sec, 41.152 MB)
Total time for the integral transformation: 25.7 sec


-------------------------------------
Pair Pair Term precalculation with     
RI-(ij|mn) and (im|jn) transformation  
ON THE FLY                             
-------------------------------------

   IBatch   1 (of   2)              ... done ( 1312.329 sec)
   IBatch   2 (of   2)              ... done ( 1269.832 sec)
Total EXT                           ...        2582.161 sec

---------------------
RI-PNO TRANSFORMATION
---------------------

Total Number of PNOs                   ... 35070
Total Number of IJ-PNOs                ... 30862
Total Number of IP-PNOs                ...  3258
Total Number of PQ-PNOs                ...   950
Total Number of IJ-pairs               ...   965
Total Number of PI-pairs               ...   121
Total Number of PQ-pairs               ...    25
Average number of PNOs per pair        ...    31
Maximal number of PNOs per pair        ...    86
>> Statistics for ij-pairs..
   #pairs with  1 -  5 PNOs   :    0
   #pairs with  6 - 10 PNOs   :    0
   #pairs with 11 - 15 PNOs   :   34
   #pairs with 16 - 20 PNOs   :  238
   #pairs with 21 - 25 PNOs   :  158
   #pairs with 26 - 30 PNOs   :  172
   #pairs with 31 - 35 PNOs   :   64
   #pairs with 36 - 40 PNOs   :   50
   #pairs with 41 - 45 PNOs   :   52
   #pairs with 46 - 50 PNOs   :   23
   #pairs with 51 - 55 PNOs   :   37
   #pairs with 56 - 60 PNOs   :   51
   #pairs with 61 - 65 PNOs   :   75
   #pairs with 66 - 70 PNOs   :    8
   #pairs with 71 - 75 PNOs   :    1
   #pairs with 76 - 80 PNOs   :    2
>> Statistics for ip-pairs..
   #pairs with  1 -  5 PNOs   :    0
   #pairs with  6 - 10 PNOs   :    3
   #pairs with 11 - 15 PNOs   :   17
   #pairs with 16 - 20 PNOs   :    4
   #pairs with 21 - 25 PNOs   :   26
   #pairs with 26 - 30 PNOs   :   12
   #pairs with 31 - 35 PNOs   :   48
   #pairs with 36 - 40 PNOs   :   11
   #pairs with 41 - 45 PNOs   :    0
   #pairs with 46 - 50 PNOs   :    0
>> Statistics for pq-pairs..
   #pairs with  1 -  5 PNOs   :    0
   #pairs with  6 - 10 PNOs   :    0
   #pairs with 11 - 15 PNOs   :    0
   #pairs with 16 - 20 PNOs   :    0
   #pairs with 21 - 25 PNOs   :   12
   #pairs with 26 - 30 PNOs   :    8
   #pairs with 31 - 35 PNOs   :    0
   #pairs with 36 - 40 PNOs   :    0
   #pairs with 41 - 45 PNOs   :    0
   #pairs with 46 - 50 PNOs   :    0
   #pairs with 86 - 90 PNOs   :    5

Generation of (ij|ab)[P] integrals            ... on
Generation of (ia|bc)[P],(ja|bc)[P] integrals ... on
Storage of 3 and 4 external integrals         ... on
Generation of ALL (ka|bc)[P] integrals        ... on
Keep RI integrals in memory                   ... off

Ibatch:  1 (of  1)
Starting 2-4 index PNO integral generation ... done

Timings:
Total PNO integral transformation time     ...       2170.669 sec
Size of the 3-external file                ...       293 MB
Size of the 4-external file                ...      1998 MB
Size of the IKJL file                      ...        18 MB
Size of the all 3-external file            ...      7053 MB
Size of the 1-external file                ...        22 MB

Size of the PAO/PNO coefficient matrices   ...     227.8 MB

Making pair/pair overlap matrices          ... done (  373.419 sec)
Size of the pair overlap file              ...    2507.0 MB
Total # unrestricted pairs ...       2139
  # of alpha-alpha pairs   ...        592
  # of alpha-beta pairs    ...       1086
  # of beta-beta pairs     ...        461
Constructing the guess amplitudes          ... done (    0.649 sec)

-------------------------
FINAL STARTUP INFORMATION
-------------------------

E(0)                                       ...  -3028.425004696
E(SL-UMP2 in NEV-PNO space)                ...     -2.694092141
Initial E(tot)                             ...  -3031.119096837
<T|T>                                      ...      0.535647573
Number of unrestricted pairs included      ... 2139
Total number of pairs                      ... 4095
----------------------------------------------------------
                     OPEN-SHELL COUPLED CLUSTER ITERATIONS
----------------------------------------------------------

Number of PNO amplitudes to be optimized        ...          2171375
Number of canonical amplitudes for strong pairs ...       1931943784
Untruncated number of canonical amplitudes      ...       3698645738

Iter       E(tot)           E(Corr)          Delta-E          Residual     Time
  0  -3031.126268084     -2.665398774      0.028693367      0.021545672 2084.60
                           *** Turning on DIIS ***
  1  -3031.237694193     -2.776824883     -0.111426109      0.009176969 2120.24
  2  -3031.301799815     -2.840930504     -0.064105621      0.008540816 2187.77
  3  -3031.322693443     -2.861824133     -0.020893629      0.003277435 2226.97
  4  -3031.329758958     -2.868889647     -0.007065515      0.002713860 2173.47
  5  -3031.333471719     -2.872602409     -0.003712761      0.001957359 2181.28
  6  -3031.334835420     -2.873966109     -0.001363701      0.000943744 2149.60
  7  -3031.335616046     -2.874746735     -0.000780626      0.000437129 2171.99
  8  -3031.335771736     -2.874902425     -0.000155690      0.000198767 2187.74
  9  -3031.335818929     -2.874949619     -0.000047194      0.000143392 2186.58
 10  -3031.335815023     -2.874945712      0.000003906      0.000082466 2176.04
 11  -3031.335825037     -2.874955726     -0.000010014      0.000070304 2162.92
 12  -3031.335831124     -2.874961814     -0.000006087      0.000033234 2139.61
 13  -3031.335833369     -2.874964059     -0.000002245      0.000019454 2016.66
 14  -3031.335833972     -2.874964662     -0.000000603      0.000010254 1781.19
 15  -3031.335832999     -2.874963688      0.000000973      0.000005284 1783.86
               --- The CCSD iterations have converged ---

E(0)                                       ...  -3028.425004696
E(CORR)(strong-pairs)                      ...     -2.874963688
E(CORR)(weak-pairs)                        ...     -0.035864614
E(CORR)(corrected)                         ...     -2.910828303
E(TOT)                                     ...  -3031.335832999
Singles norm <S|S>**1/2                    ...      0.194892800 ( 0.068216186, 0.126676613)  
T1 diagnostic                              ...      0.020430317                              
<S**2>(linearized)                         ...      8.7507529 (ideal value:      8.7500000)

----------------------
LARGEST PNO AMPLITUDES
----------------------
  71a-> 77a  71b-> 77b       0.062889
  50b-> 73b  -1b-> -1b       0.056014
  71a-> 78a  71b-> 78b       0.051861
  51b-> 73b  -1b-> -1b       0.049397
  48b-> 72b  -1b-> -1b       0.049354
  48b-> 74b  -1b-> -1b       0.045731
  62a-> 77a  62b-> 77b       0.045152
  66a-> 77a  66b-> 77b       0.044356
  48b-> 75b  -1b-> -1b       0.043612
  68a-> 77a  68b-> 77b       0.043581
  70a-> 77a  70b-> 77b       0.043144
  58a-> 77a  58b-> 77b       0.043075
  61a-> 77a  61b-> 77b       0.042577
  53a-> 77a  53b-> 77b       0.042540
  57a-> 78a  57b-> 78b       0.041953
  60a-> 77a  60b-> 77b       0.041878

Total # unrestricted pairs ...       1134
  # of alpha-alpha pairs   ...        315
  # of alpha-beta pairs    ...        567
  # of beta-beta pairs     ...        252

-------------------------------------------
DLPNO BASED TRIPLES CORRECTION
-------------------------------------------

Singles multiplier          ...  1.000000
Fragment selection                          .... not used
TCutTNO                     ... 1.000e-09
TCutMP2Pairs                ... 1.000e-05
TCutDOStrong                ... 2.000e-02
TCutMKNStrong               ... 1.000e-02
TCutDOWeak                  ... 4.000e-02
TCutMKNWeak                 ... 1.000e-01
NTCutTNO                    ... 1

Number of Triples that are to be computed         ...     33864

 . . . . . . . . .
10% done  
20% done  
30% done  
40% done  
50% done  
60% done  
70% done  
80% done  
90% done  
          Batch   1   done (  18330.109 sec)

Triples-Correction TCutTNO=   1.000e-09 (NWeakPairs = 0  1  2  3)  -0.118050010161   -0.001830700825    0.000000000000    0.000000000000
Triples-Correction  -0.119880710986

Triples timings:
Total time                      ... 19008.998 sec

Triples List generation         ...     0.000 sec
TNO generation                  ...   678.384 sec
Pair density generation         ...     0.086 sec
Look up tables                  ...     0.114 sec
Generating 3-index integrals    ... 12616.915 sec
Make 4-ind.int. from 3-ind.int  ...     3.789 sec
Projecting amplitudes (D + S)   ...  5439.819 sec
Sorting integrals for spin cases...    56.163 sec
Calculate W0/W1                 ...   174.333 sec
Energy contr. (sum over a,b,c)  ...    39.150 sec

Everything after 3-index        ...  5855.754 sec

Energy contribution AAA         ...    26.432 sec
Energy contribution AAB         ...   119.133 sec
Energy contribution ABB         ...   109.296 sec
Energy contribution BBB         ...    14.820 sec
prep                ...     3.525 sec
makeTTNO            ...  5383.270 sec
copyij              ...     0.135 sec
copyil              ...     4.284 sec
transposeij         ...     0.081 sec
newMatInDoubleProj  ...    51.452 sec
BlasInDoubleProj    ...  2996.799 sec
ProjSingles         ...    46.032 sec
ProjDoubles         ...  5393.787 sec
overall Doubles for projection      ... 3047279
used Doubles for projection         ... 3047279


Number of Triples   (0, 1, 2, 3 weak pairs; overall):  16966   11093       0       0  ( 28059)
Number of Atoms     (0, 1, 2, 3 weak pairs; overall):   19.9    15.2     0.0     0.0  (    29)
Number of PAOs      (0, 1, 2, 3 weak pairs; overall):  769.4   606.4     0.0     0.0  (  1025)
Number of AuxFcns   (0, 1, 2, 3 weak pairs; overall):  952.6   578.2     0.0     0.0  (  2424)
Number of TNOs (0, 1, 2, 3 weak pairs         ):   80.1    57.8     0.0     0.0
Aver. Number of NTNO, Atoms, PAOs, AuxFcns / Triples:  28059    71.3    18.0   704.9   804.6

Triples Correction (T)                     ...     -0.119880711
    alpha-alpha-alpha ... -0.003959828 (  3.3%)
    alpha-alpha-beta  ... -0.056264752 ( 46.9%)
    alpha-beta -beta  ... -0.055490214 ( 46.3%)
    beta -beta -beta  ... -0.004165917 (  3.5%)
Final correlation energy                   ...     -3.030709014
E(CCSD)                                    ...  -3031.335832999
E(CCSD(T))                                 ...  -3031.455713710

----------------------------
STATISTICS FOR PAIR-ENERGIES
----------------------------
Minimum, maximum and average ratios of UMP and CCSD pair-energies ... 0.52, 1.42, 1.02


------------------------------------------------------------------------------- 
                                     TIMINGS                                   
------------------------------------------------------------------------------- 


Total execution time                   ...    61397.460 sec

Localization of occupied MO's          ...       10.450 sec (  0.0%)
Fock Matrix Formation                  ...     1370.908 sec (  2.2%)
Differential overlap integrals         ...        1.508 sec (  0.0%)
Organizing maps                        ...        1.710 sec (  0.0%)
RI 3-index integral generations        ...      296.159 sec (  0.5%)
RI-PNO integral transformation         ...     5425.669 sec (  8.8%)
Initial Guess                          ...     1845.978 sec (  3.0%)
DIIS Solver                            ...       19.469 sec (  0.0%)
State Vector Update                    ...        0.809 sec (  0.0%)
Sigma-vector construction              ...    33730.523 sec ( 54.9%)
  <0|H|D>                              ...        0.033 sec (  0.0% of sigma)
  <D|H|D>(0-ext)                       ...     6380.069 sec ( 18.9% of sigma)
  <D|H|D>(2-ext Fock)                  ...        1.893 sec (  0.0% of sigma)
  <D|H|D>(2-ext)                       ...     4846.646 sec ( 14.4% of sigma)
  <D|H|D>(4-ext)                       ...      165.965 sec (  0.5% of sigma)
  <D|H|D>(4-ext-corr)                  ...     1027.273 sec (  3.0% of sigma)
  CCSD doubles correction              ...      616.427 sec (  1.8% of sigma)
  <S|H|S>                              ...      893.925 sec (  2.7% of sigma)
  <S|H|D>(1-ext)                       ...      307.659 sec (  0.9% of sigma)
  <D|H|S>(1-ext)                       ...        1.535 sec (  0.0% of sigma)
  <S|H|D>(3-ext)                       ...       25.879 sec (  0.1% of sigma)
  CCSD singles correction              ...        0.005 sec (  0.0% of sigma)
  Fock-dressing                        ...    10205.044 sec ( 30.3% of sigma)
  Singles amplitudes                   ...      128.830 sec (  0.4% of sigma)
  (ik|jl)-dressing                     ...     7103.621 sec ( 21.1% of sigma)
  (ij|ab),(ia|jb)-dressing             ...     1987.098 sec (  5.9% of sigma)
  Pair energies                        ...        0.173 sec (  0.0% of sigma)
Total Time for computing (T)           ...    19042.339 sec ( 31.0% of ALL)


-------------------------   --------------------
FINAL SINGLE POINT ENERGY     -3031.455713710061
-------------------------   --------------------


                            ***************************************
                            *     ORCA property calculations      *
                            ***************************************

                                    ---------------------
                                    Active property flags
                                    ---------------------
   (+) Dipole Moment


------------------------------------------------------------------------------
                       ORCA ELECTRIC PROPERTIES CALCULATION
------------------------------------------------------------------------------

Dipole Moment Calculation                       ... on
Quadrupole Moment Calculation                   ... off
Polarizability Calculation                      ... off
GBWName                                         ... simple-grid-185-265-b3lyp_d3bj-631gd-gas-singlepoint-DLPNO_CCSD_T1-NormalPNO-augtz-gas.gbw
Electron density file                           ... simple-grid-185-265-b3lyp_d3bj-631gd-gas-singlepoint-DLPNO_CCSD_T1-NormalPNO-augtz-gas.scfp.tmp
The origin for moment calculation is the CENTER OF MASS  = ( 0.313845,  0.047358 -0.002293)

-------------
DIPOLE MOMENT
-------------
                                X             Y             Z
Electronic contribution:     41.49226       6.74527      -0.53460
Nuclear contribution   :    -46.76288      -7.05632       0.34173
                        -----------------------------------------
Total Dipole Moment    :     -5.27061      -0.31105      -0.19287
                        -----------------------------------------
Magnitude (a.u.)       :      5.28331
Magnitude (Debye)      :     13.42910



--------------------
Rotational spectrum 
--------------------
 
Rotational constants in cm-1:     0.019448     0.010802     0.010245 
Rotational constants in MHz :   583.046155   323.850163   307.138861 

 Dipole components along the rotational axes: 
x,y,z [a.u.] :    -5.269280     0.286969    -0.256267 
x,y,z [Debye]:   -13.393444     0.729417    -0.651379 

 

Timings for individual modules:

Sum of individual times         ...    83237.519 sec (=1387.292 min)
GTO integral calculation        ...       13.666 sec (=   0.228 min)   0.0 %
SCF iterations                  ...    21808.235 sec (= 363.471 min)  26.2 %
MDCI module                     ...    61415.619 sec (=1023.594 min)  73.8 %
                             ****ORCA TERMINATED NORMALLY****
TOTAL RUN TIME: 0 days 23 hours 7 minutes 20 seconds 416 msec
