
                                 *****************
                                 * O   R   C   A *
                                 *****************

           --- An Ab Initio, DFT and Semiempirical electronic structure package ---

                  #######################################################
                  #                        -***-                        #
                  #          Department of theory and spectroscopy      #
                  #               Directorship: Frank Neese             #
                  #        Max Planck Institute fuer Kohlenforschung    #
                  #                Kaiser Wilhelm Platz 1               #
                  #                 D-45470 Muelheim/Ruhr               #
                  #                      Germany                        #
                  #                                                     #
                  #                  All rights reserved                #
                  #                        -***-                        #
                  #######################################################


                         Program Version 4.1.2  - RELEASE  -


 With contributions from (in alphabetic order):
   Daniel Aravena         : Magnetic Properties
   Michael Atanasov       : Ab Initio Ligand Field Theory
   Alexander A. Auer      : GIAO ZORA
   Ute Becker             : Parallelization
   Giovanni Bistoni       : ED, Open-shell LED
   Martin Brehm           : Molecular dynamics
   Dmytro Bykov           : SCF Hessian
   Vijay G. Chilkuri      : MRCI spin determinant printing
   Dipayan Datta          : RHF DLPNO-CCSD density
   Achintya Kumar Dutta   : EOM-CC, STEOM-CC
   Dmitry Ganyushin       : Spin-Orbit,Spin-Spin,Magnetic field MRCI
   Miquel Garcia          : C-PCM Hessian
   Yang Guo               : DLPNO-NEVPT2, CIM, IAO-localization
   Andreas Hansen         : Spin unrestricted coupled pair/coupled cluster methods
   Benjamin Helmich-Paris : CASSCF linear response (MC-RPA)
   Lee Huntington         : MR-EOM, pCC
   Robert Izsak           : Overlap fitted RIJCOSX, COSX-SCS-MP3, EOM
   Christian Kollmar      : KDIIS, OOCD, Brueckner-CCSD(T), CCSD density
   Simone Kossmann        : Meta GGA functionals, TD-DFT gradient, OOMP2, MP2 Hessian
   Martin Krupicka        : AUTO-CI
   Lucas Lang             : DCDCAS
   Dagmar Lenk            : GEPOL surface, SMD
   Dimitrios Liakos       : Extrapolation schemes; parallel MDCI
   Dimitrios Manganas     : ROCIS; embedding schemes
   Dimitrios Pantazis     : SARC Basis sets
   Taras Petrenko         : DFT Hessian,TD-DFT gradient, ASA, ECA, R-Raman, ABS, FL, XAS/XES, NRVS
   Peter Pinski           : DLPNO-MP2, DLPNO-MP2 Gradient
   Christoph Reimann      : Effective Core Potentials
   Marius Retegan         : Local ZFS, SOC
   Christoph Riplinger    : Optimizer, TS searches, QM/MM, DLPNO-CCSD(T), (RO)-DLPNO pert. Triples
   Tobias Risthaus        : Range-separated hybrids, TD-DFT gradient, RPA, STAB
   Michael Roemelt        : Restricted open shell CIS
   Masaaki Saitow         : Open-shell DLPNO
   Barbara Sandhoefer     : DKH picture change effects
   Avijit Sen             : IP-ROCIS
   Kantharuban Sivalingam : CASSCF convergence, NEVPT2, FIC-MRCI
   Bernardo de Souza      : ESD, SOC TD-DFT
   Georgi Stoychev        : AutoAux, RI-MP2 NMR
   Willem Van den Heuvel  : Paramagnetic NMR
   Boris Wezisla          : Elementary symmetry handling
   Frank Wennmohs         : Technical directorship


 We gratefully acknowledge several colleagues who have allowed us to
 interface, adapt or use parts of their codes:
   Stefan Grimme, W. Hujo, H. Kruse,             : VdW corrections, initial TS optimization,
                  C. Bannwarth                     DFT functionals, gCP, sTDA/sTD-DF
   Ed Valeev                                     : LibInt (2-el integral package), F12 methods
   Garnet Chan, S. Sharma, J. Yang, R. Olivares  : DMRG
   Ulf Ekstrom                                   : XCFun DFT Library
   Mihaly Kallay                                 : mrcc  (arbitrary order and MRCC methods)
   Andreas Klamt, Michael Diedenhofen            : otool_cosmo (COSMO solvation model)
   Jiri Pittner, Ondrej Demel                    : Mk-CCSD
   Frank Weinhold                                : gennbo (NPA and NBO analysis)
   Christopher J. Cramer and Donald G. Truhlar   : smd solvation model
   Lars Goerigk                                  : TD-DFT with DH, B97 family of functionals
   V. Asgeirsson, H. Jonsson                     : NEB implementation
   FAccTs GmbH                                   : IRC, NEB, NEB-TS, Multilevel


 Your calculation uses the libint2 library for the computation of 2-el integrals
 For citations please refer to: http://libint.valeyev.net

 This ORCA versions uses:
   CBLAS   interface :  Fast vector & matrix operations
   LAPACKE interface :  Fast linear algebra routines
   SCALAPACK package :  Parallel linear algebra routines


----- Orbital basis set information -----
Your calculation utilizes the basis: aug-cc-pVTZ 
    H, B-Ne : Obtained from the ccRepo (grant-hill.group.shef.ac.uk/ccrepo) Feb. 2017
              R. A. Kendall, T. H. Dunning, Jr., R. J. Harrison, J. Chem. Phys. 96, 6796 (1992)
         He : Obtained from the ccRepo (grant-hill.group.shef.ac.uk/ccrepo) Feb. 2017
              D. E. Woon, T. H. Dunning, Jr., J. Chem. Phys. 100, 2975 (1994)
  Li-Be, Na : Obtained from the ccRepo (grant-hill.group.shef.ac.uk/ccrepo) Feb. 2017
              B. P. Prascher, D. E. Woon, K. A. Peterson, T. H. Dunning, Jr., A. K. Wilson, Theor. Chem. Acc. 128, 69 (2011)
         Mg : Obtained from the Peterson Research Group Website (tyr0.chem.wsu.edu/~kipeters) Feb. 2017
              B. P. Prascher, D. E. Woon, K. A. Peterson, T. H. Dunning, Jr., A. K. Wilson, Theor. Chem. Acc. 128, 69 (2011)
      Al-Ar : Obtained from the ccRepo (grant-hill.group.shef.ac.uk/ccrepo) Feb. 2017
              D. E. Woon, T. H. Dunning, Jr., J. Chem. Phys. 98, 1358 (1993)
      Sc-Zn : Obtained from the ccRepo (grant-hill.group.shef.ac.uk/ccrepo) Feb. 2017
              N. B. Balabanov, K. A. Peterson, J. Chem. Phys. 123, 064107 (2005)
              N. B. Balabanov, K. A. Peterson, J. Chem. Phys. 125, 074110 (2006)
      Ga-Kr : Obtained from the ccRepo (grant-hill.group.shef.ac.uk/ccrepo) Feb. 2017
              A. K. Wilson, D. E. Woon, K. A. Peterson, T. H. Dunning, Jr., J. Chem. Phys. 110, 7667 (1999)
     Ag, Au : Obtained from the Peterson Research Group Website (tyr0.chem.wsu.edu/~kipeters) Feb. 2017
              K. A. Peterson, C. Puzzarini, Theor. Chem. Acc. 114, 283 (2005)

----- AuxJ basis set information -----
Your calculation utilizes the AutoAux generation procedure.
  G. L. Stoychev, A. A. Auer, F. Neese, J. Chem. Theory Comput. 13, 554 (2017)

----- AuxC basis set information -----
Your calculation utilizes the auxiliary basis: aug-cc-pVTZ/C 
  H-He, B-F, Al-Ar, Ga-Kr : Obtained from the EMSL Basis Set Exchange (bse.pnl.gov) Feb. 2017
                            F. Weigend, A. Kohn, C. Hattig, J. Chem. Phys. 116, 3175 (2002)
                   Be, Mg : Obtained from the TURBOMOLE 7.0 basis set library
                            C. Haettig, Phys. Chem. Chem. Phys. 7, 59 (2005)
                       Ne : Obtained from the EMSL Basis Set Exchange (bse.pnl.gov) Feb. 2017
                            C. Haettig, Phys. Chem. Chem. Phys. 7, 59 (2005)
                            F. Weigend, A. Kohn, C. Hattig, J. Chem. Phys. 116, 3175 (2002)
                    Sc-Zn : Obtained from the EMSL Basis Set Exchange (bse.pnl.gov) Feb. 2017
                            J. G. Hill, J. A. Platts, J. Chem. Phys. 128, 044104 (2008)

----- AuxJK basis set information -----
Your calculation utilizes the AutoAux generation procedure.
  G. L. Stoychev, A. A. Auer, F. Neese, J. Chem. Theory Comput. 13, 554 (2017)

================================================================================
                                        WARNINGS
                       Please study these warnings very carefully!
================================================================================


WARNING: your system is open-shell and RHF/RKS was chosen
  ===> : WILL SWITCH to UHF/UKS


WARNING: MDCI localization with Augmented Hessian Foster-Boys
  ===> : Switching off randomization!

WARNING: Post HF methods need fully converged wavefunctions
  ===> : Setting SCFConvForced true
         You can overwrite this default with %scf ConvForced false 


INFO   : the flag for use of LIBINT has been found!

================================================================================
                                       INPUT FILE
================================================================================
NAME = simple-grid-200-280-b3lyp_d3bj-631gd-gas-singlepoint-DLPNO_CCSD_T1-NormalPNO-augtz-gas.inp
|  1> ! aug-cc-pVTZ aug-cc-pVTZ/C DLPNO-CCSD(T1) TightSCF NormalPNO UNO MiniPrint AutoAux
|  2> %pal nproc 10 end
|  3> %maxcore 20000
|  4> %mdci
|  5>      density none
|  6> end
|  7> 
|  8> * xyz 0 6
|  9>  O     -0.32537100     -0.15721200     -0.47990400
| 10>  C     -1.17818200     -1.12046500     -0.28939300
| 11>  C     -2.64867200     -0.31687800      0.80235300
| 12>  C     -2.95186400      0.72015600     -0.06539900
| 13>  C     -3.98687900      0.57833400     -1.13195400
| 14> Fe      1.50449900      0.17586200     -0.08586300
| 15> Cl      1.82511400      2.16347000     -0.95628000
| 16>  C     -2.19795400      1.99309700     -0.02357200
| 17> Cl      2.55399000     -1.49742900     -1.04812000
| 18> Cl      1.75172500      0.16798200      2.10709400
| 19>  H     -3.33275900     -1.16467000      0.77037900
| 20>  H     -2.64649800      2.77149200     -0.64442100
| 21>  H     -2.04552400      2.36323300      0.99417300
| 22>  H     -1.18945600      1.76769600     -0.41895100
| 23>  H     -4.80688700      1.27433500     -0.90366900
| 24>  H     -3.59498500      0.88281100     -2.11051400
| 25>  H     -4.40204700     -0.42890900     -1.19786600
| 26>  C     -2.02187600     -0.02485700      2.15438100
| 27>  H     -2.64122600      0.69294300      2.70456800
| 28>  H     -1.95552400     -0.93074800      2.75882000
| 29>  H     -1.01714500      0.39504800      2.06602600
| 30>  C     -0.75623900     -2.22447200      0.67143600
| 31>  H     -1.58378600     -2.88637200      0.93760600
| 32>  H     -0.00099600     -2.81038500      0.13155500
| 33>  H     -0.28124500     -1.82918800      1.56834500
| 34>  C     -1.82371800     -1.64293400     -1.56172100
| 35>  H     -1.07214900     -2.27406500     -2.05108300
| 36>  H     -2.70825300     -2.25466600     -1.36598200
| 37>  H     -2.06732100     -0.83355000     -2.24990200
| 38> *
| 39> 
| 40> 
| 41>                          ****END OF INPUT****
================================================================================

                       ****************************
                       * Single Point Calculation *
                       ****************************

---------------------------------
CARTESIAN COORDINATES (ANGSTROEM)
---------------------------------
  O     -0.325371   -0.157212   -0.479904
  C     -1.178182   -1.120465   -0.289393
  C     -2.648672   -0.316878    0.802353
  C     -2.951864    0.720156   -0.065399
  C     -3.986879    0.578334   -1.131954
  Fe     1.504499    0.175862   -0.085863
  Cl     1.825114    2.163470   -0.956280
  C     -2.197954    1.993097   -0.023572
  Cl     2.553990   -1.497429   -1.048120
  Cl     1.751725    0.167982    2.107094
  H     -3.332759   -1.164670    0.770379
  H     -2.646498    2.771492   -0.644421
  H     -2.045524    2.363233    0.994173
  H     -1.189456    1.767696   -0.418951
  H     -4.806887    1.274335   -0.903669
  H     -3.594985    0.882811   -2.110514
  H     -4.402047   -0.428909   -1.197866
  C     -2.021876   -0.024857    2.154381
  H     -2.641226    0.692943    2.704568
  H     -1.955524   -0.930748    2.758820
  H     -1.017145    0.395048    2.066026
  C     -0.756239   -2.224472    0.671436
  H     -1.583786   -2.886372    0.937606
  H     -0.000996   -2.810385    0.131555
  H     -0.281245   -1.829188    1.568345
  C     -1.823718   -1.642934   -1.561721
  H     -1.072149   -2.274065   -2.051083
  H     -2.708253   -2.254666   -1.365982
  H     -2.067321   -0.833550   -2.249902

----------------------------
CARTESIAN COORDINATES (A.U.)
----------------------------
  NO LB      ZA    FRAG     MASS         X           Y           Z
   0 O     8.0000    0    15.999   -0.614862   -0.297088   -0.906887
   1 C     6.0000    0    12.011   -2.226441   -2.117372   -0.546874
   2 C     6.0000    0    12.011   -5.005265   -0.598813    1.516227
   3 C     6.0000    0    12.011   -5.578215    1.360898   -0.123586
   4 C     6.0000    0    12.011   -7.534109    1.092893   -2.139083
   5 Fe   26.0000    0    55.850    2.843091    0.332331   -0.162258
   6 Cl   17.0000    0    35.453    3.448966    4.088366   -1.807107
   7 C     6.0000    0    12.011   -4.153531    3.766407   -0.044545
   8 Cl   17.0000    0    35.453    4.826342   -2.829731   -1.980660
   9 Cl   17.0000    0    35.453    3.310281    0.317440    3.981831
  10 H     1.0000    0     1.008   -6.298002   -2.200907    1.455805
  11 H     1.0000    0     1.008   -5.001156    5.237361   -1.217779
  12 H     1.0000    0     1.008   -3.865480    4.465863    1.878715
  13 H     1.0000    0     1.008   -2.247746    3.340461   -0.791703
  14 H     1.0000    0     1.008   -9.083700    2.408144   -1.707687
  15 H     1.0000    0     1.008   -6.793537    1.668271   -3.988293
  16 H     1.0000    0     1.008   -8.318663   -0.810521   -2.263639
  17 C     6.0000    0    12.011   -3.820792   -0.046973    4.071190
  18 H     1.0000    0     1.008   -4.991194    1.309472    5.110893
  19 H     1.0000    0     1.008   -3.695405   -1.758859    5.213414
  20 H     1.0000    0     1.008   -1.922125    0.746533    3.904223
  21 C     6.0000    0    12.011   -1.429085   -4.203643    1.268830
  22 H     1.0000    0     1.008   -2.992922   -5.454453    1.771819
  23 H     1.0000    0     1.008   -0.001882   -5.310858    0.248603
  24 H     1.0000    0     1.008   -0.531476   -3.456664    2.963743
  25 C     6.0000    0    12.011   -3.446328   -3.104695   -2.951225
  26 H     1.0000    0     1.008   -2.026068   -4.297360   -3.875985
  27 H     1.0000    0     1.008   -5.117856   -4.260701   -2.581332
  28 H     1.0000    0     1.008   -3.906671   -1.575181   -4.251699



           ************************************************************
           *        Program running with 10 parallel MPI-processes    *
           *              working on a common directory               *
           ************************************************************


           ************************************************************
           *        Program running with 10 parallel MPI-processes    *
           *              working on a common directory               *
           ************************************************************

Diagonalization of the overlap matrix:
Smallest eigenvalue                        ... 6.534e-07
Time for diagonalization                   ...    0.375 sec
Threshold for overlap eigenvalues          ... 1.000e-08
Number of eigenvalues below threshold      ... 0
Time for construction of square roots      ...    0.519 sec
Total time needed                          ...    0.900 sec

-------------------
DFT GRID GENERATION
-------------------

General Integration Accuracy     IntAcc      ...  4.340
Radial Grid Type                 RadialGrid  ... Gauss-Chebyshev
Angular Grid (max. acc.)         AngularGrid ... Lebedev-110
Angular grid pruning method      GridPruning ... 3 (G Style)
Weight generation scheme         WeightScheme... Becke
Basis function cutoff            BFCut       ...    1.0000e-11
Integration weight cutoff        WCut        ...    1.0000e-14
Grids for H and He will be reduced by one unit

# of grid points (after initial pruning)     ...  36112 (   0.0 sec)
# of grid points (after weights+screening)   ...  32325 (   0.1 sec)
nearest neighbour list constructed           ...    0.0 sec
Grid point re-assignment to atoms done       ...    0.0 sec
Grid point division into batches done        ...    0.0 sec
Reduced shell lists constructed in    0.3 sec

Total number of grid points                  ...    32325
Total number of batches                      ...      522
Average number of points per batch           ...       61
Average number of grid points per atom       ...     1115
Average number of shells per batch           ...   292.46 (85.27%)
Average number of basis functions per batch  ...   869.72 (84.85%)
Average number of large shells per batch     ...   239.91 (82.03%)
Average number of large basis fcns per batch ...   713.35 (82.02%)
Maximum spatial batch extension              ...   3.32,  3.58,  3.46 au
Average spatial batch extension              ...   0.18,  0.17,  0.17 au

Time for grid setup =    0.406 sec

Loading Hartree-Fock densities                     ... done
Calculating cut-offs                               ... done
Setting up the integral package                    ... done
Initializing the effective Hamiltonian             ... done
Starting the Coulomb interaction                   ... done (   1.1 sec)
Reading the grid                                   ... done
Mapping shells                                     ... done
Starting the XC term evaluation                    ... done (   0.9 sec)
Transforming the Hamiltonian                       ... done (   0.2 sec)
Diagonalizing the Hamiltonian                      ... done (   0.4 sec)
Back transforming the eigenvectors                 ... done (   0.1 sec)
Now organizing SCF variables                       ... done
--------------
SCF ITERATIONS
--------------
ITER       Energy         Delta-E        Max-DP      RMS-DP      [F,P]     Damp
               ***  Starting incremental Fock matrix formation  ***
  0  -3027.5678390422   0.000000000000 0.32438384  0.00111460  0.2722220 0.7000
  1  -3027.8170211106  -0.249182068473 0.24375860  0.00087369  0.1614187 0.7000
                               ***Turning on DIIS***
  2  -3027.9845990934  -0.167577982770 0.17170071  0.00064244  0.1095501 0.7000
  3  -3029.6088234213  -1.624224327908 0.37490838  0.00159812  0.0821298 0.0000
  4  -3028.2894068551   1.319416566263 0.04743344  0.00021613  0.0205526 0.0000
  5  -3028.4041570710  -0.114750215945 0.03919569  0.00016931  0.0118218 0.0000
  6  -3028.4462286649  -0.042071593922 0.02084047  0.00007077  0.0054360 0.0000
  7  -3028.4617581296  -0.015529464657 0.00855016  0.00003303  0.0034908 0.0000
  8  -3028.4516548080   0.010103321582 0.00570533  0.00001890  0.0015420 0.0000
  9  -3028.4468378728   0.004816935236 0.00332091  0.00001147  0.0007353 0.0000
 10  -3028.4359523450   0.010885527801 0.00085196  0.00000317  0.0003545 0.0000
 11  -3028.4406632385  -0.004710893496 0.00049160  0.00000182  0.0000874 0.0000
 12  -3028.4380655172   0.002597721203 0.00025159  0.00000126  0.0000228 0.0000
 13  -3028.4383143880  -0.000248870759 0.00042967  0.00000124  0.0000124 0.0000
 14  -3028.4384288500  -0.000114462037 0.00021212  0.00000135  0.0000053 0.0000
 15  -3028.4383292301   0.000099619992 0.00140563  0.00000243  0.0000025 0.0000
 16  -3028.4383773921  -0.000048162086 0.00026934  0.00000137  0.0000022 0.0000
 17  -3028.4383754733   0.000001918795 0.00145770  0.00000256  0.0000021 0.0000
 18  -3028.4383561532   0.000019320166 0.00156016  0.00000341  0.0000020 0.0000
 19  -3028.4383471042   0.000009048967 0.00254843  0.00000484  0.0000018 0.0000
               *** Restarting incremental Fock matrix formation ***
                                   *** Resetting DIIS ***
 20  -3028.4383740501  -0.000026945840 0.00678945  0.00001208  0.0000015 0.0000
 21  -3028.4383758800  -0.000001829980 0.00097780  0.00000180  0.0000014 0.0000
 22  -3028.4383707696   0.000005110443 0.00171202  0.00000331  0.0000014 0.0000
 23  -3028.4383720915  -0.000001321880 0.00206532  0.00000378  0.0000013 0.0000
 24  -3028.4383714983   0.000000593125 0.00254289  0.00000523  0.0000013 0.0000
 25  -3028.4383699109   0.000001587433 0.00268411  0.00000565  0.0000012 0.0000
                            ***DIIS convergence achieved***

               *****************************************************
               *                     SUCCESS                       *
               *           SCF CONVERGED AFTER  26 CYCLES          *
               *****************************************************

Total Energy       :        -3028.43836725 Eh          -82407.99751 eV
  Last Energy change         ...    2.6640e-06  Tolerance :   1.0000e-08
  Last MAX-Density change    ...    4.5152e-04  Tolerance :   1.0000e-07
             **** THE GBW FILE WAS UPDATED (simple-grid-200-280-b3lyp_d3bj-631gd-gas-singlepoint-DLPNO_CCSD_T1-NormalPNO-augtz-gas.gbw) ****
             **** DENSITY FILE WAS UPDATED (simple-grid-200-280-b3lyp_d3bj-631gd-gas-singlepoint-DLPNO_CCSD_T1-NormalPNO-augtz-gas.scfp.tmp) ****
             **** ENERGY FILE WAS UPDATED (simple-grid-200-280-b3lyp_d3bj-631gd-gas-singlepoint-DLPNO_CCSD_T1-NormalPNO-augtz-gas.en.tmp) ****
----------------------
UHF SPIN CONTAMINATION
----------------------

Expectation value of <S**2>     :     8.765081
Ideal value S*(S+1) for S=2.5   :     8.750000
Deviation                       :     0.015081

----------------
ORBITAL ENERGIES
----------------
                 SPIN UP ORBITALS
  NO   OCC          E(Eh)            E(eV) 
   0   1.0000    -261.554027     -7117.2469 
   1   1.0000    -104.777703     -2851.1462 
   2   1.0000    -104.774986     -2851.0723 
   3   1.0000    -104.774804     -2851.0674 
   4   1.0000     -32.221897      -876.8024 
   5   1.0000     -27.698041      -753.7020 
   6   1.0000     -27.697429      -753.6853 
   7   1.0000     -27.697268      -753.6810 
   8   1.0000     -20.568424      -559.6953 
   9   1.0000     -11.391902      -309.9894 
  10   1.0000     -11.344607      -308.7024 
  11   1.0000     -11.281832      -306.9943 
  12   1.0000     -11.275620      -306.8252 
  13   1.0000     -11.259442      -306.3850 
  14   1.0000     -11.258874      -306.3695 
  15   1.0000     -11.253290      -306.2176 
  16   1.0000     -11.247877      -306.0703 
  17   1.0000     -10.504340      -285.8376 
  18   1.0000     -10.501614      -285.7634 
  19   1.0000     -10.501397      -285.7575 
  20   1.0000      -7.971200      -216.9074 
  21   1.0000      -7.970391      -216.8854 
  22   1.0000      -7.970359      -216.8845 
  23   1.0000      -7.968472      -216.8331 
  24   1.0000      -7.968214      -216.8261 
  25   1.0000      -7.967714      -216.8125 
  26   1.0000      -7.967634      -216.8103 
  27   1.0000      -7.967516      -216.8071 
  28   1.0000      -7.967426      -216.8047 
  29   1.0000      -4.577190      -124.5517 
  30   1.0000      -3.190022       -86.8049 
  31   1.0000      -3.189021       -86.7777 
  32   1.0000      -3.188653       -86.7677 
  33   1.0000      -1.410397       -38.3789 
  34   1.0000      -1.173554       -31.9340 
  35   1.0000      -1.082321       -29.4515 
  36   1.0000      -1.049420       -28.5562 
  37   1.0000      -1.044532       -28.4232 
  38   1.0000      -1.041952       -28.3529 
  39   1.0000      -1.041570       -28.3426 
  40   1.0000      -0.998088       -27.1594 
  41   1.0000      -0.985751       -26.8236 
  42   1.0000      -0.925812       -25.1926 
  43   1.0000      -0.918770       -25.0010 
  44   1.0000      -0.906524       -24.6678 
  45   1.0000      -0.906489       -24.6668 
  46   1.0000      -0.896983       -24.4081 
  47   1.0000      -0.896590       -24.3975 
  48   1.0000      -0.791573       -21.5398 
  49   1.0000      -0.764093       -20.7920 
  50   1.0000      -0.693537       -18.8721 
  51   1.0000      -0.688953       -18.7474 
  52   1.0000      -0.673888       -18.3374 
  53   1.0000      -0.667919       -18.1750 
  54   1.0000      -0.652539       -17.7565 
  55   1.0000      -0.626311       -17.0428 
  56   1.0000      -0.602707       -16.4005 
  57   1.0000      -0.596228       -16.2242 
  58   1.0000      -0.587410       -15.9842 
  59   1.0000      -0.577481       -15.7141 
  60   1.0000      -0.571295       -15.5457 
  61   1.0000      -0.567261       -15.4360 
  62   1.0000      -0.557676       -15.1751 
  63   1.0000      -0.543974       -14.8023 
  64   1.0000      -0.533077       -14.5058 
  65   1.0000      -0.524479       -14.2718 
  66   1.0000      -0.514395       -13.9974 
  67   1.0000      -0.478348       -13.0165 
  68   1.0000      -0.463643       -12.6164 
  69   1.0000      -0.454357       -12.3637 
  70   1.0000      -0.430475       -11.7138 
  71   1.0000      -0.426999       -11.6192 
  72   1.0000      -0.424164       -11.5421 
  73   1.0000      -0.415957       -11.3188 
  74   1.0000      -0.414153       -11.2697 
  75   1.0000      -0.413665       -11.2564 
  76   1.0000      -0.388282       -10.5657 
  77   0.0000       0.007548         0.2054 
  78   0.0000       0.019523         0.5312 
  79   0.0000       0.020461         0.5568 
  80   0.0000       0.023321         0.6346 
  81   0.0000       0.030851         0.8395 
  82   0.0000       0.039219         1.0672 
  83   0.0000       0.039836         1.0840 
  84   0.0000       0.042035         1.1438 
  85   0.0000       0.045000         1.2245 
  86   0.0000       0.046634         1.2690 
  87   0.0000       0.057586         1.5670 
  88   0.0000       0.057935         1.5765 
  89   0.0000       0.061185         1.6649 
  90   0.0000       0.062529         1.7015 
  91   0.0000       0.064447         1.7537 
  92   0.0000       0.072745         1.9795 
  93   0.0000       0.075114         2.0439 
  94   0.0000       0.082856         2.2546 
  95   0.0000       0.088603         2.4110 
  96   0.0000       0.091116         2.4794 
  97   0.0000       0.092229         2.5097 
  98   0.0000       0.095954         2.6110 
  99   0.0000       0.098188         2.6718 
 100   0.0000       0.103064         2.8045 
 101   0.0000       0.106001         2.8844 
 102   0.0000       0.115701         3.1484 
 103   0.0000       0.117771         3.2047 
 104   0.0000       0.121738         3.3127 
 105   0.0000       0.123520         3.3612 
 106   0.0000       0.125253         3.4083 
 107   0.0000       0.130866         3.5610 
 108   0.0000       0.132299         3.6000 
 109   0.0000       0.135768         3.6944 
 110   0.0000       0.136465         3.7134 
 111   0.0000       0.140404         3.8206 
 112   0.0000       0.145126         3.9491 
 113   0.0000       0.150674         4.1001 
 114   0.0000       0.151769         4.1298 
 115   0.0000       0.156275         4.2525 
 116   0.0000       0.157488         4.2855 
 117   0.0000       0.159584         4.3425 
 118   0.0000       0.161694         4.3999 
 119   0.0000       0.163731         4.4554 
 120   0.0000       0.167359         4.5541 
 121   0.0000       0.171181         4.6581 
 122   0.0000       0.173965         4.7338 
 123   0.0000       0.177738         4.8365 
 124   0.0000       0.178761         4.8643 
 125   0.0000       0.180833         4.9207 
 126   0.0000       0.186991         5.0883 
 127   0.0000       0.189064         5.1447 
 128   0.0000       0.195415         5.3175 
 129   0.0000       0.200520         5.4564 
 130   0.0000       0.202730         5.5166 
 131   0.0000       0.205184         5.5833 
 132   0.0000       0.209550         5.7021 
 133   0.0000       0.212162         5.7732 
 134   0.0000       0.216049         5.8790 
 135   0.0000       0.218477         5.9451 
 136   0.0000       0.219581         5.9751 
 137   0.0000       0.223625         6.0852 
 138   0.0000       0.226021         6.1503 
 139   0.0000       0.227323         6.1858 
 140   0.0000       0.230298         6.2667 
 141   0.0000       0.235092         6.3972 
 142   0.0000       0.239207         6.5092 
 143   0.0000       0.243528         6.6267 
 144   0.0000       0.246505         6.7078 
 145   0.0000       0.251969         6.8564 
 146   0.0000       0.252933         6.8826 
 147   0.0000       0.253805         6.9064 
 148   0.0000       0.261044         7.1034 
 149   0.0000       0.263498         7.1702 
 150   0.0000       0.269959         7.3460 
 151   0.0000       0.275378         7.4934 
 152   0.0000       0.277458         7.5500 
 153   0.0000       0.282965         7.6999 
 154   0.0000       0.286254         7.7894 
 155   0.0000       0.291326         7.9274 
 156   0.0000       0.294706         8.0194 
 157   0.0000       0.296153         8.0587 
 158   0.0000       0.298415         8.1203 
 159   0.0000       0.302009         8.2181 
 160   0.0000       0.307131         8.3575 
 161   0.0000       0.312388         8.5005 
 162   0.0000       0.314176         8.5492 
 163   0.0000       0.320576         8.7233 
 164   0.0000       0.326319         8.8796 
 165   0.0000       0.330500         8.9934 
 166   0.0000       0.333628         9.0785 
 167   0.0000       0.334758         9.1092 
 168   0.0000       0.337080         9.1724 
 169   0.0000       0.340591         9.2680 
 170   0.0000       0.342831         9.3289 
 171   0.0000       0.349654         9.5146 
 172   0.0000       0.355305         9.6684 
 173   0.0000       0.357298         9.7226 
 174   0.0000       0.358873         9.7654 
 175   0.0000       0.359716         9.7884 
 176   0.0000       0.364426         9.9165 
 177   0.0000       0.369663        10.0590 
 178   0.0000       0.371563        10.1107 
 179   0.0000       0.374776        10.1982 
 180   0.0000       0.380325        10.3492 
 181   0.0000       0.383097        10.4246 
 182   0.0000       0.383541        10.4367 
 183   0.0000       0.388760        10.5787 
 184   0.0000       0.392931        10.6922 
 185   0.0000       0.393540        10.7088 
 186   0.0000       0.396440        10.7877 
 187   0.0000       0.401725        10.9315 
 188   0.0000       0.402353        10.9486 
 189   0.0000       0.410539        11.1713 
 190   0.0000       0.411912        11.2087 
 191   0.0000       0.413899        11.2628 
 192   0.0000       0.416458        11.3324 
 193   0.0000       0.422644        11.5007 
 194   0.0000       0.425346        11.5742 
 195   0.0000       0.431062        11.7298 
 196   0.0000       0.435906        11.8616 
 197   0.0000       0.436852        11.8873 
 198   0.0000       0.442166        12.0320 
 199   0.0000       0.446827        12.1588 
 200   0.0000       0.447922        12.1886 
 201   0.0000       0.453386        12.3373 
 202   0.0000       0.457124        12.4390 
 203   0.0000       0.461609        12.5610 
 204   0.0000       0.466359        12.6903 
 205   0.0000       0.466853        12.7037 
 206   0.0000       0.470290        12.7973 
 207   0.0000       0.471492        12.8299 
 208   0.0000       0.474496        12.9117 
 209   0.0000       0.478823        13.0294 
 210   0.0000       0.482933        13.1413 
 211   0.0000       0.488570        13.2947 
 212   0.0000       0.490326        13.3425 
 213   0.0000       0.494287        13.4502 
 214   0.0000       0.497696        13.5430 
 215   0.0000       0.499663        13.5965 
 216   0.0000       0.503488        13.7006 
 217   0.0000       0.506324        13.7778 
 218   0.0000       0.508932        13.8488 
 219   0.0000       0.512066        13.9340 
 220   0.0000       0.514343        13.9960 
 221   0.0000       0.517943        14.0939 
 222   0.0000       0.522634        14.2216 
 223   0.0000       0.525010        14.2862 
 224   0.0000       0.527242        14.3470 
 225   0.0000       0.530759        14.4427 
 226   0.0000       0.532730        14.4963 
 227   0.0000       0.537650        14.6302 
 228   0.0000       0.540822        14.7165 
 229   0.0000       0.544069        14.8049 
 230   0.0000       0.546671        14.8757 
 231   0.0000       0.550003        14.9663 
 232   0.0000       0.552940        15.0463 
 233   0.0000       0.558154        15.1881 
 234   0.0000       0.562315        15.3014 
 235   0.0000       0.565402        15.3854 
 236   0.0000       0.570530        15.5249 
 237   0.0000       0.575350        15.6561 
 238   0.0000       0.577102        15.7037 
 239   0.0000       0.580771        15.8036 
 240   0.0000       0.582612        15.8537 
 241   0.0000       0.584727        15.9112 
 242   0.0000       0.587659        15.9910 
 243   0.0000       0.596047        16.2192 
 244   0.0000       0.598956        16.2984 
 245   0.0000       0.600751        16.3473 
 246   0.0000       0.605892        16.4872 
 247   0.0000       0.607807        16.5393 
 248   0.0000       0.612672        16.6717 
 249   0.0000       0.618143        16.8205 
 250   0.0000       0.622152        16.9296 
 251   0.0000       0.624492        16.9933 
 252   0.0000       0.625388        17.0177 
 253   0.0000       0.627067        17.0633 
 254   0.0000       0.635200        17.2847 
 255   0.0000       0.640524        17.4296 
 256   0.0000       0.647865        17.6293 
 257   0.0000       0.651356        17.7243 
 258   0.0000       0.656406        17.8617 
 259   0.0000       0.660105        17.9624 
 260   0.0000       0.662749        18.0343 
 261   0.0000       0.664650        18.0860 
 262   0.0000       0.671599        18.2751 
 263   0.0000       0.678381        18.4597 
 264   0.0000       0.680300        18.5119 
 265   0.0000       0.682033        18.5591 
 266   0.0000       0.686440        18.6790 
 267   0.0000       0.691052        18.8045 
 268   0.0000       0.696938        18.9647 
 269   0.0000       0.698336        19.0027 
 270   0.0000       0.701926        19.1004 
 271   0.0000       0.709981        19.3196 
 272   0.0000       0.712112        19.3776 
 273   0.0000       0.717126        19.5140 
 274   0.0000       0.725062        19.7299 
 275   0.0000       0.729825        19.8596 
 276   0.0000       0.731438        19.9034 
 277   0.0000       0.734349        19.9827 
 278   0.0000       0.738669        20.1002 
 279   0.0000       0.742605        20.2073 
 280   0.0000       0.746756        20.3203 
 281   0.0000       0.750737        20.4286 
 282   0.0000       0.758539        20.6409 
 283   0.0000       0.762895        20.7594 
 284   0.0000       0.774694        21.0805 
 285   0.0000       0.782583        21.2952 
 286   0.0000       0.785359        21.3707 
 287   0.0000       0.790371        21.5071 
 288   0.0000       0.793718        21.5982 
 289   0.0000       0.796874        21.6840 
 290   0.0000       0.805536        21.9197 
 291   0.0000       0.815326        22.1862 
 292   0.0000       0.822515        22.3818 
 293   0.0000       0.827781        22.5251 
 294   0.0000       0.834832        22.7169 
 295   0.0000       0.839893        22.8547 
 296   0.0000       0.841984        22.9115 
 297   0.0000       0.847330        23.0570 
 298   0.0000       0.849489        23.1158 
 299   0.0000       0.854346        23.2479 
 300   0.0000       0.859092        23.3771 
 301   0.0000       0.863817        23.5057 
 302   0.0000       0.870129        23.6774 
 303   0.0000       0.875122        23.8133 
 304   0.0000       0.883978        24.0543 
 305   0.0000       0.886426        24.1209 
 306   0.0000       0.891539        24.2600 
 307   0.0000       0.893350        24.3093 
 308   0.0000       0.897201        24.4141 
 309   0.0000       0.898417        24.4472 
 310   0.0000       0.906138        24.6573 
 311   0.0000       0.913460        24.8565 
 312   0.0000       0.915886        24.9225 
 313   0.0000       0.917019        24.9534 
 314   0.0000       0.919587        25.0232 
 315   0.0000       0.924020        25.1439 
 316   0.0000       0.934663        25.4335 
 317   0.0000       0.936276        25.4774 
 318   0.0000       0.942527        25.6475 
 319   0.0000       0.943674        25.6787 
 320   0.0000       0.948605        25.8129 
 321   0.0000       0.954808        25.9817 
 322   0.0000       0.955798        26.0086 
 323   0.0000       0.960034        26.1238 
 324   0.0000       0.964905        26.2564 
 325   0.0000       0.966945        26.3119 
 326   0.0000       0.969196        26.3732 
 327   0.0000       0.970967        26.4214 
 328   0.0000       0.980757        26.6878 
 329   0.0000       0.981382        26.7048 
 330   0.0000       0.983348        26.7583 
 331   0.0000       0.988198        26.8902 
 332   0.0000       0.993737        27.0410 
 333   0.0000       0.995561        27.0906 
 334   0.0000       0.998114        27.1601 
 335   0.0000       1.002202        27.2713 
 336   0.0000       1.004133        27.3238 
 337   0.0000       1.010981        27.5102 
 338   0.0000       1.011518        27.5248 
 339   0.0000       1.016207        27.6524 
 340   0.0000       1.022093        27.8126 
 341   0.0000       1.023565        27.8526 
 342   0.0000       1.028334        27.9824 
 343   0.0000       1.032601        28.0985 
 344   0.0000       1.039420        28.2841 
 345   0.0000       1.040554        28.3149 
 346   0.0000       1.042963        28.3805 
 347   0.0000       1.046636        28.4804 
 348   0.0000       1.051928        28.6244 
 349   0.0000       1.052339        28.6356 
 350   0.0000       1.056632        28.7524 
 351   0.0000       1.064021        28.9535 
 352   0.0000       1.065822        29.0025 
 353   0.0000       1.067142        29.0384 
 354   0.0000       1.073273        29.2053 
 355   0.0000       1.079117        29.3643 
 356   0.0000       1.080587        29.4043 
 357   0.0000       1.085719        29.5439 
 358   0.0000       1.091181        29.6925 
 359   0.0000       1.093945        29.7677 
 360   0.0000       1.096554        29.8387 
 361   0.0000       1.100865        29.9561 
 362   0.0000       1.102123        29.9903 
 363   0.0000       1.110644        30.2222 
 364   0.0000       1.113653        30.3040 
 365   0.0000       1.115424        30.3522 
 366   0.0000       1.123603        30.5748 
 367   0.0000       1.126502        30.6537 
 368   0.0000       1.132519        30.8174 
 369   0.0000       1.135539        30.8996 
 370   0.0000       1.139091        30.9963 
 371   0.0000       1.140484        31.0342 
 372   0.0000       1.143394        31.1133 
 373   0.0000       1.144735        31.1498 
 374   0.0000       1.155902        31.4537 
 375   0.0000       1.158180        31.5157 
 376   0.0000       1.164352        31.6836 
 377   0.0000       1.167745        31.7760 
 378   0.0000       1.171863        31.8880 
 379   0.0000       1.182757        32.1845 
 380   0.0000       1.184269        32.2256 
 381   0.0000       1.189680        32.3728 
 382   0.0000       1.197028        32.5728 
 383   0.0000       1.197957        32.5981 
 384   0.0000       1.199925        32.6516 
 385   0.0000       1.207846        32.8672 
 386   0.0000       1.212276        32.9877 
 387   0.0000       1.214818        33.0569 
 388   0.0000       1.217121        33.1195 
 389   0.0000       1.220729        33.2177 
 390   0.0000       1.229026        33.4435 
 391   0.0000       1.234478        33.5919 
 392   0.0000       1.238439        33.6996 
 393   0.0000       1.242614        33.8132 
 394   0.0000       1.246751        33.9258 
 395   0.0000       1.254091        34.1255 
 396   0.0000       1.258426        34.2435 
 397   0.0000       1.263512        34.3819 
 398   0.0000       1.263713        34.3874 
 399   0.0000       1.274312        34.6758 
 400   0.0000       1.279505        34.8171 
 401   0.0000       1.280030        34.8314 
 402   0.0000       1.287127        35.0245 
 403   0.0000       1.291909        35.1546 
 404   0.0000       1.295417        35.2501 
 405   0.0000       1.302388        35.4398 
 406   0.0000       1.305601        35.5272 
 407   0.0000       1.308236        35.5989 
 408   0.0000       1.312418        35.7127 
 409   0.0000       1.321290        35.9541 
 410   0.0000       1.324781        36.0491 
 411   0.0000       1.330442        36.2032 
 412   0.0000       1.333308        36.2812 
 413   0.0000       1.336225        36.3605 
 414   0.0000       1.348447        36.6931 
 415   0.0000       1.353863        36.8405 
 416   0.0000       1.357558        36.9410 
 417   0.0000       1.359245        36.9869 
 418   0.0000       1.366334        37.1798 
 419   0.0000       1.371487        37.3201 
 420   0.0000       1.377583        37.4859 
 421   0.0000       1.387686        37.7609 
 422   0.0000       1.390124        37.8272 
 423   0.0000       1.397056        38.0158 
 424   0.0000       1.409459        38.3533 
 425   0.0000       1.411080        38.3974 
 426   0.0000       1.414524        38.4911 
 427   0.0000       1.418580        38.6015 
 428   0.0000       1.428291        38.8658 
 429   0.0000       1.435011        39.0486 
 430   0.0000       1.437977        39.1294 
 431   0.0000       1.440633        39.2016 
 432   0.0000       1.447453        39.3872 
 433   0.0000       1.449646        39.4469 
 434   0.0000       1.454024        39.5660 
 435   0.0000       1.456247        39.6265 
 436   0.0000       1.459864        39.7249 
 437   0.0000       1.464311        39.8459 
 438   0.0000       1.467830        39.9417 
 439   0.0000       1.480195        40.2782 
 440   0.0000       1.483291        40.3624 
 441   0.0000       1.494504        40.6675 
 442   0.0000       1.498122        40.7660 
 443   0.0000       1.500403        40.8280 
 444   0.0000       1.505147        40.9571 
 445   0.0000       1.509554        41.0771 
 446   0.0000       1.522106        41.4186 
 447   0.0000       1.524184        41.4752 
 448   0.0000       1.530063        41.6351 
 449   0.0000       1.532672        41.7061 
 450   0.0000       1.535930        41.7948 
 451   0.0000       1.541502        41.9464 
 452   0.0000       1.544367        42.0244 
 453   0.0000       1.553639        42.2767 
 454   0.0000       1.555831        42.3363 
 455   0.0000       1.567053        42.6417 
 456   0.0000       1.572737        42.7963 
 457   0.0000       1.575979        42.8846 
 458   0.0000       1.579401        42.9777 
 459   0.0000       1.580862        43.0174 
 460   0.0000       1.591723        43.3130 
 461   0.0000       1.595071        43.4041 
 462   0.0000       1.599850        43.5341 
 463   0.0000       1.604343        43.6564 
 464   0.0000       1.610470        43.8231 
 465   0.0000       1.612750        43.8852 
 466   0.0000       1.616584        43.9895 
 467   0.0000       1.621478        44.1227 
 468   0.0000       1.632199        44.4144 
 469   0.0000       1.634339        44.4726 
 470   0.0000       1.640417        44.6380 
 471   0.0000       1.650104        44.9016 
 472   0.0000       1.654111        45.0107 
 473   0.0000       1.657179        45.0941 
 474   0.0000       1.664465        45.2924 
 475   0.0000       1.666199        45.3396 
 476   0.0000       1.673741        45.5448 
 477   0.0000       1.681305        45.7506 
 478   0.0000       1.686694        45.8973 
 479   0.0000       1.690920        46.0123 
 480   0.0000       1.693256        46.0758 
 481   0.0000       1.695845        46.1463 
 482   0.0000       1.703407        46.3521 
 483   0.0000       1.706757        46.4432 
 484   0.0000       1.710902        46.5560 
 485   0.0000       1.718448        46.7613 
 486   0.0000       1.721376        46.8410 
 487   0.0000       1.727941        47.0197 
 488   0.0000       1.737076        47.2682 
 489   0.0000       1.738636        47.3107 
 490   0.0000       1.740176        47.3526 
 491   0.0000       1.750886        47.6440 
 492   0.0000       1.755873        47.7797 
 493   0.0000       1.760948        47.9178 
 494   0.0000       1.769533        48.1514 
 495   0.0000       1.773917        48.2707 
 496   0.0000       1.778104        48.3847 
 497   0.0000       1.791653        48.7534 
 498   0.0000       1.796366        48.8816 
 499   0.0000       1.797864        48.9224 
 500   0.0000       1.806605        49.1602 
 501   0.0000       1.808539        49.2129 
 502   0.0000       1.819959        49.5236 
 503   0.0000       1.821226        49.5581 
 504   0.0000       1.826125        49.6914 
 505   0.0000       1.828588        49.7584 
 506   0.0000       1.832703        49.8704 
 507   0.0000       1.841493        50.1096 
 508   0.0000       1.846918        50.2572 
 509   0.0000       1.849470        50.3266 
 510   0.0000       1.855147        50.4811 
 511   0.0000       1.856223        50.5104 
 512   0.0000       1.866656        50.7943 
 513   0.0000       1.868997        50.8580 
 514   0.0000       1.869401        50.8690 
 515   0.0000       1.874406        51.0052 
 516   0.0000       1.882987        51.2387 
 517   0.0000       1.887397        51.3587 
 518   0.0000       1.893668        51.5293 
 519   0.0000       1.901289        51.7367 
 520   0.0000       1.905470        51.8505 
 521   0.0000       1.909337        51.9557 
 522   0.0000       1.910499        51.9873 
 523   0.0000       1.915118        52.1130 
 524   0.0000       1.922280        52.3079 
 525   0.0000       1.926397        52.4199 
 526   0.0000       1.929787        52.5122 
 527   0.0000       1.939932        52.7882 
 528   0.0000       1.941629        52.8344 
 529   0.0000       1.945480        52.9392 
 530   0.0000       1.958119        53.2831 
 531   0.0000       1.960823        53.3567 
 532   0.0000       1.967357        53.5345 
 533   0.0000       1.969963        53.6054 
 534   0.0000       1.984447        53.9995 
 535   0.0000       1.985512        54.0285 
 536   0.0000       1.987716        54.0885 
 537   0.0000       1.997946        54.3669 
 538   0.0000       2.002026        54.4779 
 539   0.0000       2.013787        54.7979 
 540   0.0000       2.016105        54.8610 
 541   0.0000       2.026250        55.1371 
 542   0.0000       2.030225        55.2452 
 543   0.0000       2.035708        55.3944 
 544   0.0000       2.039340        55.4933 
 545   0.0000       2.049714        55.7756 
 546   0.0000       2.059849        56.0514 
 547   0.0000       2.066404        56.2297 
 548   0.0000       2.069962        56.3265 
 549   0.0000       2.082576        56.6698 
 550   0.0000       2.085428        56.7474 
 551   0.0000       2.092669        56.9444 
 552   0.0000       2.098521        57.1037 
 553   0.0000       2.100133        57.1475 
 554   0.0000       2.115054        57.5535 
 555   0.0000       2.118074        57.6357 
 556   0.0000       2.125430        57.8359 
 557   0.0000       2.132202        58.0202 
 558   0.0000       2.142952        58.3127 
 559   0.0000       2.148511        58.4640 
 560   0.0000       2.158128        58.7257 
 561   0.0000       2.159165        58.7539 
 562   0.0000       2.162223        58.8371 
 563   0.0000       2.172888        59.1273 
 564   0.0000       2.176524        59.2262 
 565   0.0000       2.191300        59.6283 
 566   0.0000       2.198894        59.8349 
 567   0.0000       2.208344        60.0921 
 568   0.0000       2.214376        60.2562 
 569   0.0000       2.217427        60.3393 
 570   0.0000       2.222059        60.4653 
 571   0.0000       2.225899        60.5698 
 572   0.0000       2.238546        60.9139 
 573   0.0000       2.239221        60.9323 
 574   0.0000       2.251040        61.2539 
 575   0.0000       2.256456        61.4013 
 576   0.0000       2.262716        61.5716 
 577   0.0000       2.271406        61.8081 
 578   0.0000       2.280215        62.0478 
 579   0.0000       2.289958        62.3129 
 580   0.0000       2.301693        62.6322 
 581   0.0000       2.303365        62.6778 
 582   0.0000       2.311458        62.8980 
 583   0.0000       2.317147        63.0528 
 584   0.0000       2.323533        63.2265 
 585   0.0000       2.325504        63.2802 
 586   0.0000       2.332822        63.4793 
 587   0.0000       2.346428        63.8496 
 588   0.0000       2.350130        63.9503 
 589   0.0000       2.355127        64.0863 
 590   0.0000       2.366004        64.3822 
 591   0.0000       2.368628        64.4536 
 592   0.0000       2.372411        64.5566 
 593   0.0000       2.391162        65.0668 
 594   0.0000       2.397311        65.2341 
 595   0.0000       2.404202        65.4217 
 596   0.0000       2.421773        65.8998 
 597   0.0000       2.426944        66.0405 
 598   0.0000       2.431652        66.1686 
 599   0.0000       2.444826        66.5271 
 600   0.0000       2.451791        66.7166 
 601   0.0000       2.463575        67.0373 
 602   0.0000       2.464776        67.0700 
 603   0.0000       2.472361        67.2764 
 604   0.0000       2.485135        67.6240 
 605   0.0000       2.487172        67.6794 
 606   0.0000       2.497362        67.9567 
 607   0.0000       2.522186        68.6322 
 608   0.0000       2.528090        68.7928 
 609   0.0000       2.540050        69.1183 
 610   0.0000       2.554306        69.5062 
 611   0.0000       2.561452        69.7007 
 612   0.0000       2.574564        70.0575 
 613   0.0000       2.597884        70.6920 
 614   0.0000       2.607540        70.9548 
 615   0.0000       2.620811        71.3159 
 616   0.0000       2.626255        71.4640 
 617   0.0000       2.633638        71.6649 
 618   0.0000       2.642315        71.9010 
 619   0.0000       2.656843        72.2964 
 620   0.0000       2.669629        72.6443 
 621   0.0000       2.681086        72.9561 
 622   0.0000       2.683292        73.0161 
 623   0.0000       2.691929        73.2511 
 624   0.0000       2.695795        73.3563 
 625   0.0000       2.708053        73.6899 
 626   0.0000       2.710165        73.7473 
 627   0.0000       2.722518        74.0835 
 628   0.0000       2.728530        74.2471 
 629   0.0000       2.731949        74.3401 
 630   0.0000       2.742009        74.6139 
 631   0.0000       2.747003        74.7498 
 632   0.0000       2.754220        74.9461 
 633   0.0000       2.761449        75.1429 
 634   0.0000       2.762747        75.1782 
 635   0.0000       2.789036        75.8935 
 636   0.0000       2.796442        76.0951 
 637   0.0000       2.818446        76.6938 
 638   0.0000       2.837207        77.2043 
 639   0.0000       2.849626        77.5423 
 640   0.0000       2.864104        77.9362 
 641   0.0000       2.874355        78.2152 
 642   0.0000       2.876419        78.2713 
 643   0.0000       2.888306        78.5948 
 644   0.0000       2.897769        78.8523 
 645   0.0000       2.920834        79.4799 
 646   0.0000       2.923398        79.5497 
 647   0.0000       2.927648        79.6653 
 648   0.0000       2.942542        80.0706 
 649   0.0000       2.965922        80.7069 
 650   0.0000       2.972111        80.8752 
 651   0.0000       2.983763        81.1923 
 652   0.0000       2.991469        81.4020 
 653   0.0000       3.032340        82.5142 
 654   0.0000       3.043280        82.8119 
 655   0.0000       3.048822        82.9627 
 656   0.0000       3.060243        83.2734 
 657   0.0000       3.087632        84.0187 
 658   0.0000       3.091783        84.1317 
 659   0.0000       3.097873        84.2974 
 660   0.0000       3.116991        84.8176 
 661   0.0000       3.148519        85.6756 
 662   0.0000       3.154715        85.8441 
 663   0.0000       3.156818        85.9014 
 664   0.0000       3.181607        86.5759 
 665   0.0000       3.187400        86.7336 
 666   0.0000       3.206531        87.2542 
 667   0.0000       3.207915        87.2918 
 668   0.0000       3.221786        87.6692 
 669   0.0000       3.235709        88.0481 
 670   0.0000       3.236906        88.0807 
 671   0.0000       3.243117        88.2497 
 672   0.0000       3.252402        88.5024 
 673   0.0000       3.261576        88.7520 
 674   0.0000       3.266497        88.8859 
 675   0.0000       3.274966        89.1163 
 676   0.0000       3.284338        89.3714 
 677   0.0000       3.300207        89.8032 
 678   0.0000       3.307709        90.0073 
 679   0.0000       3.320541        90.3565 
 680   0.0000       3.331797        90.6628 
 681   0.0000       3.338576        90.8473 
 682   0.0000       3.352277        91.2201 
 683   0.0000       3.356513        91.3354 
 684   0.0000       3.358469        91.3886 
 685   0.0000       3.371862        91.7530 
 686   0.0000       3.384737        92.1034 
 687   0.0000       3.393496        92.3417 
 688   0.0000       3.403568        92.6158 
 689   0.0000       3.407047        92.7105 
 690   0.0000       3.424112        93.1748 
 691   0.0000       3.430639        93.3524 
 692   0.0000       3.442689        93.6803 
 693   0.0000       3.452573        93.9493 
 694   0.0000       3.458824        94.1194 
 695   0.0000       3.464888        94.2844 
 696   0.0000       3.476193        94.5920 
 697   0.0000       3.485310        94.8401 
 698   0.0000       3.496509        95.1448 
 699   0.0000       3.502476        95.3072 
 700   0.0000       3.508560        95.4728 
 701   0.0000       3.517701        95.7215 
 702   0.0000       3.523328        95.8746 
 703   0.0000       3.530793        96.0778 
 704   0.0000       3.539675        96.3194 
 705   0.0000       3.549332        96.5822 
 706   0.0000       3.552225        96.6610 
 707   0.0000       3.567279        97.0706 
 708   0.0000       3.578037        97.3633 
 709   0.0000       3.585834        97.5755 
 710   0.0000       3.595331        97.8339 
 711   0.0000       3.596707        97.8714 
 712   0.0000       3.601478        98.0012 
 713   0.0000       3.613641        98.3322 
 714   0.0000       3.621428        98.5441 
 715   0.0000       3.634857        98.9095 
 716   0.0000       3.638531        99.0095 
 717   0.0000       3.648906        99.2918 
 718   0.0000       3.657697        99.5310 
 719   0.0000       3.665427        99.7413 
 720   0.0000       3.680194       100.1432 
 721   0.0000       3.693918       100.5166 
 722   0.0000       3.697531       100.6149 
 723   0.0000       3.707078       100.8747 
 724   0.0000       3.710711       100.9736 
 725   0.0000       3.716481       101.1306 
 726   0.0000       3.721543       101.2683 
 727   0.0000       3.739461       101.7559 
 728   0.0000       3.747015       101.9615 
 729   0.0000       3.750815       102.0649 
 730   0.0000       3.759340       102.2968 
 731   0.0000       3.763123       102.3998 
 732   0.0000       3.770644       102.6044 
 733   0.0000       3.771594       102.6303 
 734   0.0000       3.786966       103.0486 
 735   0.0000       3.791655       103.1762 
 736   0.0000       3.800906       103.4279 
 737   0.0000       3.806430       103.5782 
 738   0.0000       3.810305       103.6837 
 739   0.0000       3.819449       103.9325 
 740   0.0000       3.820919       103.9725 
 741   0.0000       3.828316       104.1738 
 742   0.0000       3.845187       104.6329 
 743   0.0000       3.846856       104.6783 
 744   0.0000       3.849771       104.7576 
 745   0.0000       3.862614       105.1071 
 746   0.0000       3.866154       105.2034 
 747   0.0000       3.877312       105.5070 
 748   0.0000       3.885667       105.7344 
 749   0.0000       3.888343       105.8072 
 750   0.0000       3.889497       105.8386 
 751   0.0000       3.905716       106.2799 
 752   0.0000       3.909384       106.3797 
 753   0.0000       3.919534       106.6559 
 754   0.0000       3.932339       107.0044 
 755   0.0000       3.933137       107.0261 
 756   0.0000       3.939239       107.1921 
 757   0.0000       3.944991       107.3487 
 758   0.0000       3.954397       107.6046 
 759   0.0000       3.967512       107.9615 
 760   0.0000       3.972001       108.0837 
 761   0.0000       3.975777       108.1864 
 762   0.0000       3.981167       108.3331 
 763   0.0000       3.995602       108.7259 
 764   0.0000       3.999473       108.8312 
 765   0.0000       4.010731       109.1375 
 766   0.0000       4.015823       109.2761 
 767   0.0000       4.029098       109.6373 
 768   0.0000       4.034256       109.7777 
 769   0.0000       4.040275       109.9415 
 770   0.0000       4.048269       110.1590 
 771   0.0000       4.053438       110.2997 
 772   0.0000       4.057486       110.4098 
 773   0.0000       4.059728       110.4708 
 774   0.0000       4.065794       110.6359 
 775   0.0000       4.073589       110.8480 
 776   0.0000       4.086330       111.1947 
 777   0.0000       4.099932       111.5648 
 778   0.0000       4.103177       111.6531 
 779   0.0000       4.110981       111.8655 
 780   0.0000       4.119592       112.0998 
 781   0.0000       4.125079       112.2491 
 782   0.0000       4.128374       112.3388 
 783   0.0000       4.143417       112.7481 
 784   0.0000       4.152452       112.9940 
 785   0.0000       4.162259       113.2608 
 786   0.0000       4.168986       113.4439 
 787   0.0000       4.180167       113.7481 
 788   0.0000       4.188250       113.9681 
 789   0.0000       4.196742       114.1991 
 790   0.0000       4.204954       114.4226 
 791   0.0000       4.207426       114.4899 
 792   0.0000       4.221917       114.8842 
 793   0.0000       4.226716       115.0148 
 794   0.0000       4.235483       115.2534 
 795   0.0000       4.240059       115.3779 
 796   0.0000       4.255924       115.8096 
 797   0.0000       4.259117       115.8965 
 798   0.0000       4.271381       116.2302 
 799   0.0000       4.290542       116.7516 
 800   0.0000       4.291158       116.7683 
 801   0.0000       4.305170       117.1496 
 802   0.0000       4.312063       117.3372 
 803   0.0000       4.319563       117.5413 
 804   0.0000       4.329625       117.8151 
 805   0.0000       4.337913       118.0406 
 806   0.0000       4.340951       118.1233 
 807   0.0000       4.353114       118.4543 
 808   0.0000       4.363783       118.7446 
 809   0.0000       4.368927       118.8845 
 810   0.0000       4.375157       119.0541 
 811   0.0000       4.388631       119.4207 
 812   0.0000       4.390213       119.4638 
 813   0.0000       4.406606       119.9098 
 814   0.0000       4.420493       120.2877 
 815   0.0000       4.426692       120.4564 
 816   0.0000       4.433359       120.6378 
 817   0.0000       4.444836       120.9501 
 818   0.0000       4.448787       121.0577 
 819   0.0000       4.453076       121.1744 
 820   0.0000       4.473505       121.7303 
 821   0.0000       4.480416       121.9183 
 822   0.0000       4.499300       122.4322 
 823   0.0000       4.507958       122.6678 
 824   0.0000       4.515461       122.8720 
 825   0.0000       4.521717       123.0422 
 826   0.0000       4.526344       123.1681 
 827   0.0000       4.545249       123.6825 
 828   0.0000       4.553022       123.8940 
 829   0.0000       4.561713       124.1305 
 830   0.0000       4.573694       124.4565 
 831   0.0000       4.577358       124.5563 
 832   0.0000       4.597866       125.1143 
 833   0.0000       4.599941       125.1708 
 834   0.0000       4.609825       125.4397 
 835   0.0000       4.620753       125.7371 
 836   0.0000       4.628936       125.9597 
 837   0.0000       4.643979       126.3691 
 838   0.0000       4.659874       126.8016 
 839   0.0000       4.668253       127.0296 
 840   0.0000       4.675782       127.2345 
 841   0.0000       4.694178       127.7351 
 842   0.0000       4.699527       127.8806 
 843   0.0000       4.711051       128.1942 
 844   0.0000       4.735983       128.8726 
 845   0.0000       4.742418       129.0478 
 846   0.0000       4.749338       129.2361 
 847   0.0000       4.759625       129.5160 
 848   0.0000       4.761297       129.5615 
 849   0.0000       4.776796       129.9832 
 850   0.0000       4.789261       130.3224 
 851   0.0000       4.800367       130.6246 
 852   0.0000       4.805402       130.7616 
 853   0.0000       4.810640       130.9042 
 854   0.0000       4.835622       131.5840 
 855   0.0000       4.839451       131.6881 
 856   0.0000       4.853855       132.0801 
 857   0.0000       4.863720       132.3486 
 858   0.0000       4.883092       132.8757 
 859   0.0000       4.894093       133.1750 
 860   0.0000       4.902951       133.4161 
 861   0.0000       4.908527       133.5678 
 862   0.0000       4.914287       133.7245 
 863   0.0000       4.934494       134.2744 
 864   0.0000       4.937772       134.3636 
 865   0.0000       4.952075       134.7528 
 866   0.0000       4.974064       135.3512 
 867   0.0000       4.985755       135.6693 
 868   0.0000       4.992815       135.8614 
 869   0.0000       5.000529       136.0713 
 870   0.0000       5.006087       136.2226 
 871   0.0000       5.017768       136.5404 
 872   0.0000       5.035415       137.0206 
 873   0.0000       5.045229       137.2877 
 874   0.0000       5.060173       137.6943 
 875   0.0000       5.068043       137.9085 
 876   0.0000       5.072128       138.0196 
 877   0.0000       5.086739       138.4172 
 878   0.0000       5.107964       138.9948 
 879   0.0000       5.113134       139.1354 
 880   0.0000       5.123954       139.4299 
 881   0.0000       5.138636       139.8294 
 882   0.0000       5.149904       140.1360 
 883   0.0000       5.173415       140.7758 
 884   0.0000       5.186380       141.1286 
 885   0.0000       5.192288       141.2893 
 886   0.0000       5.200514       141.5132 
 887   0.0000       5.219399       142.0271 
 888   0.0000       5.224176       142.1570 
 889   0.0000       5.234145       142.4283 
 890   0.0000       5.241262       142.6220 
 891   0.0000       5.263792       143.2351 
 892   0.0000       5.271129       143.4347 
 893   0.0000       5.280656       143.6940 
 894   0.0000       5.294534       144.0716 
 895   0.0000       5.296801       144.1333 
 896   0.0000       5.316300       144.6639 
 897   0.0000       5.332171       145.0957 
 898   0.0000       5.346654       145.4899 
 899   0.0000       5.366553       146.0313 
 900   0.0000       5.382320       146.4604 
 901   0.0000       5.392578       146.7395 
 902   0.0000       5.394925       146.8034 
 903   0.0000       5.403473       147.0360 
 904   0.0000       5.416546       147.3917 
 905   0.0000       5.421703       147.5320 
 906   0.0000       5.449922       148.2999 
 907   0.0000       5.455080       148.4403 
 908   0.0000       5.473881       148.9519 
 909   0.0000       5.478282       149.0716 
 910   0.0000       5.494425       149.5109 
 911   0.0000       5.507613       149.8698 
 912   0.0000       5.511148       149.9660 
 913   0.0000       5.523461       150.3010 
 914   0.0000       5.538246       150.7033 
 915   0.0000       5.550399       151.0340 
 916   0.0000       5.558325       151.2497 
 917   0.0000       5.581886       151.8908 
 918   0.0000       5.589241       152.0910 
 919   0.0000       5.597468       152.3149 
 920   0.0000       5.610987       152.6827 
 921   0.0000       5.628073       153.1477 
 922   0.0000       5.635437       153.3480 
 923   0.0000       5.652808       153.8207 
 924   0.0000       5.656508       153.9214 
 925   0.0000       5.666506       154.1935 
 926   0.0000       5.682346       154.6245 
 927   0.0000       5.687186       154.7562 
 928   0.0000       5.698223       155.0565 
 929   0.0000       5.708141       155.3264 
 930   0.0000       5.714675       155.5042 
 931   0.0000       5.732596       155.9919 
 932   0.0000       5.744692       156.3210 
 933   0.0000       5.763055       156.8207 
 934   0.0000       5.772414       157.0754 
 935   0.0000       5.788999       157.5267 
 936   0.0000       5.796695       157.7361 
 937   0.0000       5.810344       158.1075 
 938   0.0000       5.826706       158.5527 
 939   0.0000       5.847295       159.1130 
 940   0.0000       5.862050       159.5145 
 941   0.0000       5.877955       159.9473 
 942   0.0000       5.903928       160.6540 
 943   0.0000       5.920728       161.1112 
 944   0.0000       5.950930       161.9330 
 945   0.0000       5.964483       162.3018 
 946   0.0000       6.025569       163.9641 
 947   0.0000       6.075677       165.3276 
 948   0.0000       6.082818       165.5219 
 949   0.0000       6.128299       166.7595 
 950   0.0000       6.148850       167.3187 
 951   0.0000       6.159399       167.6058 
 952   0.0000       6.181849       168.2167 
 953   0.0000       6.190777       168.4596 
 954   0.0000       6.226628       169.4351 
 955   0.0000       6.237980       169.7441 
 956   0.0000       6.252307       170.1339 
 957   0.0000       6.263573       170.4405 
 958   0.0000       6.274657       170.7421 
 959   0.0000       6.297311       171.3586 
 960   0.0000       6.305679       171.5862 
 961   0.0000       6.324586       172.1007 
 962   0.0000       6.338507       172.4796 
 963   0.0000       6.358445       173.0221 
 964   0.0000       6.369346       173.3187 
 965   0.0000       6.375467       173.4853 
 966   0.0000       6.403614       174.2512 
 967   0.0000       6.420328       174.7060 
 968   0.0000       6.466985       175.9756 
 969   0.0000       6.522628       177.4897 
 970   0.0000       6.550377       178.2448 
 971   0.0000       6.681340       181.8085 
 972   0.0000       6.813567       185.4066 
 973   0.0000       6.850503       186.4117 
 974   0.0000       6.880477       187.2273 
 975   0.0000       6.911397       188.0687 
 976   0.0000       6.934161       188.6881 
 977   0.0000       6.948929       189.0900 
 978   0.0000       6.975825       189.8218 
 979   0.0000       6.983939       190.0427 
 980   0.0000       7.018044       190.9707 
 981   0.0000       7.034756       191.4254 
 982   0.0000       7.058725       192.0777 
 983   0.0000       7.062690       192.1856 
 984   0.0000       7.141069       194.3184 
 985   0.0000       7.208702       196.1588 
 986   0.0000       7.299762       198.6366 
 987   0.0000       7.372168       200.6069 
 988   0.0000       7.404747       201.4934 
 989   0.0000       7.469092       203.2443 
 990   0.0000       7.557143       205.6403 
 991   0.0000       7.606421       206.9812 
 992   0.0000       7.636291       207.7940 
 993   0.0000       7.750086       210.8906 
 994   0.0000       7.801396       212.2868 
 995   0.0000       7.927266       215.7119 
 996   0.0000       8.022821       218.3121 
 997   0.0000       8.122845       221.0338 
 998   0.0000       8.318756       226.3649 
 999   0.0000       9.435161       256.7438 
 1000   0.0000       9.448339       257.1024 
 1001   0.0000       9.460403       257.4306 
 1002   0.0000       9.466534       257.5975 
 1003   0.0000       9.475397       257.8387 
 1004   0.0000       9.506742       258.6916 
 1005   0.0000       9.729573       264.7552 
 1006   0.0000      10.101162       274.8666 
 1007   0.0000      10.114607       275.2324 
 1008   0.0000      10.140477       275.9364 
 1009   0.0000      10.219418       278.0845 
 1010   0.0000      10.226292       278.2715 
 1011   0.0000      10.256076       279.0820 
 1012   0.0000      10.387551       282.6596 
 1013   0.0000      10.417713       283.4804 
 1014   0.0000      10.536302       286.7073 
 1015   0.0000      15.612525       424.8384 
 1016   0.0000      17.425463       474.1709 
 1017   0.0000      18.072351       491.7737 
 1018   0.0000      18.433706       501.6067 
 1019   0.0000      18.646515       507.3975 
 1020   0.0000      18.994126       516.8564 
 1021   0.0000      19.077855       519.1348 
 1022   0.0000      19.811387       539.0953 
 1023   0.0000      20.601993       560.6087 
 1024   0.0000      21.838068       594.2440 

                 SPIN DOWN ORBITALS
  NO   OCC          E(Eh)            E(eV) 
   0   1.0000    -261.550469     -7117.1501 
   1   1.0000    -104.776280     -2851.1075 
   2   1.0000    -104.773521     -2851.0325 
   3   1.0000    -104.773367     -2851.0283 
   4   1.0000     -32.059827      -872.3922 
   5   1.0000     -27.537815      -749.3420 
   6   1.0000     -27.537722      -749.3395 
   7   1.0000     -27.537384      -749.3303 
   8   1.0000     -20.563886      -559.5718 
   9   1.0000     -11.391896      -309.9892 
  10   1.0000     -11.344143      -308.6898 
  11   1.0000     -11.281896      -306.9960 
  12   1.0000     -11.275704      -306.8275 
  13   1.0000     -11.259337      -306.3821 
  14   1.0000     -11.258940      -306.3713 
  15   1.0000     -11.253288      -306.2175 
  16   1.0000     -11.247884      -306.0705 
  17   1.0000     -10.502815      -285.7961 
  18   1.0000     -10.500047      -285.7208 
  19   1.0000     -10.499863      -285.7158 
  20   1.0000      -7.968708      -216.8396 
  21   1.0000      -7.968095      -216.8229 
  22   1.0000      -7.968026      -216.8210 
  23   1.0000      -7.965965      -216.7649 
  24   1.0000      -7.965832      -216.7613 
  25   1.0000      -7.965301      -216.7469 
  26   1.0000      -7.965211      -216.7444 
  27   1.0000      -7.965104      -216.7415 
  28   1.0000      -7.965004      -216.7388 
  29   1.0000      -4.134879      -112.5158 
  30   1.0000      -2.656598       -72.2897 
  31   1.0000      -2.656559       -72.2887 
  32   1.0000      -2.655849       -72.2693 
  33   1.0000      -1.398810       -38.0636 
  34   1.0000      -1.172253       -31.8986 
  35   1.0000      -1.079744       -29.3813 
  36   1.0000      -1.042375       -28.3645 
  37   1.0000      -1.034299       -28.1447 
  38   1.0000      -1.022630       -27.8272 
  39   1.0000      -1.020907       -27.7803 
  40   1.0000      -0.997997       -27.1569 
  41   1.0000      -0.985081       -26.8054 
  42   1.0000      -0.922399       -25.0997 
  43   1.0000      -0.805359       -21.9149 
  44   1.0000      -0.764790       -20.8110 
  45   1.0000      -0.694621       -18.9016 
  46   1.0000      -0.688548       -18.7363 
  47   1.0000      -0.675542       -18.3824 
  48   1.0000      -0.666919       -18.1478 
  49   1.0000      -0.652204       -17.7474 
  50   1.0000      -0.625725       -17.0268 
  51   1.0000      -0.602396       -16.3920 
  52   1.0000      -0.595748       -16.2111 
  53   1.0000      -0.587223       -15.9792 
  54   1.0000      -0.577313       -15.7095 
  55   1.0000      -0.571162       -15.5421 
  56   1.0000      -0.566739       -15.4217 
  57   1.0000      -0.557529       -15.1711 
  58   1.0000      -0.543370       -14.7859 
  59   1.0000      -0.531015       -14.4497 
  60   1.0000      -0.522821       -14.2267 
  61   1.0000      -0.505896       -13.7661 
  62   1.0000      -0.476047       -12.9539 
  63   1.0000      -0.467835       -12.7304 
  64   1.0000      -0.464629       -12.6432 
  65   1.0000      -0.438872       -11.9423 
  66   1.0000      -0.435785       -11.8583 
  67   1.0000      -0.433844       -11.8055 
  68   1.0000      -0.422354       -11.4928 
  69   1.0000      -0.413758       -11.2589 
  70   1.0000      -0.399595       -10.8735 
  71   1.0000      -0.385262       -10.4835 
  72   0.0000       0.007555         0.2056 
  73   0.0000       0.019515         0.5310 
  74   0.0000       0.020538         0.5589 
  75   0.0000       0.023182         0.6308 
  76   0.0000       0.030681         0.8349 
  77   0.0000       0.039143         1.0651 
  78   0.0000       0.039880         1.0852 
  79   0.0000       0.041872         1.1394 
  80   0.0000       0.044882         1.2213 
  81   0.0000       0.046718         1.2713 
  82   0.0000       0.057482         1.5642 
  83   0.0000       0.057916         1.5760 
  84   0.0000       0.061108         1.6628 
  85   0.0000       0.062444         1.6992 
  86   0.0000       0.064473         1.7544 
  87   0.0000       0.072654         1.9770 
  88   0.0000       0.075102         2.0436 
  89   0.0000       0.082807         2.2533 
  90   0.0000       0.088447         2.4068 
  91   0.0000       0.090744         2.4693 
  92   0.0000       0.092176         2.5082 
  93   0.0000       0.095924         2.6102 
  94   0.0000       0.098180         2.6716 
  95   0.0000       0.102862         2.7990 
  96   0.0000       0.105844         2.8802 
  97   0.0000       0.115194         3.1346 
  98   0.0000       0.116800         3.1783 
  99   0.0000       0.119759         3.2588 
 100   0.0000       0.120864         3.2889 
 101   0.0000       0.123528         3.3614 
 102   0.0000       0.123721         3.3666 
 103   0.0000       0.124852         3.3974 
 104   0.0000       0.128334         3.4921 
 105   0.0000       0.130090         3.5399 
 106   0.0000       0.131649         3.5823 
 107   0.0000       0.133649         3.6368 
 108   0.0000       0.135649         3.6912 
 109   0.0000       0.137153         3.7321 
 110   0.0000       0.139046         3.7836 
 111   0.0000       0.142367         3.8740 
 112   0.0000       0.146564         3.9882 
 113   0.0000       0.151666         4.1270 
 114   0.0000       0.153627         4.1804 
 115   0.0000       0.157242         4.2788 
 116   0.0000       0.158320         4.3081 
 117   0.0000       0.160701         4.3729 
 118   0.0000       0.162844         4.4312 
 119   0.0000       0.165209         4.4956 
 120   0.0000       0.168236         4.5779 
 121   0.0000       0.171471         4.6660 
 122   0.0000       0.175831         4.7846 
 123   0.0000       0.178738         4.8637 
 124   0.0000       0.179625         4.8879 
 125   0.0000       0.182592         4.9686 
 126   0.0000       0.188417         5.1271 
 127   0.0000       0.190484         5.1833 
 128   0.0000       0.196578         5.3492 
 129   0.0000       0.201523         5.4837 
 130   0.0000       0.204356         5.5608 
 131   0.0000       0.207566         5.6482 
 132   0.0000       0.213867         5.8196 
 133   0.0000       0.216032         5.8785 
 134   0.0000       0.217532         5.9193 
 135   0.0000       0.221065         6.0155 
 136   0.0000       0.225836         6.1453 
 137   0.0000       0.227713         6.1964 
 138   0.0000       0.230202         6.2641 
 139   0.0000       0.232429         6.3247 
 140   0.0000       0.233739         6.3604 
 141   0.0000       0.237966         6.4754 
 142   0.0000       0.243908         6.6371 
 143   0.0000       0.245443         6.6788 
 144   0.0000       0.249501         6.7893 
 145   0.0000       0.253987         6.9113 
 146   0.0000       0.256820         6.9884 
 147   0.0000       0.262358         7.1391 
 148   0.0000       0.265165         7.2155 
 149   0.0000       0.268732         7.3126 
 150   0.0000       0.276047         7.5116 
 151   0.0000       0.279029         7.5928 
 152   0.0000       0.282034         7.6745 
 153   0.0000       0.287769         7.8306 
 154   0.0000       0.292323         7.9545 
 155   0.0000       0.295004         8.0275 
 156   0.0000       0.297673         8.1001 
 157   0.0000       0.301015         8.1910 
 158   0.0000       0.304963         8.2985 
 159   0.0000       0.311606         8.4792 
 160   0.0000       0.312673         8.5083 
 161   0.0000       0.313558         8.5324 
 162   0.0000       0.316568         8.6143 
 163   0.0000       0.326371         8.8810 
 164   0.0000       0.329476         8.9655 
 165   0.0000       0.331859         9.0303 
 166   0.0000       0.338149         9.2015 
 167   0.0000       0.338947         9.2232 
 168   0.0000       0.342073         9.3083 
 169   0.0000       0.343845         9.3565 
 170   0.0000       0.346457         9.4276 
 171   0.0000       0.352673         9.5967 
 172   0.0000       0.356551         9.7023 
 173   0.0000       0.358201         9.7471 
 174   0.0000       0.360489         9.8094 
 175   0.0000       0.364806         9.9269 
 176   0.0000       0.369601        10.0573 
 177   0.0000       0.372196        10.1280 
 178   0.0000       0.373434        10.1617 
 179   0.0000       0.376617        10.2483 
 180   0.0000       0.383019        10.4225 
 181   0.0000       0.388439        10.5700 
 182   0.0000       0.392054        10.6683 
 183   0.0000       0.394821        10.7436 
 184   0.0000       0.397732        10.8228 
 185   0.0000       0.399910        10.8821 
 186   0.0000       0.402473        10.9518 
 187   0.0000       0.404259        11.0004 
 188   0.0000       0.408033        11.1031 
 189   0.0000       0.411937        11.2094 
 190   0.0000       0.415271        11.3001 
 191   0.0000       0.416834        11.3426 
 192   0.0000       0.420713        11.4482 
 193   0.0000       0.426209        11.5977 
 194   0.0000       0.430030        11.7017 
 195   0.0000       0.433916        11.8074 
 196   0.0000       0.437536        11.9060 
 197   0.0000       0.442357        12.0372 
 198   0.0000       0.444992        12.1089 
 199   0.0000       0.449851        12.2411 
 200   0.0000       0.452200        12.3050 
 201   0.0000       0.457367        12.4456 
 202   0.0000       0.462924        12.5968 
 203   0.0000       0.465193        12.6585 
 204   0.0000       0.470261        12.7965 
 205   0.0000       0.471085        12.8189 
 206   0.0000       0.474050        12.8996 
 207   0.0000       0.476317        12.9612 
 208   0.0000       0.480774        13.0825 
 209   0.0000       0.484142        13.1742 
 210   0.0000       0.486988        13.2516 
 211   0.0000       0.492602        13.4044 
 212   0.0000       0.494445        13.4545 
 213   0.0000       0.496387        13.5074 
 214   0.0000       0.502546        13.6750 
 215   0.0000       0.504097        13.7172 
 216   0.0000       0.507554        13.8112 
 217   0.0000       0.510076        13.8799 
 218   0.0000       0.511816        13.9272 
 219   0.0000       0.514212        13.9924 
 220   0.0000       0.517097        14.0709 
 221   0.0000       0.520624        14.1669 
 222   0.0000       0.525810        14.3080 
 223   0.0000       0.529324        14.4036 
 224   0.0000       0.531048        14.4506 
 225   0.0000       0.534441        14.5429 
 226   0.0000       0.540090        14.6966 
 227   0.0000       0.542866        14.7721 
 228   0.0000       0.543916        14.8007 
 229   0.0000       0.548003        14.9119 
 230   0.0000       0.548494        14.9253 
 231   0.0000       0.552081        15.0229 
 232   0.0000       0.555982        15.1290 
 233   0.0000       0.560693        15.2572 
 234   0.0000       0.564903        15.3718 
 235   0.0000       0.567217        15.4348 
 236   0.0000       0.573116        15.5953 
 237   0.0000       0.577302        15.7092 
 238   0.0000       0.578922        15.7533 
 239   0.0000       0.582617        15.8538 
 240   0.0000       0.585746        15.9389 
 241   0.0000       0.586880        15.9698 
 242   0.0000       0.589650        16.0452 
 243   0.0000       0.597549        16.2601 
 244   0.0000       0.600772        16.3478 
 245   0.0000       0.603536        16.4230 
 246   0.0000       0.607260        16.5244 
 247   0.0000       0.609514        16.5857 
 248   0.0000       0.614525        16.7221 
 249   0.0000       0.619682        16.8624 
 250   0.0000       0.623087        16.9550 
 251   0.0000       0.625794        17.0287 
 252   0.0000       0.627594        17.0777 
 253   0.0000       0.629840        17.1388 
 254   0.0000       0.637839        17.3565 
 255   0.0000       0.642681        17.4882 
 256   0.0000       0.650792        17.7089 
 257   0.0000       0.652771        17.7628 
 258   0.0000       0.658485        17.9183 
 259   0.0000       0.663007        18.0413 
 260   0.0000       0.666254        18.1297 
 261   0.0000       0.667768        18.1709 
 262   0.0000       0.674378        18.3508 
 263   0.0000       0.681291        18.5389 
 264   0.0000       0.683830        18.6080 
 265   0.0000       0.687132        18.6978 
 266   0.0000       0.689092        18.7511 
 267   0.0000       0.693914        18.8824 
[...]
  | sigma^2 in % of trace(Dij) retained ...   8.88e+00
  | sigma^2 in % of trace(Dip) retained ...   1.55e+01
  | sigma^2 in % of trace(Dpq) retained ...   1.35e-01
  | Av. % of trace(Di) retained         ...  99.998507799156
  | Av. % of trace(Dp) retained         ...  99.999999747416
  | sigma^2 in % of trace(Di) retained  ...   7.45e-07
  | sigma^2 in % of trace(Dp) retained  ...   7.74e-14
 Distributions of % trace(Dij) recovered:
  |       >= 99.9  ...   103 ( 20.6 % of all IJ-pairs)
  |   [80.0, 90.0) ...    30 (  6.0 % of all IJ-pairs)
  |   [90.0, 99.0) ...   269 ( 53.9 % of all IJ-pairs)
  |   [99.0, 99.9) ...    97 ( 19.4 % of all IJ-pairs)
 Distributions of % trace(Dip) recovered:
  |   [80.0, 90.0) ...    13 ( 11.1 % of all IP-pairs)
  |   [90.0, 99.0) ...    63 ( 53.8 % of all IP-pairs)
  |   [99.0, 99.9) ...    41 ( 35.0 % of all IP-pairs)
 Distributions of % trace(Dpq) recovered:
  |       >= 99.9  ...     5 ( 33.3 % of all PQ-pairs)
  |   [99.0, 99.9) ...    10 ( 66.7 % of all PQ-pairs)
 Distributions of % trace(Di) recovered :
  |       >= 99.9  ...    43 (100.0 % of all I-pairs )
 Distributions of % trace(Dp) recovered :
  |       >= 99.9  ...     5 (100.0 % of all P-pairs )

                       ===========================
                       1097 OF 1670 PAIRS ARE KEPT
                       ===========================

 Initial PAO correlation energy (all pairs)    ...  -2.6990644896 Eh
 Energy constituents in PAO basis (Eh):
  | Vijab(+0) ...  -2.2704664467
  | Viab (-1) ...  -0.1749429121
  | Vab  (-2) ...  -0.0573645256
  | Va   (-1) ...  -0.0000436830
  | Vija (+1) ...  -0.0722782838
  | Vij  (+2) ...  -0.0155079069
  | Via  (+0) ...  -0.1083006222
  | Vi   (+1) ...  -0.0001601093
 Initial PNO correlation energy                ...  -2.6647643754 Eh
 Energy constituents in PNO basis (Eh):
  | Vijab(+0) ...  -2.2520055853 (err=  0.0184608615)
  | Viab (-1) ...  -0.1607173120 (err=  0.0142256001)
  | Vab  (-2) ...  -0.0569123861 (err=  0.0004521395)
  | Va   (-1) ...  -0.0000250673 (err=  0.0000186158)
  | Vija (+1) ...  -0.0712796904 (err=  0.0009985934)
  | Vij  (+2) ...  -0.0154556145 (err=  0.0000522924)
  | Via  (+0) ...  -0.1082089852 (err=  0.0000916370)
  | Vi   (+1) ...  -0.0001597346 (err=  0.0000003747)
 Sum of total truncation errors ...   0.0343001142 Eh
  | Pair screening ...   0.0112145374 Eh
  | PNO truncation ...   0.0230855768 Eh

 UMP2 correlation energy (PAO) ...  -2.6941273492
  | alpha-alpha ...  -0.3878552126 (NP_aa=  902)
  | alpha-beta  ...  -1.9980025711 (NP_ab= 1645)
  | beta -beta  ...  -0.3082695655 (NP_bb=  710)
 UMP2 correlation energy (PNO) ...  -2.6594419973
  | alpha-alpha ...  -0.3758533883 (err=  0.0120018243, NP_aa=  583)
  | alpha-beta  ...  -1.9793165132 (err=  0.0186860580, NP_ab= 1072)
  | beta -beta  ...  -0.3042720958 (err=  0.0039974697, NP_bb=  456)
 Sum of total UMP2 truncation errors ...   0.0346853520 Eh
  | Pair screening ...   0.0112312311 Eh
  | PNO truncation ...   0.0234541208 Eh
 Timing for NEV-PNO construction (sec.)
  | Intermediate construction  ..           46.124
  | Amplitude construction     ..           67.081
  | Total time                 ..          113.205
 Making pair pair interaction lists ...      ok
 Total size for 2-ext PNO integrals ...     11.2 MB
Checking the number of SOMO/SOMO doubles PNOs ... 
 #Truncate: (72, 72)[173] -> [87] .. 
 #Truncate: (73, 73)[173] -> [87] .. 
 #Truncate: (74, 74)[171] -> [87] .. 
 #Truncate: (75, 75)[173] -> [87] .. 
 #Truncate: (76, 76)[172] -> [87] .. 

--------------------------------
LOCAL RI TRANSFORMATION (VABPAO)
--------------------------------

Number of PAOs:    1030
Basis functions:   1025 (343 shells)
Aux. functions:    2424 (644 shells)

Processing maps (0.0 sec)
Average map sizes:
   Aux shells -> PAOs           1030.0
   PAOs       -> AO shells       343.0

Calculating integrals (1231.2 sec, 37370.165 MB)
Finished
-----------------------------
LOCAL RI TRANSFORMATION (IJV)
-----------------------------

Orbital window:      29 to 76
Basis functions:   1025 (343 shells)
Aux. functions:    2424 (644 shells)

Processing maps (0.0 sec)
Average map sizes:
   Aux shells -> MOs(i)           46.2
   Aux shells -> MOs(j)           48.0
   MOs        -> AO shells       338.5

Calculating integrals (22.5 sec, 41.125 MB)
Sorting integrals (0.3 sec, 41.098 MB)
Total time for the integral transformation: 24.1 sec


-------------------------------------
Pair Pair Term precalculation with     
RI-(ij|mn) and (im|jn) transformation  
ON THE FLY                             
-------------------------------------

   IBatch   1 (of   2)              ... done ( 3117.992 sec)
   IBatch   2 (of   2)              ... done ( 1208.410 sec)
Total EXT                           ...        4326.401 sec

---------------------
RI-PNO TRANSFORMATION
---------------------

Total Number of PNOs                   ... 34768
Total Number of IJ-PNOs                ... 30585
Total Number of IP-PNOs                ...  3220
Total Number of PQ-PNOs                ...   963
Total Number of IJ-pairs               ...   955
Total Number of PI-pairs               ...   117
Total Number of PQ-pairs               ...    25
Average number of PNOs per pair        ...    31
Maximal number of PNOs per pair        ...    87
>> Statistics for ij-pairs..
   #pairs with  1 -  5 PNOs   :    0
   #pairs with  6 - 10 PNOs   :    0
   #pairs with 11 - 15 PNOs   :   36
   #pairs with 16 - 20 PNOs   :  234
   #pairs with 21 - 25 PNOs   :  154
   #pairs with 26 - 30 PNOs   :  172
   #pairs with 31 - 35 PNOs   :   62
   #pairs with 36 - 40 PNOs   :   48
   #pairs with 41 - 45 PNOs   :   46
   #pairs with 46 - 50 PNOs   :   30
   #pairs with 51 - 55 PNOs   :   33
   #pairs with 56 - 60 PNOs   :   59
   #pairs with 61 - 65 PNOs   :   70
   #pairs with 66 - 70 PNOs   :    8
   #pairs with 76 - 80 PNOs   :    3
>> Statistics for ip-pairs..
   #pairs with  1 -  5 PNOs   :    0
   #pairs with  6 - 10 PNOs   :    1
   #pairs with 11 - 15 PNOs   :   15
   #pairs with 16 - 20 PNOs   :    3
   #pairs with 21 - 25 PNOs   :   26
   #pairs with 26 - 30 PNOs   :   14
   #pairs with 31 - 35 PNOs   :   45
   #pairs with 36 - 40 PNOs   :   13
   #pairs with 41 - 45 PNOs   :    0
   #pairs with 46 - 50 PNOs   :    0
>> Statistics for pq-pairs..
   #pairs with  1 -  5 PNOs   :    0
   #pairs with  6 - 10 PNOs   :    0
   #pairs with 11 - 15 PNOs   :    0
   #pairs with 16 - 20 PNOs   :    0
   #pairs with 21 - 25 PNOs   :   10
   #pairs with 26 - 30 PNOs   :   10
   #pairs with 31 - 35 PNOs   :    0
   #pairs with 36 - 40 PNOs   :    0
   #pairs with 41 - 45 PNOs   :    0
   #pairs with 46 - 50 PNOs   :    0
   #pairs with 86 - 90 PNOs   :    5

Generation of (ij|ab)[P] integrals            ... on
Generation of (ia|bc)[P],(ja|bc)[P] integrals ... on
Storage of 3 and 4 external integrals         ... on
Generation of ALL (ka|bc)[P] integrals        ... on
Keep RI integrals in memory                   ... off

Ibatch:  1 (of  1)
Starting 2-4 index PNO integral generation ... done

Timings:
Total PNO integral transformation time     ...       2013.477 sec
Size of the 3-external file                ...       294 MB
Size of the 4-external file                ...      2020 MB
Size of the IKJL file                      ...        18 MB
Size of the all 3-external file            ...      7079 MB
Size of the 1-external file                ...        22 MB

Size of the PAO/PNO coefficient matrices   ...     225.6 MB

Making pair/pair overlap matrices          ... done (  399.697 sec)
Size of the pair overlap file              ...    2476.0 MB
Total # unrestricted pairs ...       2111
  # of alpha-alpha pairs   ...        583
  # of alpha-beta pairs    ...       1072
  # of beta-beta pairs     ...        456
Constructing the guess amplitudes          ... done (    0.596 sec)

-------------------------
FINAL STARTUP INFORMATION
-------------------------

E(0)                                       ...  -3028.430376153
E(SL-UMP2 in NEV-PNO space)                ...     -2.695092460
Initial E(tot)                             ...  -3031.125468613
<T|T>                                      ...      0.537869077
Number of unrestricted pairs included      ... 2111
Total number of pairs                      ... 4095
----------------------------------------------------------
                     OPEN-SHELL COUPLED CLUSTER ITERATIONS
----------------------------------------------------------

Number of PNO amplitudes to be optimized        ...          2163241
Number of canonical amplitudes for strong pairs ...       1906666187
Untruncated number of canonical amplitudes      ...       3698645738

Iter       E(tot)           E(Corr)          Delta-E          Residual     Time
  0  -3031.132668500     -2.666641884      0.028450576      0.020747576 2016.76
                           *** Turning on DIIS ***
  1  -3031.242642899     -2.776616283     -0.109974399      0.008990124 2011.95
  2  -3031.307055855     -2.841029239     -0.064412956      0.008244219 1989.77
  3  -3031.328122309     -2.862095693     -0.021066454      0.002989682 1992.12
  4  -3031.335254013     -2.869227397     -0.007131704      0.002647561 1991.92
  5  -3031.339065073     -2.873038457     -0.003811060      0.001647486 2004.76
  6  -3031.340457598     -2.874430982     -0.001392524      0.000869524 2002.16
  7  -3031.341212498     -2.875185882     -0.000754901      0.000490781 2009.71
  8  -3031.341377271     -2.875350655     -0.000164773      0.000219231 2002.72
  9  -3031.341429525     -2.875402909     -0.000052253      0.000191515 2008.04
 10  -3031.341423721     -2.875397105      0.000005804      0.000104469 2010.78
 11  -3031.341435638     -2.875409021     -0.000011917      0.000080308 2006.69
 12  -3031.341442316     -2.875415700     -0.000006679      0.000034015 1993.92
 13  -3031.341444837     -2.875418221     -0.000002521      0.000016096 1985.13
 14  -3031.341446044     -2.875419427     -0.000001207      0.000007232 1981.52
               --- The CCSD iterations have converged ---

E(0)                                       ...  -3028.430376153
E(CORR)(strong-pairs)                      ...     -2.875419427
E(CORR)(weak-pairs)                        ...     -0.035650463
E(CORR)(corrected)                         ...     -2.911069890
E(TOT)                                     ...  -3031.341446044
Singles norm <S|S>**1/2                    ...      0.195326113 ( 0.067663680, 0.127662433)  
T1 diagnostic                              ...      0.020475740                              
<S**2>(linearized)                         ...      8.7507935 (ideal value:      8.7500000)

----------------------
LARGEST PNO AMPLITUDES
----------------------
  71a-> 77a  71b-> 77b       0.070737
  50b-> 76b  -1b-> -1b       0.054553
  51b-> 76b  -1b-> -1b       0.052979
  48b-> 72b  -1b-> -1b       0.051285
  71a-> 78a  71b-> 78b       0.050235
  30a-> 77a  -1a-> -1a       0.048671
  30b-> 77b  -1b-> -1b       0.046764
  48b-> 75b  -1b-> -1b       0.046107
  62a-> 77a  62b-> 77b       0.045674
  48b-> 74b  -1b-> -1b       0.045166
  66a-> 77a  66b-> 77b       0.045062
  70a-> 77a  70b-> 77b       0.043309
  58a-> 77a  58b-> 77b       0.042713
  57a-> 78a  57b-> 78b       0.042672
  61a-> 77a  61b-> 77b       0.042538
  39b-> 73b  -1b-> -1b       0.042185

Total # unrestricted pairs ...       1146
  # of alpha-alpha pairs   ...        319
  # of alpha-beta pairs    ...        573
  # of beta-beta pairs     ...        254

-------------------------------------------
DLPNO BASED TRIPLES CORRECTION
-------------------------------------------

Singles multiplier          ...  1.000000
Fragment selection                          .... not used
TCutTNO                     ... 1.000e-09
TCutMP2Pairs                ... 1.000e-05
TCutDOStrong                ... 2.000e-02
TCutMKNStrong               ... 1.000e-02
TCutDOWeak                  ... 4.000e-02
TCutMKNWeak                 ... 1.000e-01
NTCutTNO                    ... 1

Number of Triples that are to be computed         ...     33242

 . . . . . . . . .
10% done  
20% done  
30% done  
40% done  
50% done  
60% done  
70% done  
80% done  
90% done  
          Batch   1   done (  15482.529 sec)

Triples-Correction TCutTNO=   1.000e-09 (NWeakPairs = 0  1  2  3)  -0.118698738668   -0.001917284783    0.000000000000    0.000000000000
Triples-Correction  -0.120616023451

Triples timings:
Total time                      ... 16124.554 sec

Triples List generation         ...     0.000 sec
TNO generation                  ...   641.576 sec
Pair density generation         ...     0.086 sec
Look up tables                  ...     0.111 sec
Generating 3-index integrals    ...  9615.250 sec
Make 4-ind.int. from 3-ind.int  ...     3.601 sec
Projecting amplitudes (D + S)   ...  5596.051 sec
Sorting integrals for spin cases...    54.390 sec
Calculate W0/W1                 ...   171.918 sec
Energy contr. (sum over a,b,c)  ...    41.336 sec

Everything after 3-index        ...  6002.689 sec

Energy contribution AAA         ...    25.841 sec
Energy contribution AAB         ...   118.256 sec
Energy contribution ABB         ...   108.818 sec
Energy contribution BBB         ...    14.765 sec
prep                ...     3.216 sec
makeTTNO            ...  5538.516 sec
copyij              ...     0.129 sec
copyil              ...     4.116 sec
transposeij         ...     0.079 sec
newMatInDoubleProj  ...    54.258 sec
BlasInDoubleProj    ...  3009.346 sec
ProjSingles         ...    47.460 sec
ProjDoubles         ...  5548.590 sec
overall Doubles for projection      ... 2967337
used Doubles for projection         ... 2967337


Number of Triples   (0, 1, 2, 3 weak pairs; overall):  16514   11014       0       0  ( 27528)
Number of Atoms     (0, 1, 2, 3 weak pairs; overall):   19.4    14.9     0.0     0.0  (    29)
Number of PAOs      (0, 1, 2, 3 weak pairs; overall):  754.1   600.8     0.0     0.0  (  1025)
Number of AuxFcns   (0, 1, 2, 3 weak pairs; overall):  909.8   573.8     0.0     0.0  (  2424)
Number of TNOs (0, 1, 2, 3 weak pairs         ):   80.3    57.9     0.0     0.0
Aver. Number of NTNO, Atoms, PAOs, AuxFcns / Triples:  27528    71.3    17.6   692.7   775.4

Triples Correction (T)                     ...     -0.120616023
    alpha-alpha-alpha ... -0.003953330 (  3.3%)
    alpha-alpha-beta  ... -0.056605888 ( 46.9%)
    alpha-beta -beta  ... -0.055879186 ( 46.3%)
    beta -beta -beta  ... -0.004177620 (  3.5%)
Final correlation energy                   ...     -3.031685914
E(CCSD)                                    ...  -3031.341446044
E(CCSD(T))                                 ...  -3031.462062067

----------------------------
STATISTICS FOR PAIR-ENERGIES
----------------------------
Minimum, maximum and average ratios of UMP and CCSD pair-energies ... 0.55, 1.43, 1.02


------------------------------------------------------------------------------- 
                                     TIMINGS                                   
------------------------------------------------------------------------------- 


Total execution time                   ...    58472.614 sec

Localization of occupied MO's          ...       19.865 sec (  0.0%)
Fock Matrix Formation                  ...     1349.279 sec (  2.3%)
Differential overlap integrals         ...        1.385 sec (  0.0%)
Organizing maps                        ...        1.629 sec (  0.0%)
RI 3-index integral generations        ...     1315.593 sec (  2.2%)
RI-PNO integral transformation         ...     7300.701 sec ( 12.5%)
Initial Guess                          ...     2902.333 sec (  5.0%)
DIIS Solver                            ...       19.723 sec (  0.0%)
State Vector Update                    ...        0.764 sec (  0.0%)
Sigma-vector construction              ...    30007.958 sec ( 51.3%)
  <0|H|D>                              ...        0.031 sec (  0.0% of sigma)
  <D|H|D>(0-ext)                       ...     5687.776 sec ( 19.0% of sigma)
  <D|H|D>(2-ext Fock)                  ...        1.894 sec (  0.0% of sigma)
  <D|H|D>(2-ext)                       ...     4119.682 sec ( 13.7% of sigma)
  <D|H|D>(4-ext)                       ...      155.224 sec (  0.5% of sigma)
  <D|H|D>(4-ext-corr)                  ...      966.625 sec (  3.2% of sigma)
  CCSD doubles correction              ...      564.742 sec (  1.9% of sigma)
  <S|H|S>                              ...      848.078 sec (  2.8% of sigma)
  <S|H|D>(1-ext)                       ...      285.538 sec (  1.0% of sigma)
  <D|H|S>(1-ext)                       ...        0.819 sec (  0.0% of sigma)
  <S|H|D>(3-ext)                       ...       21.652 sec (  0.1% of sigma)
  CCSD singles correction              ...        0.004 sec (  0.0% of sigma)
  Fock-dressing                        ...     9193.346 sec ( 30.6% of sigma)
  Singles amplitudes                   ...      117.076 sec (  0.4% of sigma)
  (ik|jl)-dressing                     ...     6347.680 sec ( 21.2% of sigma)
  (ij|ab),(ia|jb)-dressing             ...     1666.781 sec (  5.6% of sigma)
  Pair energies                        ...        0.153 sec (  0.0% of sigma)
Total Time for computing (T)           ...    16159.536 sec ( 27.6% of ALL)


-------------------------   --------------------
FINAL SINGLE POINT ENERGY     -3031.462062066968
-------------------------   --------------------


                            ***************************************
                            *     ORCA property calculations      *
                            ***************************************

                                    ---------------------
                                    Active property flags
                                    ---------------------
   (+) Dipole Moment


------------------------------------------------------------------------------
                       ORCA ELECTRIC PROPERTIES CALCULATION
------------------------------------------------------------------------------

Dipole Moment Calculation                       ... on
Quadrupole Moment Calculation                   ... off
Polarizability Calculation                      ... off
GBWName                                         ... simple-grid-200-280-b3lyp_d3bj-631gd-gas-singlepoint-DLPNO_CCSD_T1-NormalPNO-augtz-gas.gbw
Electron density file                           ... simple-grid-200-280-b3lyp_d3bj-631gd-gas-singlepoint-DLPNO_CCSD_T1-NormalPNO-augtz-gas.scfp.tmp
The origin for moment calculation is the CENTER OF MASS  = ( 0.322545,  0.046130 -0.007521)

-------------
DIPOLE MOMENT
-------------
                                X             Y             Z
Electronic contribution:     43.13290       6.21700      -1.25674
Nuclear contribution   :    -48.05919      -6.87336       1.12069
                        -----------------------------------------
Total Dipole Moment    :     -4.92629      -0.65636      -0.13605
                        -----------------------------------------
Magnitude (a.u.)       :      4.97169
Magnitude (Debye)      :     12.63702



--------------------
Rotational spectrum 
--------------------
 
Rotational constants in cm-1:     0.019658     0.010369     0.009900 
Rotational constants in MHz :   589.326936   310.846643   296.795102 

 Dipole components along the rotational axes: 
x,y,z [a.u.] :    -4.927039     0.634555    -0.198219 
x,y,z [Debye]:   -12.523539     1.612911    -0.503832 

 

Timings for individual modules:

Sum of individual times         ...    80119.018 sec (=1335.317 min)
GTO integral calculation        ...       13.044 sec (=   0.217 min)   0.0 %
SCF iterations                  ...    21612.805 sec (= 360.213 min)  27.0 %
MDCI module                     ...    58493.169 sec (= 974.886 min)  73.0 %
                             ****ORCA TERMINATED NORMALLY****
TOTAL RUN TIME: 0 days 22 hours 15 minutes 22 seconds 587 msec
