
                                 *****************
                                 * O   R   C   A *
                                 *****************

           --- An Ab Initio, DFT and Semiempirical electronic structure package ---

                  #######################################################
                  #                        -***-                        #
                  #          Department of theory and spectroscopy      #
                  #               Directorship: Frank Neese             #
                  #        Max Planck Institute fuer Kohlenforschung    #
                  #                Kaiser Wilhelm Platz 1               #
                  #                 D-45470 Muelheim/Ruhr               #
                  #                      Germany                        #
                  #                                                     #
                  #                  All rights reserved                #
                  #                        -***-                        #
                  #######################################################


                         Program Version 4.1.2  - RELEASE  -


 With contributions from (in alphabetic order):
   Daniel Aravena         : Magnetic Properties
   Michael Atanasov       : Ab Initio Ligand Field Theory
   Alexander A. Auer      : GIAO ZORA
   Ute Becker             : Parallelization
   Giovanni Bistoni       : ED, Open-shell LED
   Martin Brehm           : Molecular dynamics
   Dmytro Bykov           : SCF Hessian
   Vijay G. Chilkuri      : MRCI spin determinant printing
   Dipayan Datta          : RHF DLPNO-CCSD density
   Achintya Kumar Dutta   : EOM-CC, STEOM-CC
   Dmitry Ganyushin       : Spin-Orbit,Spin-Spin,Magnetic field MRCI
   Miquel Garcia          : C-PCM Hessian
   Yang Guo               : DLPNO-NEVPT2, CIM, IAO-localization
   Andreas Hansen         : Spin unrestricted coupled pair/coupled cluster methods
   Benjamin Helmich-Paris : CASSCF linear response (MC-RPA)
   Lee Huntington         : MR-EOM, pCC
   Robert Izsak           : Overlap fitted RIJCOSX, COSX-SCS-MP3, EOM
   Christian Kollmar      : KDIIS, OOCD, Brueckner-CCSD(T), CCSD density
   Simone Kossmann        : Meta GGA functionals, TD-DFT gradient, OOMP2, MP2 Hessian
   Martin Krupicka        : AUTO-CI
   Lucas Lang             : DCDCAS
   Dagmar Lenk            : GEPOL surface, SMD
   Dimitrios Liakos       : Extrapolation schemes; parallel MDCI
   Dimitrios Manganas     : ROCIS; embedding schemes
   Dimitrios Pantazis     : SARC Basis sets
   Taras Petrenko         : DFT Hessian,TD-DFT gradient, ASA, ECA, R-Raman, ABS, FL, XAS/XES, NRVS
   Peter Pinski           : DLPNO-MP2, DLPNO-MP2 Gradient
   Christoph Reimann      : Effective Core Potentials
   Marius Retegan         : Local ZFS, SOC
   Christoph Riplinger    : Optimizer, TS searches, QM/MM, DLPNO-CCSD(T), (RO)-DLPNO pert. Triples
   Tobias Risthaus        : Range-separated hybrids, TD-DFT gradient, RPA, STAB
   Michael Roemelt        : Restricted open shell CIS
   Masaaki Saitow         : Open-shell DLPNO
   Barbara Sandhoefer     : DKH picture change effects
   Avijit Sen             : IP-ROCIS
   Kantharuban Sivalingam : CASSCF convergence, NEVPT2, FIC-MRCI
   Bernardo de Souza      : ESD, SOC TD-DFT
   Georgi Stoychev        : AutoAux, RI-MP2 NMR
   Willem Van den Heuvel  : Paramagnetic NMR
   Boris Wezisla          : Elementary symmetry handling
   Frank Wennmohs         : Technical directorship


 We gratefully acknowledge several colleagues who have allowed us to
 interface, adapt or use parts of their codes:
   Stefan Grimme, W. Hujo, H. Kruse,             : VdW corrections, initial TS optimization,
                  C. Bannwarth                     DFT functionals, gCP, sTDA/sTD-DF
   Ed Valeev                                     : LibInt (2-el integral package), F12 methods
   Garnet Chan, S. Sharma, J. Yang, R. Olivares  : DMRG
   Ulf Ekstrom                                   : XCFun DFT Library
   Mihaly Kallay                                 : mrcc  (arbitrary order and MRCC methods)
   Andreas Klamt, Michael Diedenhofen            : otool_cosmo (COSMO solvation model)
   Jiri Pittner, Ondrej Demel                    : Mk-CCSD
   Frank Weinhold                                : gennbo (NPA and NBO analysis)
   Christopher J. Cramer and Donald G. Truhlar   : smd solvation model
   Lars Goerigk                                  : TD-DFT with DH, B97 family of functionals
   V. Asgeirsson, H. Jonsson                     : NEB implementation
   FAccTs GmbH                                   : IRC, NEB, NEB-TS, Multilevel


 Your calculation uses the libint2 library for the computation of 2-el integrals
 For citations please refer to: http://libint.valeyev.net

 This ORCA versions uses:
   CBLAS   interface :  Fast vector & matrix operations
   LAPACKE interface :  Fast linear algebra routines
   SCALAPACK package :  Parallel linear algebra routines


----- Orbital basis set information -----
Your calculation utilizes the basis: aug-cc-pVTZ 
    H, B-Ne : Obtained from the ccRepo (grant-hill.group.shef.ac.uk/ccrepo) Feb. 2017
              R. A. Kendall, T. H. Dunning, Jr., R. J. Harrison, J. Chem. Phys. 96, 6796 (1992)
         He : Obtained from the ccRepo (grant-hill.group.shef.ac.uk/ccrepo) Feb. 2017
              D. E. Woon, T. H. Dunning, Jr., J. Chem. Phys. 100, 2975 (1994)
  Li-Be, Na : Obtained from the ccRepo (grant-hill.group.shef.ac.uk/ccrepo) Feb. 2017
              B. P. Prascher, D. E. Woon, K. A. Peterson, T. H. Dunning, Jr., A. K. Wilson, Theor. Chem. Acc. 128, 69 (2011)
         Mg : Obtained from the Peterson Research Group Website (tyr0.chem.wsu.edu/~kipeters) Feb. 2017
              B. P. Prascher, D. E. Woon, K. A. Peterson, T. H. Dunning, Jr., A. K. Wilson, Theor. Chem. Acc. 128, 69 (2011)
      Al-Ar : Obtained from the ccRepo (grant-hill.group.shef.ac.uk/ccrepo) Feb. 2017
              D. E. Woon, T. H. Dunning, Jr., J. Chem. Phys. 98, 1358 (1993)
      Sc-Zn : Obtained from the ccRepo (grant-hill.group.shef.ac.uk/ccrepo) Feb. 2017
              N. B. Balabanov, K. A. Peterson, J. Chem. Phys. 123, 064107 (2005)
              N. B. Balabanov, K. A. Peterson, J. Chem. Phys. 125, 074110 (2006)
      Ga-Kr : Obtained from the ccRepo (grant-hill.group.shef.ac.uk/ccrepo) Feb. 2017
              A. K. Wilson, D. E. Woon, K. A. Peterson, T. H. Dunning, Jr., J. Chem. Phys. 110, 7667 (1999)
     Ag, Au : Obtained from the Peterson Research Group Website (tyr0.chem.wsu.edu/~kipeters) Feb. 2017
              K. A. Peterson, C. Puzzarini, Theor. Chem. Acc. 114, 283 (2005)

----- AuxJ basis set information -----
Your calculation utilizes the AutoAux generation procedure.
  G. L. Stoychev, A. A. Auer, F. Neese, J. Chem. Theory Comput. 13, 554 (2017)

----- AuxC basis set information -----
Your calculation utilizes the auxiliary basis: aug-cc-pVTZ/C 
  H-He, B-F, Al-Ar, Ga-Kr : Obtained from the EMSL Basis Set Exchange (bse.pnl.gov) Feb. 2017
                            F. Weigend, A. Kohn, C. Hattig, J. Chem. Phys. 116, 3175 (2002)
                   Be, Mg : Obtained from the TURBOMOLE 7.0 basis set library
                            C. Haettig, Phys. Chem. Chem. Phys. 7, 59 (2005)
                       Ne : Obtained from the EMSL Basis Set Exchange (bse.pnl.gov) Feb. 2017
                            C. Haettig, Phys. Chem. Chem. Phys. 7, 59 (2005)
                            F. Weigend, A. Kohn, C. Hattig, J. Chem. Phys. 116, 3175 (2002)
                    Sc-Zn : Obtained from the EMSL Basis Set Exchange (bse.pnl.gov) Feb. 2017
                            J. G. Hill, J. A. Platts, J. Chem. Phys. 128, 044104 (2008)

----- AuxJK basis set information -----
Your calculation utilizes the AutoAux generation procedure.
  G. L. Stoychev, A. A. Auer, F. Neese, J. Chem. Theory Comput. 13, 554 (2017)

================================================================================
                                        WARNINGS
                       Please study these warnings very carefully!
================================================================================


WARNING: your system is open-shell and RHF/RKS was chosen
  ===> : WILL SWITCH to UHF/UKS


WARNING: MDCI localization with Augmented Hessian Foster-Boys
  ===> : Switching off randomization!

WARNING: Post HF methods need fully converged wavefunctions
  ===> : Setting SCFConvForced true
         You can overwrite this default with %scf ConvForced false 


INFO   : the flag for use of LIBINT has been found!

================================================================================
                                       INPUT FILE
================================================================================
NAME = simple-grid-190-235-b3lyp_d3bj-631gd-gas-singlepoint-DLPNO_CCSD_T1-NormalPNO-augtz-gas.inp
|  1> ! aug-cc-pVTZ aug-cc-pVTZ/C DLPNO-CCSD(T1) TightSCF NormalPNO UNO MiniPrint AutoAux
|  2> %pal nproc 10 end
|  3> %maxcore 20000
|  4> %mdci
|  5>      density none
|  6> end
|  7> 
|  8> * xyz 0 6
|  9>  O     -0.33813400     -0.14037500     -0.64906000
| 10>  C     -1.29494000     -1.07527100     -0.54598700
| 11>  C     -2.82611600     -0.22548800      0.19114600
| 12>  C     -2.31406700      1.03479100     -0.16206700
| 13>  C     -2.51925000      1.61877600     -1.51185200
| 14> Fe      1.39264700      0.08343900      0.01344000
| 15> Cl      1.91353400      2.10164900     -0.71441900
| 16>  C     -1.55859800      1.87507900      0.79504200
| 17> Cl      2.60232600     -1.58297200     -0.75994800
| 18> Cl      1.21292100      0.02258400      2.23635500
| 19>  H     -3.60397000     -0.59509500     -0.47515500
| 20>  H     -2.30388200      2.51884500      1.29239900
| 21>  H     -1.05144200      1.30203300      1.57103200
| 22>  H     -0.83895400      2.52156100      0.28669500
| 23>  H     -2.87595800      2.65067000     -1.39870100
| 24>  H     -1.54183400      1.68297200     -2.00747500
| 25>  H     -3.22251700      1.05996800     -2.12996900
| 26>  C     -3.05089000     -0.57887400      1.65107400
| 27>  H     -3.88188900      0.01308500      2.05295000
| 28>  H     -3.31906000     -1.63242200      1.75447200
| 29>  H     -2.17335500     -0.39180400      2.27318800
| 30>  C     -0.98833700     -2.20951400      0.41339200
| 31>  H     -1.81502100     -2.91862900      0.49881000
| 32>  H     -0.12376500     -2.73384700     -0.01506800
| 33>  H     -0.69317600     -1.84904500      1.39864500
| 34>  C     -1.76532600     -1.56811400     -1.90677200
| 35>  H     -0.91595800     -2.10119900     -2.35032400
| 36>  H     -2.61062000     -2.25726300     -1.82819600
| 37>  H     -2.01648300     -0.74597500     -2.57792800
| 38> *
| 39> 
| 40> 
| 41>                          ****END OF INPUT****
================================================================================

                       ****************************
                       * Single Point Calculation *
                       ****************************

---------------------------------
CARTESIAN COORDINATES (ANGSTROEM)
---------------------------------
  O     -0.338134   -0.140375   -0.649060
  C     -1.294940   -1.075271   -0.545987
  C     -2.826116   -0.225488    0.191146
  C     -2.314067    1.034791   -0.162067
  C     -2.519250    1.618776   -1.511852
  Fe     1.392647    0.083439    0.013440
  Cl     1.913534    2.101649   -0.714419
  C     -1.558598    1.875079    0.795042
  Cl     2.602326   -1.582972   -0.759948
  Cl     1.212921    0.022584    2.236355
  H     -3.603970   -0.595095   -0.475155
  H     -2.303882    2.518845    1.292399
  H     -1.051442    1.302033    1.571032
  H     -0.838954    2.521561    0.286695
  H     -2.875958    2.650670   -1.398701
  H     -1.541834    1.682972   -2.007475
  H     -3.222517    1.059968   -2.129969
  C     -3.050890   -0.578874    1.651074
  H     -3.881889    0.013085    2.052950
  H     -3.319060   -1.632422    1.754472
  H     -2.173355   -0.391804    2.273188
  C     -0.988337   -2.209514    0.413392
  H     -1.815021   -2.918629    0.498810
  H     -0.123765   -2.733847   -0.015068
  H     -0.693176   -1.849045    1.398645
  C     -1.765326   -1.568114   -1.906772
  H     -0.915958   -2.101199   -2.350324
  H     -2.610620   -2.257263   -1.828196
  H     -2.016483   -0.745975   -2.577928

----------------------------
CARTESIAN COORDINATES (A.U.)
----------------------------
  NO LB      ZA    FRAG     MASS         X           Y           Z
   0 O     8.0000    0    15.999   -0.638981   -0.265270   -1.226546
   1 C     6.0000    0    12.011   -2.447082   -2.031968   -1.031766
   2 C     6.0000    0    12.011   -5.340585   -0.426111    0.361214
   3 C     6.0000    0    12.011   -4.372953    1.955472   -0.306262
   4 C     6.0000    0    12.011   -4.760693    3.059043   -2.856986
   5 Fe   26.0000    0    55.850    2.631721    0.157677    0.025398
   6 Cl   17.0000    0    35.453    3.616055    3.971541   -1.350056
   7 C     6.0000    0    12.011   -2.945323    3.543386    1.502412
   8 Cl   17.0000    0    35.453    4.917683   -2.991384   -1.436094
   9 Cl   17.0000    0    35.453    2.292089    0.042678    4.226098
  10 H     1.0000    0     1.008   -6.810516   -1.124567   -0.897913
  11 H     1.0000    0     1.008   -4.353706    4.759927    2.442280
  12 H     1.0000    0     1.008   -1.986937    2.460486    2.968820
  13 H     1.0000    0     1.008   -1.585393    4.765060    0.541775
  14 H     1.0000    0     1.008   -5.434773    5.009040   -2.643162
  15 H     1.0000    0     1.008   -2.913644    3.180356   -3.793578
  16 H     1.0000    0     1.008   -6.089675    2.003049   -4.025058
  17 C     6.0000    0    12.011   -5.765347   -1.093913    3.120078
  18 H     1.0000    0     1.008   -7.335707    0.024727    3.879513
  19 H     1.0000    0     1.008   -6.272114   -3.084831    3.315472
  20 H     1.0000    0     1.008   -4.107046   -0.740402    4.295703
  21 C     6.0000    0    12.011   -1.867686   -4.175376    0.781198
  22 H     1.0000    0     1.008   -3.429893   -5.515409    0.942614
  23 H     1.0000    0     1.008   -0.233882   -5.166222   -0.028474
  24 H     1.0000    0     1.008   -1.309913   -3.494189    2.643056
  25 C     6.0000    0    12.011   -3.335983   -2.963306   -3.603277
  26 H     1.0000    0     1.008   -1.730910   -3.970691   -4.441469
  27 H     1.0000    0     1.008   -4.933357   -4.265609   -3.454790
  28 H     1.0000    0     1.008   -3.810601   -1.409688   -4.871578



           ************************************************************
           *        Program running with 10 parallel MPI-processes    *
           *              working on a common directory               *
           ************************************************************


           ************************************************************
           *        Program running with 10 parallel MPI-processes    *
           *              working on a common directory               *
           ************************************************************

Diagonalization of the overlap matrix:
Smallest eigenvalue                        ... 5.727e-07
Time for diagonalization                   ...    0.377 sec
Threshold for overlap eigenvalues          ... 1.000e-08
Number of eigenvalues below threshold      ... 0
Time for construction of square roots      ...    0.321 sec
Total time needed                          ...    0.703 sec

-------------------
DFT GRID GENERATION
-------------------

General Integration Accuracy     IntAcc      ...  4.340
Radial Grid Type                 RadialGrid  ... Gauss-Chebyshev
Angular Grid (max. acc.)         AngularGrid ... Lebedev-110
Angular grid pruning method      GridPruning ... 3 (G Style)
Weight generation scheme         WeightScheme... Becke
Basis function cutoff            BFCut       ...    1.0000e-11
Integration weight cutoff        WCut        ...    1.0000e-14
Grids for H and He will be reduced by one unit

# of grid points (after initial pruning)     ...  36112 (   0.0 sec)
# of grid points (after weights+screening)   ...  32260 (   0.1 sec)
nearest neighbour list constructed           ...    0.0 sec
Grid point re-assignment to atoms done       ...    0.0 sec
Grid point division into batches done        ...    0.0 sec
Reduced shell lists constructed in    0.2 sec

Total number of grid points                  ...    32260
Total number of batches                      ...      520
Average number of points per batch           ...       62
Average number of grid points per atom       ...     1112
Average number of shells per batch           ...   294.43 (85.84%)
Average number of basis functions per batch  ...   876.21 (85.48%)
Average number of large shells per batch     ...   243.77 (82.79%)
Average number of large basis fcns per batch ...   725.02 (82.75%)
Maximum spatial batch extension              ...   2.50,  3.27,  4.53 au
Average spatial batch extension              ...   0.17,  0.17,  0.17 au

Time for grid setup =    0.448 sec

Loading Hartree-Fock densities                     ... done
Calculating cut-offs                               ... done
Setting up the integral package                    ... done
Initializing the effective Hamiltonian             ... done
Starting the Coulomb interaction                   ... done (   1.1 sec)
Reading the grid                                   ... done
Mapping shells                                     ... done
Starting the XC term evaluation                    ... done (   0.8 sec)
Transforming the Hamiltonian                       ... done (   0.2 sec)
Diagonalizing the Hamiltonian                      ... done (   0.3 sec)
Back transforming the eigenvectors                 ... done (   0.1 sec)
Now organizing SCF variables                       ... done
--------------
SCF ITERATIONS
--------------
ITER       Energy         Delta-E        Max-DP      RMS-DP      [F,P]     Damp
               ***  Starting incremental Fock matrix formation  ***
  0  -3027.5702854996   0.000000000000 0.25137638  0.00122370  0.2890840 0.7000
  1  -3027.8184739846  -0.248188484942 0.18137257  0.00094253  0.1684808 0.7000
                               ***Turning on DIIS***
  2  -3027.9851288341  -0.166654849594 0.12730231  0.00068953  0.1094205 0.7000
  3  -3029.6768257682  -1.691696934059 0.29086794  0.00171417  0.0823068 0.0000
  4  -3028.2912612649   1.385564503292 0.04658009  0.00022912  0.0189269 0.0000
  5  -3028.4119198568  -0.120658591910 0.03955790  0.00017204  0.0116608 0.0000
  6  -3028.4384880164  -0.026568159601 0.02007858  0.00006962  0.0053827 0.0000
  7  -3028.4513068484  -0.012818831945 0.00893216  0.00003133  0.0032605 0.0000
  8  -3028.4485157214   0.002791127010 0.00581645  0.00001848  0.0013694 0.0000
  9  -3028.4390823406   0.009433380715 0.00226015  0.00001066  0.0006994 0.0000
 10  -3028.4286092415   0.010473099163 0.00091586  0.00000343  0.0004153 0.0000
 11  -3028.4346130310  -0.006003789487 0.00040177  0.00000195  0.0000836 0.0000
 12  -3028.4318193688   0.002793662127 0.00030239  0.00000129  0.0000308 0.0000
 13  -3028.4319022157  -0.000082846856 0.00162437  0.00000277  0.0000114 0.0000
 14  -3028.4319756611  -0.000073445399 0.00039872  0.00000228  0.0000065 0.0000
 15  -3028.4318985977   0.000077063403 0.00132359  0.00000291  0.0000033 0.0000
 16  -3028.4319302944  -0.000031696665 0.00108430  0.00000279  0.0000024 0.0000
 17  -3028.4319492195  -0.000018925110 0.00137621  0.00000252  0.0000013 0.0000
                            ***DIIS convergence achieved***

               *****************************************************
               *                     SUCCESS                       *
               *           SCF CONVERGED AFTER  18 CYCLES          *
               *****************************************************

Total Energy       :        -3028.43192844 Eh          -82407.82231 eV
  Last Energy change         ...    2.0780e-05  Tolerance :   1.0000e-08
  Last MAX-Density change    ...    1.7838e-03  Tolerance :   1.0000e-07
             **** THE GBW FILE WAS UPDATED (simple-grid-190-235-b3lyp_d3bj-631gd-gas-singlepoint-DLPNO_CCSD_T1-NormalPNO-augtz-gas.gbw) ****
             **** DENSITY FILE WAS UPDATED (simple-grid-190-235-b3lyp_d3bj-631gd-gas-singlepoint-DLPNO_CCSD_T1-NormalPNO-augtz-gas.scfp.tmp) ****
             **** ENERGY FILE WAS UPDATED (simple-grid-190-235-b3lyp_d3bj-631gd-gas-singlepoint-DLPNO_CCSD_T1-NormalPNO-augtz-gas.en.tmp) ****
----------------------
UHF SPIN CONTAMINATION
----------------------

Expectation value of <S**2>     :     8.764303
Ideal value S*(S+1) for S=2.5   :     8.750000
Deviation                       :     0.014303

----------------
ORBITAL ENERGIES
----------------
                 SPIN UP ORBITALS
  NO   OCC          E(Eh)            E(eV) 
   0   1.0000    -261.549046     -7117.1114 
   1   1.0000    -104.776222     -2851.1060 
   2   1.0000    -104.773892     -2851.0426 
   3   1.0000    -104.772020     -2850.9916 
   4   1.0000     -32.216948      -876.6677 
   5   1.0000     -27.692830      -753.5602 
   6   1.0000     -27.692679      -753.5561 
   7   1.0000     -27.692418      -753.5490 
   8   1.0000     -20.548610      -559.1561 
   9   1.0000     -11.377440      -309.5959 
  10   1.0000     -11.376583      -309.5726 
  11   1.0000     -11.281920      -306.9967 
  12   1.0000     -11.280961      -306.9705 
  13   1.0000     -11.267066      -306.5924 
  14   1.0000     -11.258528      -306.3601 
  15   1.0000     -11.251149      -306.1593 
  16   1.0000     -11.243041      -305.9387 
  17   1.0000     -10.502796      -285.7956 
  18   1.0000     -10.500428      -285.7312 
  19   1.0000     -10.498582      -285.6809 
  20   1.0000      -7.969692      -216.8663 
  21   1.0000      -7.968815      -216.8425 
  22   1.0000      -7.968772      -216.8413 
  23   1.0000      -7.967249      -216.7999 
  24   1.0000      -7.966524      -216.7801 
  25   1.0000      -7.966439      -216.7778 
  26   1.0000      -7.965407      -216.7497 
  27   1.0000      -7.964684      -216.7301 
  28   1.0000      -7.964608      -216.7280 
  29   1.0000      -4.572364      -124.4203 
  30   1.0000      -3.184899       -86.6655 
  31   1.0000      -3.184482       -86.6542 
  32   1.0000      -3.183965       -86.6401 
  33   1.0000      -1.386886       -37.7391 
  34   1.0000      -1.182823       -32.1862 
  35   1.0000      -1.085068       -29.5262 
  36   1.0000      -1.046788       -28.4846 
  37   1.0000      -1.043715       -28.4009 
  38   1.0000      -1.041213       -28.3328 
  39   1.0000      -1.038906       -28.2701 
  40   1.0000      -1.006109       -27.3776 
  41   1.0000      -0.977864       -26.6090 
  42   1.0000      -0.934300       -25.4236 
  43   1.0000      -0.913355       -24.8537 
  44   1.0000      -0.901931       -24.5428 
  45   1.0000      -0.901802       -24.5393 
  46   1.0000      -0.893369       -24.3098 
  47   1.0000      -0.892954       -24.2985 
  48   1.0000      -0.785929       -21.3862 
  49   1.0000      -0.765911       -20.8415 
  50   1.0000      -0.702110       -19.1054 
  51   1.0000      -0.693146       -18.8615 
  52   1.0000      -0.673526       -18.3276 
  53   1.0000      -0.650661       -17.7054 
  54   1.0000      -0.645599       -17.5676 
  55   1.0000      -0.626693       -17.0532 
  56   1.0000      -0.599798       -16.3213 
  57   1.0000      -0.596052       -16.2194 
  58   1.0000      -0.591692       -16.1008 
  59   1.0000      -0.580349       -15.7921 
  60   1.0000      -0.578174       -15.7329 
  61   1.0000      -0.561190       -15.2708 
  62   1.0000      -0.556642       -15.1470 
  63   1.0000      -0.546667       -14.8756 
  64   1.0000      -0.535150       -14.5622 
  65   1.0000      -0.529631       -14.4120 
  66   1.0000      -0.510349       -13.8873 
  67   1.0000      -0.473886       -12.8951 
  68   1.0000      -0.461316       -12.5530 
  69   1.0000      -0.450910       -12.2699 
  70   1.0000      -0.427130       -11.6228 
  71   1.0000      -0.425163       -11.5693 
  72   1.0000      -0.422836       -11.5060 
  73   1.0000      -0.414485       -11.2787 
  74   1.0000      -0.413355       -11.2480 
  75   1.0000      -0.411906       -11.2085 
  76   1.0000      -0.394923       -10.7464 
  77   0.0000       0.007478         0.2035 
  78   0.0000       0.018811         0.5119 
  79   0.0000       0.020786         0.5656 
  80   0.0000       0.024685         0.6717 
  81   0.0000       0.030648         0.8340 
  82   0.0000       0.037830         1.0294 
  83   0.0000       0.039772         1.0823 
  84   0.0000       0.044599         1.2136 
  85   0.0000       0.045100         1.2272 
  86   0.0000       0.046834         1.2744 
  87   0.0000       0.056486         1.5371 
  88   0.0000       0.058928         1.6035 
  89   0.0000       0.061642         1.6774 
  90   0.0000       0.065940         1.7943 
  91   0.0000       0.066911         1.8208 
  92   0.0000       0.072159         1.9635 
  93   0.0000       0.073493         1.9998 
  94   0.0000       0.077262         2.1024 
  95   0.0000       0.089255         2.4288 
  96   0.0000       0.090017         2.4495 
  97   0.0000       0.093219         2.5366 
  98   0.0000       0.095293         2.5931 
  99   0.0000       0.100012         2.7215 
 100   0.0000       0.100380         2.7315 
 101   0.0000       0.110754         3.0138 
 102   0.0000       0.113254         3.0818 
 103   0.0000       0.120735         3.2854 
 104   0.0000       0.122315         3.3284 
 105   0.0000       0.126424         3.4402 
 106   0.0000       0.127334         3.4649 
 107   0.0000       0.128965         3.5093 
 108   0.0000       0.132559         3.6071 
 109   0.0000       0.134719         3.6659 
 110   0.0000       0.138286         3.7629 
 111   0.0000       0.140237         3.8160 
 112   0.0000       0.141888         3.8610 
 113   0.0000       0.145421         3.9571 
 114   0.0000       0.151616         4.1257 
 115   0.0000       0.153470         4.1761 
 116   0.0000       0.156076         4.2470 
 117   0.0000       0.163398         4.4463 
 118   0.0000       0.165160         4.4942 
 119   0.0000       0.168139         4.5753 
 120   0.0000       0.168659         4.5894 
 121   0.0000       0.170506         4.6397 
 122   0.0000       0.174751         4.7552 
 123   0.0000       0.176281         4.7968 
 124   0.0000       0.181350         4.9348 
 125   0.0000       0.187998         5.1157 
 126   0.0000       0.189913         5.1678 
 127   0.0000       0.197423         5.3722 
 128   0.0000       0.199098         5.4177 
 129   0.0000       0.202892         5.5210 
 130   0.0000       0.203684         5.5425 
 131   0.0000       0.207098         5.6354 
 132   0.0000       0.210580         5.7302 
 133   0.0000       0.210619         5.7312 
 134   0.0000       0.213914         5.8209 
 135   0.0000       0.216716         5.8971 
 136   0.0000       0.222906         6.0656 
 137   0.0000       0.225318         6.1312 
 138   0.0000       0.228947         6.2300 
 139   0.0000       0.231770         6.3068 
 140   0.0000       0.235235         6.4011 
 141   0.0000       0.238578         6.4920 
 142   0.0000       0.238923         6.5014 
 143   0.0000       0.246598         6.7103 
 144   0.0000       0.248737         6.7685 
 145   0.0000       0.249537         6.7903 
 146   0.0000       0.253022         6.8851 
 147   0.0000       0.253174         6.8892 
 148   0.0000       0.262406         7.1404 
 149   0.0000       0.265782         7.2323 
 150   0.0000       0.268068         7.2945 
 151   0.0000       0.270344         7.3564 
 152   0.0000       0.276110         7.5133 
 153   0.0000       0.279482         7.6051 
 154   0.0000       0.281691         7.6652 
 155   0.0000       0.286048         7.7838 
 156   0.0000       0.291913         7.9434 
 157   0.0000       0.294964         8.0264 
 158   0.0000       0.301679         8.2091 
 159   0.0000       0.305263         8.3066 
 160   0.0000       0.308851         8.4043 
 161   0.0000       0.313940         8.5428 
 162   0.0000       0.318813         8.6753 
 163   0.0000       0.322291         8.7700 
 164   0.0000       0.324509         8.8303 
 165   0.0000       0.329359         8.9623 
 166   0.0000       0.333550         9.0763 
 167   0.0000       0.336856         9.1663 
 168   0.0000       0.341211         9.2848 
 169   0.0000       0.345886         9.4120 
 170   0.0000       0.347932         9.4677 
 171   0.0000       0.353974         9.6321 
 172   0.0000       0.358315         9.7502 
 173   0.0000       0.358520         9.7558 
 174   0.0000       0.362621         9.8674 
 175   0.0000       0.364543         9.9197 
 176   0.0000       0.368537        10.0284 
 177   0.0000       0.370392        10.0789 
 178   0.0000       0.373829        10.1724 
 179   0.0000       0.379778        10.3343 
 180   0.0000       0.382408        10.4059 
 181   0.0000       0.383706        10.4412 
 182   0.0000       0.386992        10.5306 
 183   0.0000       0.392137        10.6706 
 184   0.0000       0.393255        10.7010 
 185   0.0000       0.395362        10.7583 
 186   0.0000       0.397404        10.8139 
 187   0.0000       0.400859        10.9079 
 188   0.0000       0.404282        11.0011 
 189   0.0000       0.411167        11.1884 
 190   0.0000       0.413808        11.2603 
 191   0.0000       0.417645        11.3647 
 192   0.0000       0.419850        11.4247 
 193   0.0000       0.425701        11.5839 
 194   0.0000       0.430775        11.7220 
 195   0.0000       0.433132        11.7861 
 196   0.0000       0.436851        11.8873 
 197   0.0000       0.440280        11.9806 
 198   0.0000       0.444562        12.0971 
 199   0.0000       0.447504        12.1772 
 200   0.0000       0.452957        12.3256 
 201   0.0000       0.453455        12.3391 
 202   0.0000       0.458820        12.4851 
 203   0.0000       0.464703        12.6452 
 204   0.0000       0.465331        12.6623 
 205   0.0000       0.471264        12.8237 
 206   0.0000       0.473071        12.8729 
 207   0.0000       0.475435        12.9372 
 208   0.0000       0.478453        13.0194 
 209   0.0000       0.482327        13.1248 
 210   0.0000       0.483654        13.1609 
 211   0.0000       0.486730        13.2446 
 212   0.0000       0.491150        13.3649 
 213   0.0000       0.495719        13.4892 
 214   0.0000       0.498669        13.5695 
 215   0.0000       0.499216        13.5843 
 216   0.0000       0.501655        13.6507 
 217   0.0000       0.505448        13.7539 
 218   0.0000       0.506845        13.7920 
 219   0.0000       0.511149        13.9091 
 220   0.0000       0.515568        14.0293 
 221   0.0000       0.518239        14.1020 
 222   0.0000       0.522398        14.2152 
 223   0.0000       0.524464        14.2714 
 224   0.0000       0.528593        14.3837 
 225   0.0000       0.531993        14.4763 
 226   0.0000       0.536018        14.5858 
 227   0.0000       0.540220        14.7001 
 228   0.0000       0.546330        14.8664 
 229   0.0000       0.548355        14.9215 
 230   0.0000       0.553034        15.0488 
 231   0.0000       0.555675        15.1207 
 232   0.0000       0.558992        15.2109 
 233   0.0000       0.561389        15.2762 
 234   0.0000       0.567587        15.4448 
 235   0.0000       0.570488        15.5238 
 236   0.0000       0.573772        15.6131 
 237   0.0000       0.576036        15.6747 
 238   0.0000       0.583009        15.8645 
 239   0.0000       0.586965        15.9721 
 240   0.0000       0.588947        16.0261 
 241   0.0000       0.595225        16.1969 
 242   0.0000       0.597006        16.2453 
 243   0.0000       0.599649        16.3173 
 244   0.0000       0.601883        16.3781 
 245   0.0000       0.610612        16.6156 
 246   0.0000       0.611770        16.6471 
 247   0.0000       0.616214        16.7680 
 248   0.0000       0.617498        16.8030 
 249   0.0000       0.620008        16.8713 
 250   0.0000       0.632592        17.2137 
 251   0.0000       0.633040        17.2259 
 252   0.0000       0.637600        17.3500 
 253   0.0000       0.638910        17.3856 
 254   0.0000       0.641585        17.4584 
 255   0.0000       0.646368        17.5886 
 256   0.0000       0.648840        17.6558 
 257   0.0000       0.651980        17.7413 
 258   0.0000       0.655170        17.8281 
 259   0.0000       0.657721        17.8975 
 260   0.0000       0.662902        18.0385 
 261   0.0000       0.665522        18.1098 
 262   0.0000       0.675968        18.3940 
 263   0.0000       0.678772        18.4703 
 264   0.0000       0.680978        18.5304 
 265   0.0000       0.688390        18.7321 
 266   0.0000       0.693627        18.8746 
 267   0.0000       0.694662        18.9027 
 268   0.0000       0.701414        19.0864 
 269   0.0000       0.702743        19.1226 
 270   0.0000       0.705181        19.1890 
 271   0.0000       0.707974        19.2650 
 272   0.0000       0.716375        19.4936 
 273   0.0000       0.723300        19.6820 
 274   0.0000       0.725416        19.7396 
 275   0.0000       0.732995        19.9458 
 276   0.0000       0.736046        20.0288 
 277   0.0000       0.740590        20.1525 
 278   0.0000       0.744655        20.2631 
 279   0.0000       0.749412        20.3925 
 280   0.0000       0.755549        20.5595 
 281   0.0000       0.761852        20.7310 
 282   0.0000       0.763284        20.7700 
 283   0.0000       0.766420        20.8554 
 284   0.0000       0.775334        21.0979 
 285   0.0000       0.782298        21.2874 
 286   0.0000       0.787883        21.4394 
 287   0.0000       0.794367        21.6158 
 288   0.0000       0.797750        21.7079 
 289   0.0000       0.805668        21.9233 
 290   0.0000       0.809412        22.0252 
 291   0.0000       0.813851        22.1460 
 292   0.0000       0.821081        22.3427 
 293   0.0000       0.829489        22.5715 
 294   0.0000       0.833494        22.6805 
 295   0.0000       0.835431        22.7332 
 296   0.0000       0.844512        22.9803 
 297   0.0000       0.845828        23.0162 
 298   0.0000       0.849540        23.1172 
 299   0.0000       0.860100        23.4045 
 300   0.0000       0.860754        23.4223 
 301   0.0000       0.867787        23.6137 
 302   0.0000       0.875570        23.8255 
 303   0.0000       0.879231        23.9251 
 304   0.0000       0.882401        24.0114 
 305   0.0000       0.888243        24.1703 
 306   0.0000       0.893493        24.3132 
 307   0.0000       0.899157        24.4673 
 308   0.0000       0.900196        24.4956 
 309   0.0000       0.903953        24.5978 
 310   0.0000       0.909348        24.7446 
 311   0.0000       0.912862        24.8402 
 312   0.0000       0.919709        25.0265 
 313   0.0000       0.924554        25.1584 
 314   0.0000       0.925736        25.1905 
 315   0.0000       0.931685        25.3524 
 316   0.0000       0.934211        25.4212 
 317   0.0000       0.940373        25.5888 
 318   0.0000       0.942110        25.6361 
 319   0.0000       0.944601        25.7039 
 320   0.0000       0.949966        25.8499 
 321   0.0000       0.954885        25.9837 
 322   0.0000       0.957200        26.0467 
 323   0.0000       0.960250        26.1297 
 324   0.0000       0.966549        26.3011 
 325   0.0000       0.968307        26.3490 
 326   0.0000       0.969055        26.3693 
 327   0.0000       0.977096        26.5881 
 328   0.0000       0.978182        26.6177 
 329   0.0000       0.983918        26.7738 
 330   0.0000       0.989983        26.9388 
 331   0.0000       0.992033        26.9946 
 332   0.0000       0.994022        27.0487 
 333   0.0000       0.996854        27.1258 
 334   0.0000       0.999184        27.1892 
 335   0.0000       1.008008        27.4293 
 336   0.0000       1.010133        27.4871 
 337   0.0000       1.015017        27.6200 
 338   0.0000       1.016043        27.6479 
 339   0.0000       1.022864        27.8336 
 340   0.0000       1.024642        27.8819 
 341   0.0000       1.026540        27.9336 
 342   0.0000       1.033972        28.1358 
 343   0.0000       1.036589        28.2070 
 344   0.0000       1.038459        28.2579 
 345   0.0000       1.043256        28.3884 
 346   0.0000       1.045660        28.4539 
 347   0.0000       1.049540        28.5594 
 348   0.0000       1.051505        28.6129 
 349   0.0000       1.053840        28.6765 
 350   0.0000       1.060949        28.8699 
 351   0.0000       1.065298        28.9882 
 352   0.0000       1.067369        29.0446 
 353   0.0000       1.072377        29.1809 
 354   0.0000       1.079757        29.3817 
 355   0.0000       1.080836        29.4110 
 356   0.0000       1.082809        29.4647 
 357   0.0000       1.085896        29.5487 
 358   0.0000       1.090767        29.6813 
 359   0.0000       1.095916        29.8214 
 360   0.0000       1.097776        29.8720 
 361   0.0000       1.106147        30.0998 
 362   0.0000       1.109247        30.1841 
 363   0.0000       1.116250        30.3747 
 364   0.0000       1.116769        30.3888 
 365   0.0000       1.124180        30.5905 
 366   0.0000       1.128466        30.7071 
 367   0.0000       1.129473        30.7345 
 368   0.0000       1.136102        30.9149 
 369   0.0000       1.138219        30.9725 
 370   0.0000       1.139400        31.0047 
 371   0.0000       1.148432        31.2504 
 372   0.0000       1.151044        31.3215 
 373   0.0000       1.157003        31.4837 
 374   0.0000       1.159060        31.5396 
 375   0.0000       1.161614        31.6091 
 376   0.0000       1.164626        31.6911 
 377   0.0000       1.169720        31.8297 
 378   0.0000       1.177648        32.0454 
 379   0.0000       1.183906        32.2157 
 380   0.0000       1.187660        32.3179 
 381   0.0000       1.191618        32.4256 
 382   0.0000       1.197472        32.5849 
 383   0.0000       1.199649        32.6441 
 384   0.0000       1.206623        32.8339 
 385   0.0000       1.210981        32.9525 
 386   0.0000       1.217321        33.1250 
 387   0.0000       1.222216        33.2582 
 388   0.0000       1.229514        33.4568 
 389   0.0000       1.232094        33.5270 
 390   0.0000       1.235240        33.6126 
 391   0.0000       1.240402        33.7530 
 392   0.0000       1.242775        33.8176 
 393   0.0000       1.248047        33.9611 
 394   0.0000       1.251561        34.0567 
 395   0.0000       1.256426        34.1891 
 396   0.0000       1.262738        34.3609 
 397   0.0000       1.272823        34.6353 
 398   0.0000       1.275633        34.7117 
 399   0.0000       1.279098        34.8060 
 400   0.0000       1.282605        34.9015 
 401   0.0000       1.288835        35.0710 
 402   0.0000       1.293689        35.2031 
 403   0.0000       1.298707        35.3396 
 404   0.0000       1.304034        35.4846 
 405   0.0000       1.306629        35.5552 
 406   0.0000       1.319854        35.9150 
 407   0.0000       1.324135        36.0315 
 408   0.0000       1.328705        36.1559 
 409   0.0000       1.335246        36.3339 
 410   0.0000       1.337768        36.4025 
 411   0.0000       1.342370        36.5277 
 412   0.0000       1.344937        36.5976 
 413   0.0000       1.352857        36.8131 
 414   0.0000       1.356421        36.9101 
 415   0.0000       1.359197        36.9856 
 416   0.0000       1.363295        37.0971 
 417   0.0000       1.369337        37.2615 
 418   0.0000       1.374034        37.3894 
 419   0.0000       1.378565        37.5127 
 420   0.0000       1.389073        37.7986 
 421   0.0000       1.394089        37.9351 
 422   0.0000       1.396207        37.9927 
 423   0.0000       1.400107        38.0989 
 424   0.0000       1.409538        38.3555 
 425   0.0000       1.418412        38.5970 
 426   0.0000       1.419969        38.6393 
 427   0.0000       1.428795        38.8795 
 428   0.0000       1.431983        38.9662 
 429   0.0000       1.435133        39.0520 
 430   0.0000       1.441434        39.2234 
 431   0.0000       1.444782        39.3145 
 432   0.0000       1.450362        39.4664 
 433   0.0000       1.461917        39.7808 
 434   0.0000       1.466635        39.9092 
 435   0.0000       1.470731        40.0206 
 436   0.0000       1.474033        40.1105 
 437   0.0000       1.478360        40.2282 
 438   0.0000       1.486504        40.4498 
 439   0.0000       1.492414        40.6107 
 440   0.0000       1.498237        40.7691 
 441   0.0000       1.503024        40.8994 
 442   0.0000       1.505144        40.9571 
 443   0.0000       1.510965        41.1155 
 444   0.0000       1.516270        41.2598 
 445   0.0000       1.521970        41.4149 
 446   0.0000       1.525302        41.5056 
 447   0.0000       1.531963        41.6868 
 448   0.0000       1.535551        41.7845 
 449   0.0000       1.541845        41.9557 
 450   0.0000       1.545167        42.0461 
 451   0.0000       1.550539        42.1923 
 452   0.0000       1.559310        42.4310 
 453   0.0000       1.560134        42.4534 
 454   0.0000       1.569747        42.7150 
 455   0.0000       1.573049        42.8048 
 456   0.0000       1.579382        42.9772 
 457   0.0000       1.585664        43.1481 
 458   0.0000       1.589683        43.2575 
 459   0.0000       1.593997        43.3749 
 460   0.0000       1.596543        43.4441 
 461   0.0000       1.601483        43.5786 
 462   0.0000       1.608809        43.7779 
 463   0.0000       1.610986        43.8372 
 464   0.0000       1.619690        44.0740 
 465   0.0000       1.626420        44.2572 
 466   0.0000       1.633262        44.4433 
 467   0.0000       1.634609        44.4800 
 468   0.0000       1.639704        44.6186 
 469   0.0000       1.647008        44.8174 
 470   0.0000       1.653559        44.9956 
 471   0.0000       1.659676        45.1621 
 472   0.0000       1.668317        45.3972 
 473   0.0000       1.672812        45.5195 
 474   0.0000       1.676550        45.6212 
 475   0.0000       1.677402        45.6444 
 476   0.0000       1.679571        45.7034 
 477   0.0000       1.686061        45.8800 
 478   0.0000       1.691162        46.0189 
 479   0.0000       1.697824        46.2001 
 480   0.0000       1.699270        46.2395 
 481   0.0000       1.705420        46.4068 
 482   0.0000       1.716790        46.7162 
 483   0.0000       1.719246        46.7831 
 484   0.0000       1.723607        46.9017 
 485   0.0000       1.728329        47.0302 
 486   0.0000       1.736363        47.2488 
 487   0.0000       1.743172        47.4341 
 488   0.0000       1.746271        47.5184 
 489   0.0000       1.752777        47.6955 
 490   0.0000       1.758373        47.8478 
 491   0.0000       1.764153        48.0050 
 492   0.0000       1.766370        48.0654 
 493   0.0000       1.777225        48.3608 
 494   0.0000       1.779674        48.4274 
 495   0.0000       1.784583        48.5610 
 496   0.0000       1.789401        48.6921 
 497   0.0000       1.793926        48.8152 
 498   0.0000       1.799783        48.9746 
 499   0.0000       1.804407        49.1004 
 500   0.0000       1.809808        49.2474 
 501   0.0000       1.813540        49.3489 
 502   0.0000       1.823529        49.6207 
 503   0.0000       1.825000        49.6608 
 504   0.0000       1.827283        49.7229 
 505   0.0000       1.835566        49.9483 
 506   0.0000       1.842668        50.1416 
 507   0.0000       1.846547        50.2471 
 508   0.0000       1.848997        50.3138 
 509   0.0000       1.854283        50.4576 
 510   0.0000       1.856727        50.5241 
 511   0.0000       1.864895        50.7464 
 512   0.0000       1.872475        50.9526 
 513   0.0000       1.880953        51.1833 
 514   0.0000       1.885714        51.3129 
 515   0.0000       1.890429        51.4412 
 516   0.0000       1.892657        51.5018 
 517   0.0000       1.899826        51.6969 
 518   0.0000       1.904956        51.8365 
 519   0.0000       1.908457        51.9318 
 520   0.0000       1.910304        51.9820 
 521   0.0000       1.914744        52.1028 
 522   0.0000       1.921782        52.2944 
 523   0.0000       1.928768        52.4844 
 524   0.0000       1.933577        52.6153 
 525   0.0000       1.940613        52.8068 
 526   0.0000       1.945652        52.9439 
 527   0.0000       1.954828        53.1936 
 528   0.0000       1.957821        53.2750 
 529   0.0000       1.960276        53.3418 
 530   0.0000       1.970708        53.6257 
 531   0.0000       1.974896        53.7396 
 532   0.0000       1.976855        53.7930 
 533   0.0000       1.986740        54.0619 
 534   0.0000       1.989286        54.1312 
 535   0.0000       1.994940        54.2851 
 536   0.0000       2.002173        54.4819 
 537   0.0000       2.003685        54.5230 
 538   0.0000       2.010688        54.7136 
 539   0.0000       2.018828        54.9351 
 540   0.0000       2.030778        55.2603 
 541   0.0000       2.035368        55.3852 
 542   0.0000       2.041889        55.5626 
 543   0.0000       2.045056        55.6488 
 544   0.0000       2.058530        56.0155 
 545   0.0000       2.065239        56.1980 
 546   0.0000       2.076353        56.5004 
 547   0.0000       2.082049        56.6554 
 548   0.0000       2.087793        56.8117 
 549   0.0000       2.099886        57.1408 
 550   0.0000       2.100820        57.1662 
 551   0.0000       2.107249        57.3412 
 552   0.0000       2.113983        57.5244 
 553   0.0000       2.116352        57.5889 
 554   0.0000       2.125307        57.8325 
 555   0.0000       2.130263        57.9674 
 556   0.0000       2.137795        58.1724 
 557   0.0000       2.145591        58.3845 
 558   0.0000       2.150005        58.5046 
 559   0.0000       2.152467        58.5716 
 560   0.0000       2.166294        58.9479 
 561   0.0000       2.173049        59.1317 
 562   0.0000       2.178355        59.2760 
 563   0.0000       2.182135        59.3789 
 564   0.0000       2.189152        59.5698 
 565   0.0000       2.201122        59.8956 
 566   0.0000       2.204071        59.9758 
 567   0.0000       2.213265        60.2260 
 568   0.0000       2.216181        60.3054 
 569   0.0000       2.227147        60.6038 
 570   0.0000       2.229816        60.6764 
 571   0.0000       2.242244        61.0146 
 572   0.0000       2.248414        61.1825 
 573   0.0000       2.250846        61.2486 
 574   0.0000       2.257373        61.4262 
 575   0.0000       2.261105        61.5278 
 576   0.0000       2.274174        61.8834 
 577   0.0000       2.277424        61.9718 
 578   0.0000       2.288766        62.2805 
 579   0.0000       2.298263        62.5389 
 580   0.0000       2.300725        62.6059 
 581   0.0000       2.316747        63.0419 
 582   0.0000       2.322042        63.1860 
 583   0.0000       2.324808        63.2612 
 584   0.0000       2.327931        63.3462 
 585   0.0000       2.340777        63.6958 
 586   0.0000       2.346700        63.8569 
 587   0.0000       2.361424        64.2576 
 588   0.0000       2.364612        64.3444 
 589   0.0000       2.377872        64.7052 
 590   0.0000       2.380653        64.7809 
 591   0.0000       2.391807        65.0844 
 592   0.0000       2.395062        65.1729 
 593   0.0000       2.407204        65.5034 
 594   0.0000       2.409277        65.5597 
 595   0.0000       2.417371        65.7800 
 596   0.0000       2.423031        65.9340 
 597   0.0000       2.430168        66.1282 
 598   0.0000       2.431583        66.1667 
 599   0.0000       2.450521        66.6821 
 600   0.0000       2.456947        66.8569 
 601   0.0000       2.468980        67.1844 
 602   0.0000       2.472971        67.2930 
 603   0.0000       2.482267        67.5459 
 604   0.0000       2.492742        67.8310 
 605   0.0000       2.504044        68.1385 
 606   0.0000       2.517944        68.5167 
 607   0.0000       2.524696        68.7005 
 608   0.0000       2.535223        68.9869 
 609   0.0000       2.537802        69.0571 
 610   0.0000       2.560122        69.6645 
 611   0.0000       2.560758        69.6818 
 612   0.0000       2.577099        70.1264 
 613   0.0000       2.592682        70.5505 
 614   0.0000       2.603051        70.8326 
 615   0.0000       2.611346        71.0583 
 616   0.0000       2.629329        71.5477 
 617   0.0000       2.636714        71.7486 
 618   0.0000       2.649187        72.0880 
 619   0.0000       2.667404        72.5838 
 620   0.0000       2.670520        72.6685 
 621   0.0000       2.677656        72.8627 
 622   0.0000       2.682958        73.0070 
 623   0.0000       2.685614        73.0793 
 624   0.0000       2.698801        73.4381 
 625   0.0000       2.706031        73.6349 
 626   0.0000       2.712126        73.8007 
 627   0.0000       2.721395        74.0529 
 628   0.0000       2.738400        74.5156 
 629   0.0000       2.745958        74.7213 
 630   0.0000       2.752951        74.9116 
 631   0.0000       2.757129        75.0253 
 632   0.0000       2.770613        75.3922 
 633   0.0000       2.783962        75.7555 
 634   0.0000       2.795951        76.0817 
 635   0.0000       2.804877        76.3246 
 636   0.0000       2.810283        76.4717 
 637   0.0000       2.825317        76.8808 
 638   0.0000       2.843347        77.3714 
 639   0.0000       2.853544        77.6489 
 640   0.0000       2.876114        78.2630 
 641   0.0000       2.892265        78.7025 
 642   0.0000       2.893612        78.7392 
 643   0.0000       2.906823        79.0987 
 644   0.0000       2.915437        79.3331 
 645   0.0000       2.928334        79.6840 
 646   0.0000       2.945809        80.1595 
 647   0.0000       2.949029        80.2472 
 648   0.0000       2.961038        80.5739 
 649   0.0000       2.976190        80.9863 
 650   0.0000       2.992616        81.4332 
 651   0.0000       3.000298        81.6423 
 652   0.0000       3.041746        82.7701 
 653   0.0000       3.047385        82.9236 
 654   0.0000       3.059663        83.2577 
 655   0.0000       3.087203        84.0071 
 656   0.0000       3.095843        84.2422 
 657   0.0000       3.108834        84.5957 
 658   0.0000       3.112360        84.6916 
 659   0.0000       3.118497        84.8586 
 660   0.0000       3.131419        85.2102 
 661   0.0000       3.163832        86.0922 
 662   0.0000       3.168562        86.2210 
 663   0.0000       3.177797        86.4722 
 664   0.0000       3.184054        86.6425 
 665   0.0000       3.193687        86.9047 
 666   0.0000       3.202942        87.1565 
 667   0.0000       3.223197        87.7077 
 668   0.0000       3.231042        87.9211 
 669   0.0000       3.237959        88.1093 
 670   0.0000       3.253839        88.5415 
 671   0.0000       3.262798        88.7852 
 672   0.0000       3.271872        89.0322 
 673   0.0000       3.287199        89.4492 
 674   0.0000       3.289792        89.5198 
 675   0.0000       3.299508        89.7842 
 676   0.0000       3.306822        89.9832 
 677   0.0000       3.319878        90.3385 
 678   0.0000       3.325299        90.4860 
 679   0.0000       3.328506        90.5732 
 680   0.0000       3.340115        90.8891 
 681   0.0000       3.348099        91.1064 
 682   0.0000       3.360324        91.4391 
 683   0.0000       3.365007        91.5665 
 684   0.0000       3.382267        92.0362 
 685   0.0000       3.389798        92.2411 
 686   0.0000       3.396023        92.4105 
 687   0.0000       3.403030        92.6011 
 688   0.0000       3.414403        92.9106 
 689   0.0000       3.431605        93.3787 
 690   0.0000       3.443626        93.7058 
 691   0.0000       3.451812        93.9286 
 692   0.0000       3.458769        94.1179 
 693   0.0000       3.477056        94.6155 
 694   0.0000       3.482180        94.7549 
 695   0.0000       3.487500        94.8997 
 696   0.0000       3.496491        95.1444 
 697   0.0000       3.504272        95.3561 
 698   0.0000       3.508993        95.4846 
 699   0.0000       3.513923        95.6187 
 700   0.0000       3.528236        96.0082 
 701   0.0000       3.536865        96.2430 
 702   0.0000       3.543155        96.4141 
 703   0.0000       3.547435        96.5306 
 704   0.0000       3.569615        97.1342 
 705   0.0000       3.573925        97.2514 
 706   0.0000       3.577316        97.3437 
 707   0.0000       3.588313        97.6430 
 708   0.0000       3.592467        97.7560 
 709   0.0000       3.595301        97.8331 
 710   0.0000       3.605898        98.1215 
 711   0.0000       3.616892        98.4206 
 712   0.0000       3.621061        98.5341 
 713   0.0000       3.628561        98.7382 
 714   0.0000       3.638348        99.0045 
 715   0.0000       3.656196        99.4902 
 716   0.0000       3.661731        99.6408 
 717   0.0000       3.674083        99.9769 
 718   0.0000       3.680933       100.1633 
 719   0.0000       3.689725       100.4025 
 720   0.0000       3.697616       100.6172 
 721   0.0000       3.703457       100.7762 
 722   0.0000       3.708093       100.9023 
 723   0.0000       3.715183       101.0953 
 724   0.0000       3.721636       101.2709 
 725   0.0000       3.727419       101.4282 
 726   0.0000       3.741810       101.8198 
 727   0.0000       3.750580       102.0585 
 728   0.0000       3.758214       102.2662 
 729   0.0000       3.767601       102.5216 
 730   0.0000       3.772529       102.6557 
 731   0.0000       3.778048       102.8059 
 732   0.0000       3.781241       102.8928 
 733   0.0000       3.789483       103.1171 
 734   0.0000       3.793624       103.2298 
 735   0.0000       3.805278       103.5469 
 736   0.0000       3.811337       103.7118 
 737   0.0000       3.816583       103.8545 
 738   0.0000       3.826276       104.1183 
 739   0.0000       3.835435       104.3675 
 740   0.0000       3.840535       104.5063 
 741   0.0000       3.847607       104.6987 
 742   0.0000       3.863530       105.1320 
 743   0.0000       3.865510       105.1859 
 744   0.0000       3.871101       105.3380 
 745   0.0000       3.878961       105.5519 
 746   0.0000       3.887422       105.7821 
 747   0.0000       3.896623       106.0325 
 748   0.0000       3.901768       106.1725 
 749   0.0000       3.904910       106.2580 
 750   0.0000       3.910343       106.4058 
 751   0.0000       3.919219       106.6474 
 752   0.0000       3.926530       106.8463 
 753   0.0000       3.929995       106.9406 
 754   0.0000       3.937324       107.1400 
 755   0.0000       3.939600       107.2020 
 756   0.0000       3.948977       107.4571 
 757   0.0000       3.950885       107.5091 
 758   0.0000       3.961984       107.8111 
 759   0.0000       3.964144       107.8698 
 760   0.0000       3.977847       108.2427 
 761   0.0000       3.986795       108.4862 
 762   0.0000       3.996602       108.7531 
 763   0.0000       4.003953       108.9531 
 764   0.0000       4.010509       109.1315 
 765   0.0000       4.017512       109.3221 
 766   0.0000       4.024509       109.5125 
 767   0.0000       4.034592       109.7868 
 768   0.0000       4.040943       109.9596 
 769   0.0000       4.048402       110.1626 
 770   0.0000       4.056154       110.3736 
 771   0.0000       4.058105       110.4266 
 772   0.0000       4.069144       110.7270 
 773   0.0000       4.084659       111.1492 
 774   0.0000       4.089315       111.2759 
 775   0.0000       4.094538       111.4180 
 776   0.0000       4.098727       111.5320 
 777   0.0000       4.104159       111.6798 
 778   0.0000       4.118571       112.0720 
 779   0.0000       4.126095       112.2767 
 780   0.0000       4.130197       112.3884 
 781   0.0000       4.138554       112.6158 
 782   0.0000       4.143448       112.7490 
 783   0.0000       4.152899       113.0061 
 784   0.0000       4.161501       113.2402 
 785   0.0000       4.172586       113.5418 
 786   0.0000       4.187559       113.9493 
 787   0.0000       4.192971       114.0965 
 788   0.0000       4.202908       114.3669 
 789   0.0000       4.212346       114.6238 
 790   0.0000       4.225795       114.9897 
 791   0.0000       4.227943       115.0482 
 792   0.0000       4.231636       115.1487 
 793   0.0000       4.239946       115.3748 
 794   0.0000       4.249909       115.6459 
 795   0.0000       4.256272       115.8191 
 796   0.0000       4.266649       116.1014 
 797   0.0000       4.271397       116.2306 
 798   0.0000       4.276952       116.3818 
 799   0.0000       4.285892       116.6251 
 800   0.0000       4.298365       116.9645 
 801   0.0000       4.308516       117.2407 
 802   0.0000       4.315700       117.4362 
 803   0.0000       4.320695       117.5721 
 804   0.0000       4.330480       117.8384 
 805   0.0000       4.347483       118.3010 
 806   0.0000       4.353407       118.4622 
 807   0.0000       4.359035       118.6154 
 808   0.0000       4.368562       118.8746 
 809   0.0000       4.382748       119.2606 
 810   0.0000       4.395397       119.6048 
 811   0.0000       4.403372       119.8218 
 812   0.0000       4.415958       120.1643 
 813   0.0000       4.424694       120.4021 
 814   0.0000       4.428890       120.5162 
 815   0.0000       4.435683       120.7011 
 816   0.0000       4.443568       120.9156 
 817   0.0000       4.455294       121.2347 
 818   0.0000       4.462860       121.4406 
 819   0.0000       4.471773       121.6831 
 820   0.0000       4.490091       122.1816 
 821   0.0000       4.498881       122.4208 
 822   0.0000       4.501204       122.4840 
 823   0.0000       4.507678       122.6601 
 824   0.0000       4.515456       122.8718 
 825   0.0000       4.520476       123.0084 
 826   0.0000       4.533586       123.3651 
 827   0.0000       4.542533       123.6086 
 828   0.0000       4.555514       123.9618 
 829   0.0000       4.559093       124.0592 
 830   0.0000       4.583399       124.7206 
 831   0.0000       4.595286       125.0441 
 832   0.0000       4.603878       125.2779 
 833   0.0000       4.617462       125.6475 
 834   0.0000       4.625749       125.8730 
 835   0.0000       4.634353       126.1072 
 836   0.0000       4.652617       126.6041 
 837   0.0000       4.661176       126.8370 
 838   0.0000       4.663398       126.8975 
 839   0.0000       4.672024       127.1322 
 840   0.0000       4.672328       127.1405 
 841   0.0000       4.692072       127.6778 
 842   0.0000       4.701515       127.9347 
 843   0.0000       4.708594       128.1274 
 844   0.0000       4.733347       128.8009 
 845   0.0000       4.742117       129.0396 
 846   0.0000       4.767388       129.7272 
 847   0.0000       4.783679       130.1705 
 848   0.0000       4.786322       130.2424 
 849   0.0000       4.790750       130.3629 
 850   0.0000       4.800533       130.6291 
 851   0.0000       4.806275       130.7854 
 852   0.0000       4.832725       131.5051 
 853   0.0000       4.834974       131.5663 
 854   0.0000       4.844923       131.8371 
 855   0.0000       4.852949       132.0555 
 856   0.0000       4.858028       132.1937 
 857   0.0000       4.872649       132.5915 
 858   0.0000       4.881556       132.8339 
 859   0.0000       4.894728       133.1923 
 860   0.0000       4.914589       133.7328 
 861   0.0000       4.919696       133.8717 
 862   0.0000       4.930328       134.1610 
 863   0.0000       4.948661       134.6599 
 864   0.0000       4.954500       134.8188 
 865   0.0000       4.962412       135.0341 
 866   0.0000       4.972259       135.3021 
 867   0.0000       4.977786       135.4524 
 868   0.0000       4.996078       135.9502 
 869   0.0000       5.013811       136.4327 
 870   0.0000       5.024627       136.7271 
 871   0.0000       5.036255       137.0435 
 872   0.0000       5.041933       137.1980 
 873   0.0000       5.055390       137.5642 
 874   0.0000       5.066328       137.8618 
 875   0.0000       5.080987       138.2607 
 876   0.0000       5.088524       138.4658 
 877   0.0000       5.106575       138.9570 
 878   0.0000       5.116067       139.2152 
 879   0.0000       5.130762       139.6151 
 880   0.0000       5.138586       139.8280 
 881   0.0000       5.164232       140.5259 
 882   0.0000       5.170576       140.6985 
 883   0.0000       5.177102       140.8761 
 884   0.0000       5.189626       141.2169 
 885   0.0000       5.215926       141.9326 
 886   0.0000       5.219609       142.0328 
 887   0.0000       5.229545       142.3032 
 888   0.0000       5.238943       142.5589 
 889   0.0000       5.244065       142.6983 
 890   0.0000       5.262283       143.1940 
 891   0.0000       5.273110       143.4886 
 892   0.0000       5.284401       143.7959 
 893   0.0000       5.304739       144.3493 
 894   0.0000       5.319123       144.7407 
 895   0.0000       5.331281       145.0715 
 896   0.0000       5.344760       145.4383 
 897   0.0000       5.362595       145.9236 
 898   0.0000       5.371370       146.1624 
 899   0.0000       5.374985       146.2608 
 900   0.0000       5.398076       146.8891 
 901   0.0000       5.402689       147.0147 
 902   0.0000       5.413692       147.3141 
 903   0.0000       5.419456       147.4709 
 904   0.0000       5.423568       147.5828 
 905   0.0000       5.432523       147.8265 
 906   0.0000       5.442187       148.0894 
 907   0.0000       5.457007       148.4927 
 908   0.0000       5.458898       148.5442 
 909   0.0000       5.475457       148.9948 
 910   0.0000       5.494418       149.5107 
 911   0.0000       5.515561       150.0860 
 912   0.0000       5.537426       150.6810 
 913   0.0000       5.560154       151.2995 
 914   0.0000       5.563103       151.3797 
 915   0.0000       5.566250       151.4654 
 916   0.0000       5.582457       151.9064 
 917   0.0000       5.599721       152.3762 
 918   0.0000       5.605344       152.5292 
 919   0.0000       5.615605       152.8084 
 920   0.0000       5.619338       152.9100 
 921   0.0000       5.624843       153.0597 
 922   0.0000       5.642494       153.5401 
 923   0.0000       5.660416       154.0277 
 924   0.0000       5.672031       154.3438 
 925   0.0000       5.673635       154.3875 
 926   0.0000       5.687526       154.7655 
 927   0.0000       5.694958       154.9677 
 928   0.0000       5.715227       155.5192 
 929   0.0000       5.720196       155.6545 
 930   0.0000       5.738587       156.1549 
 931   0.0000       5.747734       156.4038 
 932   0.0000       5.761154       156.7690 
 933   0.0000       5.770294       157.0177 
 934   0.0000       5.774887       157.1427 
 935   0.0000       5.795206       157.6956 
 936   0.0000       5.810771       158.1191 
 937   0.0000       5.827863       158.5842 
 938   0.0000       5.832217       158.7027 
 939   0.0000       5.849422       159.1709 
 940   0.0000       5.855584       159.3385 
 941   0.0000       5.862712       159.5325 
 942   0.0000       5.899028       160.5207 
 943   0.0000       5.923125       161.1764 
 944   0.0000       5.943853       161.7405 
 945   0.0000       5.982945       162.8042 
 946   0.0000       6.063656       165.0005 
 947   0.0000       6.073824       165.2771 
 948   0.0000       6.123559       166.6305 
 949   0.0000       6.128307       166.7597 
 950   0.0000       6.150232       167.3563 
 951   0.0000       6.164149       167.7350 
 952   0.0000       6.187413       168.3681 
 953   0.0000       6.203048       168.7935 
 954   0.0000       6.213926       169.0895 
 955   0.0000       6.222272       169.3166 
 956   0.0000       6.237028       169.7182 
 957   0.0000       6.245908       169.9598 
 958   0.0000       6.264773       170.4732 
 959   0.0000       6.320714       171.9954 
 960   0.0000       6.328700       172.2127 
 961   0.0000       6.342928       172.5999 
 962   0.0000       6.351742       172.8397 
 963   0.0000       6.372808       173.4129 
 964   0.0000       6.386997       173.7990 
 965   0.0000       6.413413       174.5179 
 966   0.0000       6.446707       175.4238 
 967   0.0000       6.461850       175.8359 
 968   0.0000       6.495168       176.7425 
 969   0.0000       6.513432       177.2395 
 970   0.0000       6.636493       180.5882 
 971   0.0000       6.746851       183.5912 
 972   0.0000       6.835961       186.0160 
 973   0.0000       6.853800       186.5014 
 974   0.0000       6.884371       187.3332 
 975   0.0000       6.915814       188.1889 
 976   0.0000       6.942935       188.9269 
 977   0.0000       6.953294       189.2088 
 978   0.0000       6.969548       189.6510 
 979   0.0000       6.996367       190.3808 
 980   0.0000       6.998796       190.4469 
 981   0.0000       7.042473       191.6354 
 982   0.0000       7.088172       192.8790 
 983   0.0000       7.097550       193.1342 
 984   0.0000       7.181006       195.4051 
 985   0.0000       7.202185       195.9814 
 986   0.0000       7.356463       200.1795 
 987   0.0000       7.394221       201.2070 
 988   0.0000       7.494278       203.9297 
 989   0.0000       7.529534       204.8890 
 990   0.0000       7.583413       206.3552 
 991   0.0000       7.657765       208.3784 
 992   0.0000       7.729231       210.3231 
 993   0.0000       7.784611       211.8300 
 994   0.0000       7.851746       213.6569 
 995   0.0000       7.907046       215.1617 
 996   0.0000       8.051466       219.0915 
 997   0.0000       8.138621       221.4631 
 998   0.0000       8.362135       227.5453 
 999   0.0000       9.439276       256.8558 
 1000   0.0000       9.457048       257.3393 
 1001   0.0000       9.476260       257.8621 
 1002   0.0000       9.483833       258.0682 
 1003   0.0000       9.494084       258.3472 
 1004   0.0000       9.531090       259.3541 
 1005   0.0000       9.769192       265.8332 
 1006   0.0000      10.104449       274.9560 
 1007   0.0000      10.132003       275.7058 
 1008   0.0000      10.150845       276.2185 
 1009   0.0000      10.223518       278.1961 
 1010   0.0000      10.230381       278.3828 
 1011   0.0000      10.258630       279.1515 
 1012   0.0000      10.405338       283.1436 
 1013   0.0000      10.442880       284.1652 
 1014   0.0000      10.573377       287.7162 
 1015   0.0000      17.092611       465.1136 
 1016   0.0000      17.851352       485.7600 
 1017   0.0000      18.510399       503.6936 
 1018   0.0000      18.669055       508.0108 
 1019   0.0000      18.851268       512.9691 
 1020   0.0000      18.956279       515.8266 
 1021   0.0000      19.045475       518.2537 
 1022   0.0000      20.148517       548.2690 
 1023   0.0000      20.557526       559.3987 
 1024   0.0000      21.995762       598.5351 

                 SPIN DOWN ORBITALS
  NO   OCC          E(Eh)            E(eV) 
   0   1.0000    -261.545502     -7117.0149 
   1   1.0000    -104.774898     -2851.0699 
   2   1.0000    -104.772547     -2851.0059 
   3   1.0000    -104.770588     -2850.9526 
   4   1.0000     -32.054894      -872.2580 
   5   1.0000     -27.532964      -749.2101 
   6   1.0000     -27.532814      -749.2060 
   7   1.0000     -27.532312      -749.1923 
   8   1.0000     -20.543036      -559.0044 
   9   1.0000     -11.377429      -309.5956 
  10   1.0000     -11.376529      -309.5711 
  11   1.0000     -11.281672      -306.9899 
  12   1.0000     -11.280957      -306.9704 
  13   1.0000     -11.267094      -306.5932 
  14   1.0000     -11.258553      -306.3608 
  15   1.0000     -11.251042      -306.1564 
  16   1.0000     -11.243005      -305.9377 
  17   1.0000     -10.501368      -285.7567 
  18   1.0000     -10.498987      -285.6920 
  19   1.0000     -10.497048      -285.6392 
  20   1.0000      -7.967218      -216.7990 
  21   1.0000      -7.966768      -216.7868 
  22   1.0000      -7.966685      -216.7845 
  23   1.0000      -7.964957      -216.7375 
  24   1.0000      -7.964303      -216.7197 
  25   1.0000      -7.964211      -216.7172 
  26   1.0000      -7.963001      -216.6843 
  27   1.0000      -7.962294      -216.6650 
  28   1.0000      -7.962219      -216.6630 
  29   1.0000      -4.130094      -112.3856 
  30   1.0000      -2.651890       -72.1616 
  31   1.0000      -2.651850       -72.1605 
  32   1.0000      -2.651065       -72.1392 
  33   1.0000      -1.372554       -37.3491 
  34   1.0000      -1.181754       -32.1572 
  35   1.0000      -1.082422       -29.4542 
  36   1.0000      -1.042456       -28.3667 
  37   1.0000      -1.032787       -28.1036 
  38   1.0000      -1.021517       -27.7969 
  39   1.0000      -1.018736       -27.7212 
  40   1.0000      -1.005774       -27.3685 
  41   1.0000      -0.977081       -26.5877 
  42   1.0000      -0.932508       -25.3748 
  43   1.0000      -0.795598       -21.6493 
  44   1.0000      -0.769149       -20.9296 
  45   1.0000      -0.702459       -19.1149 
  46   1.0000      -0.692248       -18.8370 
  47   1.0000      -0.674860       -18.3639 
  48   1.0000      -0.652436       -17.7537 
  49   1.0000      -0.643781       -17.5182 
  50   1.0000      -0.626314       -17.0429 
  51   1.0000      -0.598866       -16.2960 
  52   1.0000      -0.596005       -16.2181 
  53   1.0000      -0.591696       -16.1009 
  54   1.0000      -0.579567       -15.7708 
  55   1.0000      -0.578092       -15.7307 
  56   1.0000      -0.560916       -15.2633 
  57   1.0000      -0.556186       -15.1346 
  58   1.0000      -0.545938       -14.8557 
  59   1.0000      -0.529735       -14.4148 
  60   1.0000      -0.528724       -14.3873 
  61   1.0000      -0.502738       -13.6802 
  62   1.0000      -0.472203       -12.8493 
  63   1.0000      -0.465336       -12.6624 
  64   1.0000      -0.459734       -12.5100 
  65   1.0000      -0.436458       -11.8766 
  66   1.0000      -0.433278       -11.7901 
  67   1.0000      -0.432091       -11.7578 
  68   1.0000      -0.422902       -11.5077 
  69   1.0000      -0.411820       -11.2062 
  70   1.0000      -0.399400       -10.8682 
  71   1.0000      -0.389353       -10.5948 
  72   0.0000       0.007476         0.2034 
  73   0.0000       0.018712         0.5092 
  74   0.0000       0.020768         0.5651 
  75   0.0000       0.024483         0.6662 
  76   0.0000       0.030661         0.8343 
  77   0.0000       0.037815         1.0290 
  78   0.0000       0.039762         1.0820 
  79   0.0000       0.044481         1.2104 
  80   0.0000       0.044989         1.2242 
  81   0.0000       0.046851         1.2749 
  82   0.0000       0.056485         1.5370 
  83   0.0000       0.058892         1.6025 
  84   0.0000       0.061615         1.6766 
  85   0.0000       0.065839         1.7916 
  86   0.0000       0.066878         1.8198 
  87   0.0000       0.072169         1.9638 
  88   0.0000       0.073409         1.9976 
  89   0.0000       0.077040         2.0964 
  90   0.0000       0.089117         2.4250 
  91   0.0000       0.089721         2.4414 
  92   0.0000       0.093165         2.5351 
  93   0.0000       0.095282         2.5927 
  94   0.0000       0.099967         2.7202 
  95   0.0000       0.100383         2.7316 
  96   0.0000       0.110537         3.0079 
  97   0.0000       0.113108         3.0778 
  98   0.0000       0.120535         3.2799 
  99   0.0000       0.121493         3.3060 
 100   0.0000       0.123596         3.3632 
 101   0.0000       0.125656         3.4193 
 102   0.0000       0.125948         3.4272 
 103   0.0000       0.126609         3.4452 
 104   0.0000       0.129161         3.5146 
 105   0.0000       0.130598         3.5537 
 106   0.0000       0.134316         3.6549 
 107   0.0000       0.135362         3.6834 
 108   0.0000       0.137587         3.7439 
 109   0.0000       0.138995         3.7823 
 110   0.0000       0.139749         3.8028 
 111   0.0000       0.141645         3.8544 
 112   0.0000       0.145193         3.9509 
 113   0.0000       0.148584         4.0432 
 114   0.0000       0.152767         4.1570 
 115   0.0000       0.155548         4.2327 
 116   0.0000       0.156774         4.2660 
 117   0.0000       0.164243         4.4693 
 118   0.0000       0.165751         4.5103 
 119   0.0000       0.168538         4.5862 
 120   0.0000       0.170538         4.6406 
 121   0.0000       0.171173         4.6578 
 122   0.0000       0.176122         4.7925 
 123   0.0000       0.178112         4.8467 
 124   0.0000       0.184044         5.0081 
 125   0.0000       0.189785         5.1643 
 126   0.0000       0.191090         5.1998 
 127   0.0000       0.199130         5.4186 
 128   0.0000       0.201321         5.4782 
 129   0.0000       0.203988         5.5508 
 130   0.0000       0.205777         5.5995 
 131   0.0000       0.209086         5.6895 
 132   0.0000       0.211635         5.7589 
 133   0.0000       0.215645         5.8680 
 134   0.0000       0.216819         5.8999 
 135   0.0000       0.218324         5.9409 
 136   0.0000       0.226944         6.1755 
 137   0.0000       0.229296         6.2395 
 138   0.0000       0.230817         6.2809 
 139   0.0000       0.235283         6.4024 
 140   0.0000       0.236412         6.4331 
 141   0.0000       0.242106         6.5880 
 142   0.0000       0.245348         6.6763 
 143   0.0000       0.249188         6.7808 
 144   0.0000       0.251740         6.8502 
 145   0.0000       0.253362         6.8943 
 146   0.0000       0.253936         6.9099 
 147   0.0000       0.259933         7.0731 
 148   0.0000       0.264889         7.2080 
 149   0.0000       0.269794         7.3415 
 150   0.0000       0.274111         7.4589 
 151   0.0000       0.276106         7.5132 
 152   0.0000       0.280333         7.6282 
 153   0.0000       0.283595         7.7170 
 154   0.0000       0.288600         7.8532 
 155   0.0000       0.292047         7.9470 
 156   0.0000       0.302560         8.2331 
 157   0.0000       0.303538         8.2597 
 158   0.0000       0.305888         8.3236 
 159   0.0000       0.309092         8.4108 
 160   0.0000       0.310645         8.4531 
 161   0.0000       0.317859         8.6494 
 162   0.0000       0.322823         8.7844 
 163   0.0000       0.326912         8.8957 
 164   0.0000       0.331684         9.0256 
 165   0.0000       0.333331         9.0704 
 166   0.0000       0.335816         9.1380 
 167   0.0000       0.341772         9.3001 
 168   0.0000       0.342904         9.3309 
 169   0.0000       0.348693         9.4884 
 170   0.0000       0.352246         9.5851 
 171   0.0000       0.358595         9.7579 
 172   0.0000       0.359858         9.7922 
 173   0.0000       0.362542         9.8653 
 174   0.0000       0.366046         9.9606 
 175   0.0000       0.367684        10.0052 
 176   0.0000       0.371358        10.1052 
 177   0.0000       0.372499        10.1362 
 178   0.0000       0.380188        10.3454 
 179   0.0000       0.382422        10.4062 
 180   0.0000       0.386177        10.5084 
 181   0.0000       0.390446        10.6246 
 182   0.0000       0.393062        10.6958 
 183   0.0000       0.395831        10.7711 
 184   0.0000       0.397542        10.8177 
 185   0.0000       0.400399        10.8954 
 186   0.0000       0.404234        10.9998 
 187   0.0000       0.405180        11.0255 
 188   0.0000       0.407137        11.0788 
 189   0.0000       0.414998        11.2927 
 190   0.0000       0.417549        11.3621 
 191   0.0000       0.420470        11.4416 
 192   0.0000       0.425454        11.5772 
 193   0.0000       0.427900        11.6437 
 194   0.0000       0.433921        11.8076 
 195   0.0000       0.435002        11.8370 
 196   0.0000       0.441287        12.0080 
 197   0.0000       0.444395        12.0926 
 198   0.0000       0.448815        12.2129 
 199   0.0000       0.452935        12.3250 
 200   0.0000       0.453851        12.3499 
 201   0.0000       0.454432        12.3657 
 202   0.0000       0.465011        12.6536 
 203   0.0000       0.467476        12.7207 
 204   0.0000       0.471637        12.8339 
 205   0.0000       0.475502        12.9391 
 206   0.0000       0.477402        12.9908 
 207   0.0000       0.482386        13.1264 
 208   0.0000       0.483730        13.1630 
 209   0.0000       0.486927        13.2500 
 210   0.0000       0.487478        13.2650 
 211   0.0000       0.490519        13.3477 
 212   0.0000       0.495737        13.4897 
 213   0.0000       0.498678        13.5697 
 214   0.0000       0.502451        13.6724 
 215   0.0000       0.503609        13.7039 
 216   0.0000       0.505449        13.7540 
 217   0.0000       0.508749        13.8438 
 218   0.0000       0.510532        13.8923 
 219   0.0000       0.515813        14.0360 
 220   0.0000       0.518590        14.1116 
 221   0.0000       0.523765        14.2524 
 222   0.0000       0.525507        14.2998 
 223   0.0000       0.528904        14.3922 
 224   0.0000       0.531727        14.4690 
 225   0.0000       0.533930        14.5290 
 226   0.0000       0.538062        14.6414 
 227   0.0000       0.545139        14.8340 
 228   0.0000       0.547561        14.8999 
 229   0.0000       0.550738        14.9863 
 230   0.0000       0.555783        15.1236 
 231   0.0000       0.559111        15.2142 
 232   0.0000       0.560358        15.2481 
 233   0.0000       0.564179        15.3521 
 234   0.0000       0.569715        15.5027 
 235   0.0000       0.572288        15.5727 
 236   0.0000       0.574674        15.6377 
 237   0.0000       0.577918        15.7260 
 238   0.0000       0.585612        15.9353 
 239   0.0000       0.588689        16.0190 
 240   0.0000       0.591798        16.1037 
 241   0.0000       0.596713        16.2374 
 242   0.0000       0.598065        16.2742 
 243   0.0000       0.603238        16.4149 
 244   0.0000       0.606313        16.4986 
 245   0.0000       0.611761        16.6469 
 246   0.0000       0.615629        16.7521 
 247   0.0000       0.617963        16.8156 
 248   0.0000       0.620040        16.8721 
 249   0.0000       0.621826        16.9207 
 250   0.0000       0.633930        17.2501 
 251   0.0000       0.635616        17.2960 
 252   0.0000       0.639948        17.4139 
 253   0.0000       0.641403        17.4535 
 254   0.0000       0.642763        17.4905 
 255   0.0000       0.647207        17.6114 
 256   0.0000       0.653330        17.7780 
 257   0.0000       0.654191        17.8014 
 258   0.0000       0.657528        17.8922 
 259   0.0000       0.661428        17.9984 
 260   0.0000       0.667002        18.1500 
 261   0.0000       0.667682        18.1686 
 262   0.0000       0.678133        18.4529 
 263   0.0000       0.680613        18.5204 
 264   0.0000       0.685293        18.6478 
 265   0.0000       0.690898        18.8003 
 266   0.0000       0.695552        18.9269 
 267   0.0000       0.698532        19.0080 
 268   0.0000       0.703589        19.1456 
 269   0.0000       0.705789        19.2055 
 270   0.0000       0.707329        19.2474 
 271   0.0000       0.712703        19.3936 
 272   0.0000       0.720626        19.6092 
 273   0.0000       0.728154        19.8141 
 274   0.0000       0.731137        19.8952 
 275   0.0000       0.735322        20.0091 
 276   0.0000       0.741870        20.1873 
 277   0.0000       0.744443        20.2573 
 278   0.0000       0.748155        20.3583 
 279   0.0000       0.752954        20.4889 
 280   0.0000       0.759567        20.6689 
 281   0.0000       0.764103        20.7923 
 282   0.0000       0.768135        20.9020 
 283   0.0000       0.771355        20.9896 
 284   0.0000       0.779369        21.2077 
[...]
  | sigma^2 in % of trace(Dij) retained ...   8.80e+00
  | sigma^2 in % of trace(Dip) retained ...   2.01e+01
  | sigma^2 in % of trace(Dpq) retained ...   1.31e-01
  | Av. % of trace(Di) retained         ...  99.998503506885
  | Av. % of trace(Dp) retained         ...  99.999998532153
  | sigma^2 in % of trace(Di) retained  ...   7.68e-07
  | sigma^2 in % of trace(Dp) retained  ...   1.49e-12
 Distributions of % trace(Dij) recovered:
  |       >= 99.9  ...   105 ( 20.3 % of all IJ-pairs)
  |   [80.0, 90.0) ...    36 (  7.0 % of all IJ-pairs)
  |   [90.0, 99.0) ...   278 ( 53.9 % of all IJ-pairs)
  |   [99.0, 99.9) ...    97 ( 18.8 % of all IJ-pairs)
 Distributions of % trace(Dip) recovered:
  |   [70.0, 80.0) ...     1 (  0.8 % of all IP-pairs)
  |   [80.0, 90.0) ...    11 (  9.2 % of all IP-pairs)
  |   [90.0, 99.0) ...    65 ( 54.6 % of all IP-pairs)
  |   [99.0, 99.9) ...    42 ( 35.3 % of all IP-pairs)
 Distributions of % trace(Dpq) recovered:
  |       >= 99.9  ...     5 ( 33.3 % of all PQ-pairs)
  |   [99.0, 99.9) ...    10 ( 66.7 % of all PQ-pairs)
 Distributions of % trace(Di) recovered :
  |       >= 99.9  ...    43 (100.0 % of all I-pairs )
 Distributions of % trace(Dp) recovered :
  |       >= 99.9  ...     5 (100.0 % of all P-pairs )

                       ===========================
                       1133 OF 1724 PAIRS ARE KEPT
                       ===========================

 Initial PAO correlation energy (all pairs)    ...  -2.6942316780 Eh
 Energy constituents in PAO basis (Eh):
  | Vijab(+0) ...  -2.2645462881
  | Viab (-1) ...  -0.1754932374
  | Vab  (-2) ...  -0.0573654370
  | Va   (-1) ...  -0.0000412247
  | Vija (+1) ...  -0.0729347169
  | Vij  (+2) ...  -0.0154962223
  | Via  (+0) ...  -0.1081962198
  | Vi   (+1) ...  -0.0001583316
 Initial PNO correlation energy                ...  -2.6594239227 Eh
 Energy constituents in PNO basis (Eh):
  | Vijab(+0) ...  -2.2458103823 (err=  0.0187359058)
  | Viab (-1) ...  -0.1611229507 (err=  0.0143702867)
  | Vab  (-2) ...  -0.0568982432 (err=  0.0004671938)
  | Va   (-1) ...  -0.0000236935 (err=  0.0000175312)
  | Vija (+1) ...  -0.0718791018 (err=  0.0010556151)
  | Vij  (+2) ...  -0.0154411089 (err=  0.0000551134)
  | Via  (+0) ...  -0.1080904420 (err=  0.0001057779)
  | Vi   (+1) ...  -0.0001580003 (err=  0.0000003314)
 Sum of total truncation errors ...   0.0348077553 Eh
  | Pair screening ...   0.0115814742 Eh
  | PNO truncation ...   0.0232262811 Eh

 UMP2 correlation energy (PAO) ...  -2.6893880781
  | alpha-alpha ...  -0.3868652326 (NP_aa=  936)
  | alpha-beta  ...  -1.9952205208 (NP_ab= 1699)
  | beta -beta  ...  -0.3073023247 (NP_bb=  730)
 UMP2 correlation energy (PNO) ...  -2.6542082579
  | alpha-alpha ...  -0.3747206429 (err=  0.0121445897, NP_aa=  602)
  | alpha-beta  ...  -1.9762837595 (err=  0.0189367613, NP_ab= 1108)
  | beta -beta  ...  -0.3032038555 (err=  0.0040984692, NP_bb=  473)
 Sum of total UMP2 truncation errors ...   0.0351798202 Eh
  | Pair screening ...   0.0115981695 Eh
  | PNO truncation ...   0.0235816507 Eh
 Timing for NEV-PNO construction (sec.)
  | Intermediate construction  ..           49.134
  | Amplitude construction     ..           68.300
  | Total time                 ..          117.434
 Making pair pair interaction lists ...      ok
 Total size for 2-ext PNO integrals ...     11.1 MB
Checking the number of SOMO/SOMO doubles PNOs ... 
 #Truncate: (72, 72)[170] -> [85] .. 
 #Truncate: (73, 73)[170] -> [85] .. 
 #Truncate: (74, 74)[172] -> [85] .. 
 #Truncate: (75, 75)[171] -> [85] .. 
 #Truncate: (76, 76)[171] -> [85] .. 

--------------------------------
LOCAL RI TRANSFORMATION (VABPAO)
--------------------------------

Number of PAOs:    1030
Basis functions:   1025 (343 shells)
Aux. functions:    2424 (644 shells)

Processing maps (0.0 sec)
Average map sizes:
   Aux shells -> PAOs           1030.0
   PAOs       -> AO shells       343.0

Calculating integrals (189.6 sec, 37370.165 MB)
Finished
-----------------------------
LOCAL RI TRANSFORMATION (IJV)
-----------------------------

Orbital window:      29 to 76
Basis functions:   1025 (343 shells)
Aux. functions:    2424 (644 shells)

Processing maps (0.0 sec)
Average map sizes:
   Aux shells -> MOs(i)           47.2
   Aux shells -> MOs(j)           48.0
   MOs        -> AO shells       340.2

Calculating integrals (22.2 sec, 41.967 MB)
Sorting integrals (0.3 sec, 41.940 MB)
Total time for the integral transformation: 22.6 sec


-------------------------------------
Pair Pair Term precalculation with     
RI-(ij|mn) and (im|jn) transformation  
ON THE FLY                             
-------------------------------------

   IBatch   1 (of   2)              ... done ( 1113.720 sec)
   IBatch   2 (of   2)              ... done ( 1286.678 sec)
Total EXT                           ...        2400.398 sec

---------------------
RI-PNO TRANSFORMATION
---------------------

Total Number of PNOs                   ... 35129
Total Number of IJ-PNOs                ... 30939
Total Number of IP-PNOs                ...  3241
Total Number of PQ-PNOs                ...   949
Total Number of IJ-pairs               ...   989
Total Number of PI-pairs               ...   119
Total Number of PQ-pairs               ...    25
Average number of PNOs per pair        ...    31
Maximal number of PNOs per pair        ...    85
>> Statistics for ij-pairs..
   #pairs with  1 -  5 PNOs   :    0
   #pairs with  6 - 10 PNOs   :    0
   #pairs with 11 - 15 PNOs   :   48
   #pairs with 16 - 20 PNOs   :  260
   #pairs with 21 - 25 PNOs   :  164
   #pairs with 26 - 30 PNOs   :  158
   #pairs with 31 - 35 PNOs   :   66
   #pairs with 36 - 40 PNOs   :   52
   #pairs with 41 - 45 PNOs   :   50
   #pairs with 46 - 50 PNOs   :   15
   #pairs with 51 - 55 PNOs   :   42
   #pairs with 56 - 60 PNOs   :   52
   #pairs with 61 - 65 PNOs   :   73
   #pairs with 66 - 70 PNOs   :    6
   #pairs with 71 - 75 PNOs   :    1
   #pairs with 76 - 80 PNOs   :    2
>> Statistics for ip-pairs..
   #pairs with  1 -  5 PNOs   :    0
   #pairs with  6 - 10 PNOs   :    3
   #pairs with 11 - 15 PNOs   :   14
   #pairs with 16 - 20 PNOs   :    5
   #pairs with 21 - 25 PNOs   :   26
   #pairs with 26 - 30 PNOs   :   12
   #pairs with 31 - 35 PNOs   :   47
   #pairs with 36 - 40 PNOs   :   12
   #pairs with 41 - 45 PNOs   :    0
   #pairs with 46 - 50 PNOs   :    0
>> Statistics for pq-pairs..
   #pairs with  1 -  5 PNOs   :    0
   #pairs with  6 - 10 PNOs   :    0
   #pairs with 11 - 15 PNOs   :    0
   #pairs with 16 - 20 PNOs   :    0
   #pairs with 21 - 25 PNOs   :   10
   #pairs with 26 - 30 PNOs   :   10
   #pairs with 31 - 35 PNOs   :    0
   #pairs with 36 - 40 PNOs   :    0
   #pairs with 41 - 45 PNOs   :    0
   #pairs with 46 - 50 PNOs   :    0
   #pairs with 81 - 85 PNOs   :    5

Generation of (ij|ab)[P] integrals            ... on
Generation of (ia|bc)[P],(ja|bc)[P] integrals ... on
Storage of 3 and 4 external integrals         ... on
Generation of ALL (ka|bc)[P] integrals        ... on
Keep RI integrals in memory                   ... off

Ibatch:  1 (of  1)
Starting 2-4 index PNO integral generation ... done

Timings:
Total PNO integral transformation time     ...       2129.569 sec
Size of the 3-external file                ...       288 MB
Size of the 4-external file                ...      1950 MB
Size of the IKJL file                      ...        19 MB
Size of the all 3-external file            ...      6928 MB
Size of the 1-external file                ...        22 MB

Size of the PAO/PNO coefficient matrices   ...     229.5 MB

Making pair/pair overlap matrices          ... done (  334.148 sec)
Size of the pair overlap file              ...    2509.0 MB
Total # unrestricted pairs ...       2183
  # of alpha-alpha pairs   ...        602
  # of alpha-beta pairs    ...       1108
  # of beta-beta pairs     ...        473
Constructing the guess amplitudes          ... done (    0.620 sec)

-------------------------
FINAL STARTUP INFORMATION
-------------------------

E(0)                                       ...  -3028.423969568
E(SL-UMP2 in NEV-PNO space)                ...     -2.690310419
Initial E(tot)                             ...  -3031.114279987
<T|T>                                      ...      0.534571183
Number of unrestricted pairs included      ... 2183
Total number of pairs                      ... 4095
----------------------------------------------------------
                     OPEN-SHELL COUPLED CLUSTER ITERATIONS
----------------------------------------------------------

Number of PNO amplitudes to be optimized        ...          2144409
Number of canonical amplitudes for strong pairs ...       1971705100
Untruncated number of canonical amplitudes      ...       3698645738

Iter       E(tot)           E(Corr)          Delta-E          Residual     Time
  0  -3031.121404675     -2.661332945      0.028977474      0.021999249 1780.01
                           *** Turning on DIIS ***
  1  -3031.234243474     -2.774171745     -0.112838800      0.009159120 2076.85
  2  -3031.298303306     -2.838231576     -0.064059832      0.008734157 2105.50
  3  -3031.319104527     -2.859032798     -0.020801222      0.003506336 2105.88
  4  -3031.326041606     -2.865969877     -0.006937078      0.002773086 2093.12
  5  -3031.329623955     -2.869552226     -0.003582349      0.002115797 2102.06
  6  -3031.330940619     -2.870868890     -0.001316664      0.000881074 2089.73
  7  -3031.331720259     -2.871648530     -0.000779640      0.000512243 2087.78
  8  -3031.331869098     -2.871797369     -0.000148839      0.000183454 2090.78
  9  -3031.331914191     -2.871842462     -0.000045092      0.000078064 2103.36
 10  -3031.331909621     -2.871837892      0.000004570      0.000060183 2098.46
 11  -3031.331918526     -2.871846797     -0.000008905      0.000031144 2091.09
 12  -3031.331923823     -2.871852093     -0.000005296      0.000015758 2096.21
 13  -3031.331925978     -2.871854248     -0.000002155      0.000009568 2092.48
               --- The CCSD iterations have converged ---

E(0)                                       ...  -3028.423969568
E(CORR)(strong-pairs)                      ...     -2.871854248
E(CORR)(weak-pairs)                        ...     -0.036102161
E(CORR)(corrected)                         ...     -2.907956410
E(TOT)                                     ...  -3031.331925978
Singles norm <S|S>**1/2                    ...      0.187410888 ( 0.062736759, 0.124674130)  
T1 diagnostic                              ...      0.019645999                              
<S**2>(linearized)                         ...      8.7507298 (ideal value:      8.7500000)

----------------------
LARGEST PNO AMPLITUDES
----------------------
  45a-> 77a  45b-> 77b       0.057714
  51b-> 76b  -1b-> -1b       0.057203
  45a-> 78a  45b-> 78b       0.056937
  49b-> 72b  -1b-> -1b       0.047350
  52b-> 76b  -1b-> -1b       0.046730
  30b-> 76b  -1b-> -1b       0.046407
  49b-> 74b  -1b-> -1b       0.046223
  67a-> 77a  67b-> 77b       0.044497
  63a-> 77a  63b-> 77b       0.043820
  49b-> 75b  -1b-> -1b       0.043783
  71a-> 77a  71b-> 77b       0.042994
  44a-> 78a  44b-> 78b       0.042919
  59a-> 77a  59b-> 77b       0.042744
  62a-> 77a  62b-> 77b       0.042236
  65a-> 77a  65b-> 77b       0.042117
  61a-> 77a  61b-> 77b       0.041869

Total # unrestricted pairs ...       1182
  # of alpha-alpha pairs   ...        334
  # of alpha-beta pairs    ...        591
  # of beta-beta pairs     ...        257

-------------------------------------------
DLPNO BASED TRIPLES CORRECTION
-------------------------------------------

Singles multiplier          ...  1.000000
Fragment selection                          .... not used
TCutTNO                     ... 1.000e-09
TCutMP2Pairs                ... 1.000e-05
TCutDOStrong                ... 2.000e-02
TCutMKNStrong               ... 1.000e-02
TCutDOWeak                  ... 4.000e-02
TCutMKNWeak                 ... 1.000e-01
NTCutTNO                    ... 1

Number of Triples that are to be computed         ...     35696

 . . . . . . . . .
10% done  
20% done  
30% done  
40% done  
50% done  
60% done  
70% done  
80% done  
90% done  
          Batch   1   done (  18033.012 sec)

Triples-Correction TCutTNO=   1.000e-09 (NWeakPairs = 0  1  2  3)  -0.117232462453   -0.001832722408    0.000000000000    0.000000000000
Triples-Correction  -0.119065184861

Triples timings:
Total time                      ... 18788.788 sec

Triples List generation         ...     0.000 sec
TNO generation                  ...   755.454 sec
Pair density generation         ...     0.089 sec
Look up tables                  ...     0.119 sec
Generating 3-index integrals    ... 11508.586 sec
Make 4-ind.int. from 3-ind.int  ...     4.028 sec
Projecting amplitudes (D + S)   ...  6228.884 sec
Sorting integrals for spin cases...    59.639 sec
Calculate W0/W1                 ...   187.483 sec
Energy contr. (sum over a,b,c)  ...    44.284 sec

Everything after 3-index        ...  6676.170 sec

Energy contribution AAA         ...    28.413 sec
Energy contribution AAB         ...   128.421 sec
Energy contribution ABB         ...   118.233 sec
Energy contribution BBB         ...    16.385 sec
prep                ...     3.463 sec
makeTTNO            ...  6166.321 sec
copyij              ...     0.139 sec
copyil              ...     4.514 sec
transposeij         ...     0.084 sec
newMatInDoubleProj  ...    59.336 sec
BlasInDoubleProj    ...  3334.858 sec
ProjSingles         ...    51.457 sec
ProjDoubles         ...  6177.426 sec
overall Doubles for projection      ... 3273882
used Doubles for projection         ... 3273882


Number of Triples   (0, 1, 2, 3 weak pairs; overall):  17345   12258       0       0  ( 29603)
Number of Atoms     (0, 1, 2, 3 weak pairs; overall):   20.5    14.5     0.0     0.0  (    29)
Number of PAOs      (0, 1, 2, 3 weak pairs; overall):  790.2   591.0     0.0     0.0  (  1025)
Number of AuxFcns   (0, 1, 2, 3 weak pairs; overall):  982.3   578.1     0.0     0.0  (  2424)
Number of TNOs (0, 1, 2, 3 weak pairs         ):   79.1    55.8     0.0     0.0
Aver. Number of NTNO, Atoms, PAOs, AuxFcns / Triples:  29603    69.5    18.1   707.7   814.9

Triples Correction (T)                     ...     -0.119065185
    alpha-alpha-alpha ... -0.003920248 (  3.3%)
    alpha-alpha-beta  ... -0.055902193 ( 47.0%)
    alpha-beta -beta  ... -0.055118163 ( 46.3%)
    beta -beta -beta  ... -0.004124581 (  3.5%)
Final correlation energy                   ...     -3.027021595
E(CCSD)                                    ...  -3031.331925978
E(CCSD(T))                                 ...  -3031.450991163

----------------------------
STATISTICS FOR PAIR-ENERGIES
----------------------------
Minimum, maximum and average ratios of UMP and CCSD pair-energies ... 0.55, 1.42, 1.02


------------------------------------------------------------------------------- 
                                     TIMINGS                                   
------------------------------------------------------------------------------- 


Total execution time                   ...    56023.930 sec

Localization of occupied MO's          ...       10.768 sec (  0.0%)
Fock Matrix Formation                  ...     1402.422 sec (  2.5%)
Differential overlap integrals         ...        1.375 sec (  0.0%)
Organizing maps                        ...        1.697 sec (  0.0%)
RI 3-index integral generations        ...      274.440 sec (  0.5%)
RI-PNO integral transformation         ...     4959.457 sec (  8.9%)
Initial Guess                          ...     1889.443 sec (  3.4%)
DIIS Solver                            ...       14.655 sec (  0.0%)
State Vector Update                    ...        0.713 sec (  0.0%)
Sigma-vector construction              ...    29013.307 sec ( 51.8%)
  <0|H|D>                              ...        0.028 sec (  0.0% of sigma)
  <D|H|D>(0-ext)                       ...     5334.572 sec ( 18.4% of sigma)
  <D|H|D>(2-ext Fock)                  ...        1.753 sec (  0.0% of sigma)
  <D|H|D>(2-ext)                       ...     4477.538 sec ( 15.4% of sigma)
  <D|H|D>(4-ext)                       ...      134.254 sec (  0.5% of sigma)
  <D|H|D>(4-ext-corr)                  ...      834.853 sec (  2.9% of sigma)
  CCSD doubles correction              ...      523.274 sec (  1.8% of sigma)
  <S|H|S>                              ...      719.680 sec (  2.5% of sigma)
  <S|H|D>(1-ext)                       ...      240.607 sec (  0.8% of sigma)
  <D|H|S>(1-ext)                       ...        0.784 sec (  0.0% of sigma)
  <S|H|D>(3-ext)                       ...       20.261 sec (  0.1% of sigma)
  CCSD singles correction              ...        0.004 sec (  0.0% of sigma)
  Fock-dressing                        ...     8866.169 sec ( 30.6% of sigma)
  Singles amplitudes                   ...       98.130 sec (  0.3% of sigma)
  (ik|jl)-dressing                     ...     6044.818 sec ( 20.8% of sigma)
  (ij|ab),(ia|jb)-dressing             ...     1637.230 sec (  5.6% of sigma)
  Pair energies                        ...        0.137 sec (  0.0% of sigma)
Total Time for computing (T)           ...    18823.581 sec ( 33.6% of ALL)


-------------------------   --------------------
FINAL SINGLE POINT ENERGY     -3031.450991162630
-------------------------   --------------------


                            ***************************************
                            *     ORCA property calculations      *
                            ***************************************

                                    ---------------------
                                    Active property flags
                                    ---------------------
   (+) Dipole Moment


------------------------------------------------------------------------------
                       ORCA ELECTRIC PROPERTIES CALCULATION
------------------------------------------------------------------------------

Dipole Moment Calculation                       ... on
Quadrupole Moment Calculation                   ... off
Polarizability Calculation                      ... off
GBWName                                         ... simple-grid-190-235-b3lyp_d3bj-631gd-gas-singlepoint-DLPNO_CCSD_T1-NormalPNO-augtz-gas.gbw
Electron density file                           ... simple-grid-190-235-b3lyp_d3bj-631gd-gas-singlepoint-DLPNO_CCSD_T1-NormalPNO-augtz-gas.scfp.tmp
The origin for moment calculation is the CENTER OF MASS  = ( 0.300811,  0.029565  0.018148)

-------------
DIPOLE MOMENT
-------------
                                X             Y             Z
Electronic contribution:     40.03103       4.50039       2.20982
Nuclear contribution   :    -44.82091      -4.40522      -2.70407
                        -----------------------------------------
Total Dipole Moment    :     -4.78988       0.09517      -0.49425
                        -----------------------------------------
Magnitude (a.u.)       :      4.81625
Magnitude (Debye)      :     12.24194



--------------------
Rotational spectrum 
--------------------
 
Rotational constants in cm-1:     0.019075     0.011660     0.010823 
Rotational constants in MHz :   571.846385   349.567158   324.454584 

 Dipole components along the rotational axes: 
x,y,z [a.u.] :    -4.787526    -0.080534    -0.519013 
x,y,z [Debye]:   -12.168925    -0.204702    -1.319227 

 

Timings for individual modules:

Sum of individual times         ...    72530.179 sec (=1208.836 min)
GTO integral calculation        ...       13.686 sec (=   0.228 min)   0.0 %
SCF iterations                  ...    16470.998 sec (= 274.517 min)  22.7 %
MDCI module                     ...    56045.495 sec (= 934.092 min)  77.3 %
                             ****ORCA TERMINATED NORMALLY****
TOTAL RUN TIME: 0 days 20 hours 8 minutes 53 seconds 616 msec
