
                                 *****************
                                 * O   R   C   A *
                                 *****************

           --- An Ab Initio, DFT and Semiempirical electronic structure package ---

                  #######################################################
                  #                        -***-                        #
                  #          Department of theory and spectroscopy      #
                  #               Directorship: Frank Neese             #
                  #        Max Planck Institute fuer Kohlenforschung    #
                  #                Kaiser Wilhelm Platz 1               #
                  #                 D-45470 Muelheim/Ruhr               #
                  #                      Germany                        #
                  #                                                     #
                  #                  All rights reserved                #
                  #                        -***-                        #
                  #######################################################


                         Program Version 4.1.2  - RELEASE  -


 With contributions from (in alphabetic order):
   Daniel Aravena         : Magnetic Properties
   Michael Atanasov       : Ab Initio Ligand Field Theory
   Alexander A. Auer      : GIAO ZORA
   Ute Becker             : Parallelization
   Giovanni Bistoni       : ED, Open-shell LED
   Martin Brehm           : Molecular dynamics
   Dmytro Bykov           : SCF Hessian
   Vijay G. Chilkuri      : MRCI spin determinant printing
   Dipayan Datta          : RHF DLPNO-CCSD density
   Achintya Kumar Dutta   : EOM-CC, STEOM-CC
   Dmitry Ganyushin       : Spin-Orbit,Spin-Spin,Magnetic field MRCI
   Miquel Garcia          : C-PCM Hessian
   Yang Guo               : DLPNO-NEVPT2, CIM, IAO-localization
   Andreas Hansen         : Spin unrestricted coupled pair/coupled cluster methods
   Benjamin Helmich-Paris : CASSCF linear response (MC-RPA)
   Lee Huntington         : MR-EOM, pCC
   Robert Izsak           : Overlap fitted RIJCOSX, COSX-SCS-MP3, EOM
   Christian Kollmar      : KDIIS, OOCD, Brueckner-CCSD(T), CCSD density
   Simone Kossmann        : Meta GGA functionals, TD-DFT gradient, OOMP2, MP2 Hessian
   Martin Krupicka        : AUTO-CI
   Lucas Lang             : DCDCAS
   Dagmar Lenk            : GEPOL surface, SMD
   Dimitrios Liakos       : Extrapolation schemes; parallel MDCI
   Dimitrios Manganas     : ROCIS; embedding schemes
   Dimitrios Pantazis     : SARC Basis sets
   Taras Petrenko         : DFT Hessian,TD-DFT gradient, ASA, ECA, R-Raman, ABS, FL, XAS/XES, NRVS
   Peter Pinski           : DLPNO-MP2, DLPNO-MP2 Gradient
   Christoph Reimann      : Effective Core Potentials
   Marius Retegan         : Local ZFS, SOC
   Christoph Riplinger    : Optimizer, TS searches, QM/MM, DLPNO-CCSD(T), (RO)-DLPNO pert. Triples
   Tobias Risthaus        : Range-separated hybrids, TD-DFT gradient, RPA, STAB
   Michael Roemelt        : Restricted open shell CIS
   Masaaki Saitow         : Open-shell DLPNO
   Barbara Sandhoefer     : DKH picture change effects
   Avijit Sen             : IP-ROCIS
   Kantharuban Sivalingam : CASSCF convergence, NEVPT2, FIC-MRCI
   Bernardo de Souza      : ESD, SOC TD-DFT
   Georgi Stoychev        : AutoAux, RI-MP2 NMR
   Willem Van den Heuvel  : Paramagnetic NMR
   Boris Wezisla          : Elementary symmetry handling
   Frank Wennmohs         : Technical directorship


 We gratefully acknowledge several colleagues who have allowed us to
 interface, adapt or use parts of their codes:
   Stefan Grimme, W. Hujo, H. Kruse,             : VdW corrections, initial TS optimization,
                  C. Bannwarth                     DFT functionals, gCP, sTDA/sTD-DF
   Ed Valeev                                     : LibInt (2-el integral package), F12 methods
   Garnet Chan, S. Sharma, J. Yang, R. Olivares  : DMRG
   Ulf Ekstrom                                   : XCFun DFT Library
   Mihaly Kallay                                 : mrcc  (arbitrary order and MRCC methods)
   Andreas Klamt, Michael Diedenhofen            : otool_cosmo (COSMO solvation model)
   Jiri Pittner, Ondrej Demel                    : Mk-CCSD
   Frank Weinhold                                : gennbo (NPA and NBO analysis)
   Christopher J. Cramer and Donald G. Truhlar   : smd solvation model
   Lars Goerigk                                  : TD-DFT with DH, B97 family of functionals
   V. Asgeirsson, H. Jonsson                     : NEB implementation
   FAccTs GmbH                                   : IRC, NEB, NEB-TS, Multilevel


 Your calculation uses the libint2 library for the computation of 2-el integrals
 For citations please refer to: http://libint.valeyev.net

 This ORCA versions uses:
   CBLAS   interface :  Fast vector & matrix operations
   LAPACKE interface :  Fast linear algebra routines
   SCALAPACK package :  Parallel linear algebra routines


----- Orbital basis set information -----
Your calculation utilizes the basis: aug-cc-pVTZ 
    H, B-Ne : Obtained from the ccRepo (grant-hill.group.shef.ac.uk/ccrepo) Feb. 2017
              R. A. Kendall, T. H. Dunning, Jr., R. J. Harrison, J. Chem. Phys. 96, 6796 (1992)
         He : Obtained from the ccRepo (grant-hill.group.shef.ac.uk/ccrepo) Feb. 2017
              D. E. Woon, T. H. Dunning, Jr., J. Chem. Phys. 100, 2975 (1994)
  Li-Be, Na : Obtained from the ccRepo (grant-hill.group.shef.ac.uk/ccrepo) Feb. 2017
              B. P. Prascher, D. E. Woon, K. A. Peterson, T. H. Dunning, Jr., A. K. Wilson, Theor. Chem. Acc. 128, 69 (2011)
         Mg : Obtained from the Peterson Research Group Website (tyr0.chem.wsu.edu/~kipeters) Feb. 2017
              B. P. Prascher, D. E. Woon, K. A. Peterson, T. H. Dunning, Jr., A. K. Wilson, Theor. Chem. Acc. 128, 69 (2011)
      Al-Ar : Obtained from the ccRepo (grant-hill.group.shef.ac.uk/ccrepo) Feb. 2017
              D. E. Woon, T. H. Dunning, Jr., J. Chem. Phys. 98, 1358 (1993)
      Sc-Zn : Obtained from the ccRepo (grant-hill.group.shef.ac.uk/ccrepo) Feb. 2017
              N. B. Balabanov, K. A. Peterson, J. Chem. Phys. 123, 064107 (2005)
              N. B. Balabanov, K. A. Peterson, J. Chem. Phys. 125, 074110 (2006)
      Ga-Kr : Obtained from the ccRepo (grant-hill.group.shef.ac.uk/ccrepo) Feb. 2017
              A. K. Wilson, D. E. Woon, K. A. Peterson, T. H. Dunning, Jr., J. Chem. Phys. 110, 7667 (1999)
     Ag, Au : Obtained from the Peterson Research Group Website (tyr0.chem.wsu.edu/~kipeters) Feb. 2017
              K. A. Peterson, C. Puzzarini, Theor. Chem. Acc. 114, 283 (2005)

----- AuxJ basis set information -----
Your calculation utilizes the AutoAux generation procedure.
  G. L. Stoychev, A. A. Auer, F. Neese, J. Chem. Theory Comput. 13, 554 (2017)

----- AuxC basis set information -----
Your calculation utilizes the auxiliary basis: aug-cc-pVTZ/C 
  H-He, B-F, Al-Ar, Ga-Kr : Obtained from the EMSL Basis Set Exchange (bse.pnl.gov) Feb. 2017
                            F. Weigend, A. Kohn, C. Hattig, J. Chem. Phys. 116, 3175 (2002)
                   Be, Mg : Obtained from the TURBOMOLE 7.0 basis set library
                            C. Haettig, Phys. Chem. Chem. Phys. 7, 59 (2005)
                       Ne : Obtained from the EMSL Basis Set Exchange (bse.pnl.gov) Feb. 2017
                            C. Haettig, Phys. Chem. Chem. Phys. 7, 59 (2005)
                            F. Weigend, A. Kohn, C. Hattig, J. Chem. Phys. 116, 3175 (2002)
                    Sc-Zn : Obtained from the EMSL Basis Set Exchange (bse.pnl.gov) Feb. 2017
                            J. G. Hill, J. A. Platts, J. Chem. Phys. 128, 044104 (2008)

----- AuxJK basis set information -----
Your calculation utilizes the AutoAux generation procedure.
  G. L. Stoychev, A. A. Auer, F. Neese, J. Chem. Theory Comput. 13, 554 (2017)

================================================================================
                                        WARNINGS
                       Please study these warnings very carefully!
================================================================================


WARNING: your system is open-shell and RHF/RKS was chosen
  ===> : WILL SWITCH to UHF/UKS


WARNING: MDCI localization with Augmented Hessian Foster-Boys
  ===> : Switching off randomization!

WARNING: Post HF methods need fully converged wavefunctions
  ===> : Setting SCFConvForced true
         You can overwrite this default with %scf ConvForced false 


INFO   : the flag for use of LIBINT has been found!

================================================================================
                                       INPUT FILE
================================================================================
NAME = simple-grid-165-240-b3lyp_d3bj-631gd-gas-singlepoint-DLPNO_CCSD_T1-NormalPNO-augtz-gas.inp
|  1> ! aug-cc-pVTZ aug-cc-pVTZ/C DLPNO-CCSD(T1) TightSCF NormalPNO UNO MiniPrint AutoAux
|  2> %pal nproc 10 end
|  3> %maxcore 20000
|  4> %mdci
|  5>      density none
|  6> end
|  7> 
|  8> * xyz 0 6
|  9>  O     -0.27992000     -0.38661100     -0.70360400
| 10>  C     -1.41127400     -1.20583800     -0.48913100
| 11>  C     -2.64736500     -0.20059000     -0.06011100
| 12>  C     -2.06012600      1.15491500     -0.24034800
| 13>  C     -1.92733300      1.74817800     -1.57838100
| 14> Fe      1.35668200      0.02149200      0.00380300
| 15> Cl      1.66988000      2.07611900     -0.81480500
| 16>  C     -1.63282700      1.95108500      0.90811900
| 17> Cl      2.84816400     -1.50041400     -0.50714100
| 18> Cl      1.03239000      0.18470300      2.23146000
| 19>  H     -3.41707600     -0.32603300     -0.83068800
| 20>  H     -2.45166100      2.03760500      1.63421400
| 21>  H     -0.84672700      1.38561200      1.45046700
| 22>  H     -1.23665900      2.92869100      0.63455900
| 23>  H     -2.53672900      2.66613100     -1.60036900
| 24>  H     -0.88300000      2.07619900     -1.70238100
| 25>  H     -2.22186000      1.08428400     -2.38937600
| 26>  C     -3.25921200     -0.46195100      1.31710000
| 27>  H     -4.07178100      0.24396000      1.52343200
| 28>  H     -3.68572100     -1.46711000      1.34789600
| 29>  H     -2.52323300     -0.38596900      2.12073000
| 30>  C     -1.11954800     -2.24887000      0.58653900
| 31>  H     -1.96236900     -2.92862300      0.74397200
| 32>  H     -0.26424000     -2.83899900      0.23924500
| 33>  H     -0.83799700     -1.78909100      1.53519900
| 34>  C     -1.76506300     -1.88694600     -1.81170000
| 35>  H     -0.92264900     -2.51456400     -2.11783300
| 36>  H     -2.65742100     -2.51513500     -1.71175100
| 37>  H     -1.93613400     -1.14969600     -2.60163300
| 38> *
| 39> 
| 40> 
| 41>                          ****END OF INPUT****
================================================================================

                       ****************************
                       * Single Point Calculation *
                       ****************************

---------------------------------
CARTESIAN COORDINATES (ANGSTROEM)
---------------------------------
  O     -0.279920   -0.386611   -0.703604
  C     -1.411274   -1.205838   -0.489131
  C     -2.647365   -0.200590   -0.060111
  C     -2.060126    1.154915   -0.240348
  C     -1.927333    1.748178   -1.578381
  Fe     1.356682    0.021492    0.003803
  Cl     1.669880    2.076119   -0.814805
  C     -1.632827    1.951085    0.908119
  Cl     2.848164   -1.500414   -0.507141
  Cl     1.032390    0.184703    2.231460
  H     -3.417076   -0.326033   -0.830688
  H     -2.451661    2.037605    1.634214
  H     -0.846727    1.385612    1.450467
  H     -1.236659    2.928691    0.634559
  H     -2.536729    2.666131   -1.600369
  H     -0.883000    2.076199   -1.702381
  H     -2.221860    1.084284   -2.389376
  C     -3.259212   -0.461951    1.317100
  H     -4.071781    0.243960    1.523432
  H     -3.685721   -1.467110    1.347896
  H     -2.523233   -0.385969    2.120730
  C     -1.119548   -2.248870    0.586539
  H     -1.962369   -2.928623    0.743972
  H     -0.264240   -2.838999    0.239245
  H     -0.837997   -1.789091    1.535199
  C     -1.765063   -1.886946   -1.811700
  H     -0.922649   -2.514564   -2.117833
  H     -2.657421   -2.515135   -1.711751
  H     -1.936134   -1.149696   -2.601633

----------------------------
CARTESIAN COORDINATES (A.U.)
----------------------------
  NO LB      ZA    FRAG     MASS         X           Y           Z
   0 O     8.0000    0    15.999   -0.528972   -0.730589   -1.329619
   1 C     6.0000    0    12.011   -2.666921   -2.278704   -0.924324
   2 C     6.0000    0    12.011   -5.002795   -0.379060   -0.113593
   3 C     6.0000    0    12.011   -3.893074    2.182473   -0.454192
   4 C     6.0000    0    12.011   -3.642132    3.303578   -2.982708
   5 Fe   26.0000    0    55.850    2.563757    0.040614    0.007187
   6 Cl   17.0000    0    35.453    3.155616    3.923296   -1.539758
   7 C     6.0000    0    12.011   -3.085596    3.687016    1.716096
   8 Cl   17.0000    0    35.453    5.382250   -2.835372   -0.958358
   9 Cl   17.0000    0    35.453    1.950934    0.349038    4.216848
  10 H     1.0000    0     1.008   -6.457338   -0.616113   -1.569773
  11 H     1.0000    0     1.008   -4.632968    3.850515    3.088217
  12 H     1.0000    0     1.008   -1.600082    2.618427    2.740985
  13 H     1.0000    0     1.008   -2.336947    5.534424    1.199143
  14 H     1.0000    0     1.008   -4.793723    5.038257   -3.024259
  15 H     1.0000    0     1.008   -1.668628    3.923448   -3.217034
  16 H     1.0000    0     1.008   -4.198707    2.049000   -4.515266
  17 C     6.0000    0    12.011   -6.159018   -0.872961    2.488958
  18 H     1.0000    0     1.008   -7.694551    0.461018    2.878869
  19 H     1.0000    0     1.008   -6.965003   -2.772436    2.547154
  20 H     1.0000    0     1.008   -4.768219   -0.729376    4.007599
  21 C     6.0000    0    12.011   -2.115639   -4.249748    1.108398
  22 H     1.0000    0     1.008   -3.708340   -5.534295    1.405903
  23 H     1.0000    0     1.008   -0.499341   -5.364931    0.452108
  24 H     1.0000    0     1.008   -1.583585   -3.380892    2.901106
  25 C     6.0000    0    12.011   -3.335486   -3.565811   -3.423617
  26 H     1.0000    0     1.008   -1.743554   -4.751837   -4.002124
  27 H     1.0000    0     1.008   -5.021798   -4.752916   -3.234741
  28 H     1.0000    0     1.008   -3.658763   -2.172611   -4.916374



           ************************************************************
           *        Program running with 10 parallel MPI-processes    *
           *              working on a common directory               *
           ************************************************************


           ************************************************************
           *        Program running with 10 parallel MPI-processes    *
           *              working on a common directory               *
           ************************************************************

Diagonalization of the overlap matrix:
Smallest eigenvalue                        ... 5.853e-07
Time for diagonalization                   ...    0.455 sec
Threshold for overlap eigenvalues          ... 1.000e-08
Number of eigenvalues below threshold      ... 0
Time for construction of square roots      ...    0.267 sec
Total time needed                          ...    0.728 sec

-------------------
DFT GRID GENERATION
-------------------

General Integration Accuracy     IntAcc      ...  4.340
Radial Grid Type                 RadialGrid  ... Gauss-Chebyshev
Angular Grid (max. acc.)         AngularGrid ... Lebedev-110
Angular grid pruning method      GridPruning ... 3 (G Style)
Weight generation scheme         WeightScheme... Becke
Basis function cutoff            BFCut       ...    1.0000e-11
Integration weight cutoff        WCut        ...    1.0000e-14
Grids for H and He will be reduced by one unit

# of grid points (after initial pruning)     ...  36112 (   0.0 sec)
# of grid points (after weights+screening)   ...  32280 (   0.1 sec)
nearest neighbour list constructed           ...    0.0 sec
Grid point re-assignment to atoms done       ...    0.0 sec
Grid point division into batches done        ...    0.0 sec
Reduced shell lists constructed in    0.2 sec

Total number of grid points                  ...    32280
Total number of batches                      ...      519
Average number of points per batch           ...       62
Average number of grid points per atom       ...     1113
Average number of shells per batch           ...   293.64 (85.61%)
Average number of basis functions per batch  ...   873.83 (85.25%)
Average number of large shells per batch     ...   242.25 (82.50%)
Average number of large basis fcns per batch ...   719.91 (82.39%)
Maximum spatial batch extension              ...   2.91,  3.22,  5.31 au
Average spatial batch extension              ...   0.16,  0.17,  0.18 au

Time for grid setup =    0.357 sec

Loading Hartree-Fock densities                     ... done
Calculating cut-offs                               ... done
Setting up the integral package                    ... done
Initializing the effective Hamiltonian             ... done
Starting the Coulomb interaction                   ... done (   1.1 sec)
Reading the grid                                   ... done
Mapping shells                                     ... done
Starting the XC term evaluation                    ... done (   0.8 sec)
Transforming the Hamiltonian                       ... done (   0.2 sec)
Diagonalizing the Hamiltonian                      ... done (   0.3 sec)
Back transforming the eigenvectors                 ... done (   0.1 sec)
Now organizing SCF variables                       ... done
--------------
SCF ITERATIONS
--------------
ITER       Energy         Delta-E        Max-DP      RMS-DP      [F,P]     Damp
               ***  Starting incremental Fock matrix formation  ***
  0  -3027.5628744481   0.000000000000 0.29873023  0.00130858  0.3012870 0.7000
  1  -3027.8168117850  -0.253937336896 0.20659781  0.00100049  0.1707250 0.7000
                               ***Turning on DIIS***
  2  -3027.9858526494  -0.169040864410 0.13871273  0.00072576  0.1099393 0.7000
  3  -3029.6636143955  -1.677761746084 0.28666636  0.00178026  0.0827292 0.0000
  4  -3028.3017885466   1.361825848861 0.04841373  0.00023353  0.0202606 0.0000
  5  -3028.4153027078  -0.113514161154 0.04017814  0.00017519  0.0112026 0.0000
  6  -3028.4346051025  -0.019302394728 0.02101200  0.00007121  0.0053643 0.0000
  7  -3028.4587595593  -0.024154456752 0.01036725  0.00003406  0.0031139 0.0000
  8  -3028.4539432285   0.004816330769 0.00610234  0.00001853  0.0012938 0.0000
  9  -3028.4447084403   0.009234788198 0.00251883  0.00001100  0.0006605 0.0000
 10  -3028.4342356988   0.010472741478 0.00080256  0.00000314  0.0003993 0.0000
 11  -3028.4400271842  -0.005791485391 0.00027073  0.00000186  0.0000618 0.0000
 12  -3028.4380583670   0.001968817191 0.00024460  0.00000125  0.0000216 0.0000
 13  -3028.4381601893  -0.000101822267 0.00064485  0.00000138  0.0000111 0.0000
 14  -3028.4381873219  -0.000027132569 0.00044861  0.00000105  0.0000058 0.0000
 15  -3028.4381285314   0.000058790479 0.00032873  0.00000135  0.0000038 0.0000
 16  -3028.4381430253  -0.000014493899 0.00085121  0.00000185  0.0000023 0.0000
 17  -3028.4381444589  -0.000001433595 0.00073945  0.00000180  0.0000012 0.0000
                            ***DIIS convergence achieved***

               *****************************************************
               *                     SUCCESS                       *
               *           SCF CONVERGED AFTER  18 CYCLES          *
               *****************************************************

Total Energy       :        -3028.43814010 Eh          -82407.99133 eV
  Last Energy change         ...    4.3568e-06  Tolerance :   1.0000e-08
  Last MAX-Density change    ...    2.7738e-04  Tolerance :   1.0000e-07
             **** THE GBW FILE WAS UPDATED (simple-grid-165-240-b3lyp_d3bj-631gd-gas-singlepoint-DLPNO_CCSD_T1-NormalPNO-augtz-gas.gbw) ****
             **** DENSITY FILE WAS UPDATED (simple-grid-165-240-b3lyp_d3bj-631gd-gas-singlepoint-DLPNO_CCSD_T1-NormalPNO-augtz-gas.scfp.tmp) ****
             **** ENERGY FILE WAS UPDATED (simple-grid-165-240-b3lyp_d3bj-631gd-gas-singlepoint-DLPNO_CCSD_T1-NormalPNO-augtz-gas.en.tmp) ****
----------------------
UHF SPIN CONTAMINATION
----------------------

Expectation value of <S**2>     :     8.764686
Ideal value S*(S+1) for S=2.5   :     8.750000
Deviation                       :     0.014686

----------------
ORBITAL ENERGIES
----------------
                 SPIN UP ORBITALS
  NO   OCC          E(Eh)            E(eV) 
   0   1.0000    -261.543183     -7116.9518 
   1   1.0000    -104.775574     -2851.0883 
   2   1.0000    -104.773680     -2851.0368 
   3   1.0000    -104.768532     -2850.8967 
   4   1.0000     -32.211004      -876.5060 
   5   1.0000     -27.687113      -753.4046 
   6   1.0000     -27.686734      -753.3943 
   7   1.0000     -27.686297      -753.3824 
   8   1.0000     -20.534722      -558.7782 
   9   1.0000     -11.413355      -310.5732 
  10   1.0000     -11.336016      -308.4687 
  11   1.0000     -11.295643      -307.3701 
  12   1.0000     -11.286507      -307.1215 
  13   1.0000     -11.280359      -306.9542 
  14   1.0000     -11.263677      -306.5002 
  15   1.0000     -11.237174      -305.7791 
  16   1.0000     -11.229678      -305.5751 
  17   1.0000     -10.502156      -285.7782 
  18   1.0000     -10.500175      -285.7243 
  19   1.0000     -10.495075      -285.5855 
  20   1.0000      -7.969058      -216.8491 
  21   1.0000      -7.968127      -216.8238 
  22   1.0000      -7.968084      -216.8226 
  23   1.0000      -7.967035      -216.7940 
  24   1.0000      -7.966242      -216.7725 
  25   1.0000      -7.966132      -216.7695 
  26   1.0000      -7.961831      -216.6524 
  27   1.0000      -7.961211      -216.6356 
  28   1.0000      -7.961116      -216.6330 
  29   1.0000      -4.566542      -124.2619 
  30   1.0000      -3.179140       -86.5088 
  31   1.0000      -3.178592       -86.4939 
  32   1.0000      -3.178336       -86.4869 
  33   1.0000      -1.348438       -36.6929 
  34   1.0000      -1.192567       -32.4514 
  35   1.0000      -1.094409       -29.7804 
  36   1.0000      -1.045143       -28.4398 
  37   1.0000      -1.040288       -28.3077 
  38   1.0000      -1.037692       -28.2370 
  39   1.0000      -1.035599       -28.1801 
  40   1.0000      -1.020126       -27.7590 
  41   1.0000      -0.963392       -26.2152 
  42   1.0000      -0.933477       -25.4012 
  43   1.0000      -0.903658       -24.5898 
  44   1.0000      -0.896383       -24.3918 
  45   1.0000      -0.896146       -24.3854 
  46   1.0000      -0.889166       -24.1954 
  47   1.0000      -0.888229       -24.1699 
  48   1.0000      -0.803207       -21.8564 
  49   1.0000      -0.759372       -20.6636 
  50   1.0000      -0.708992       -19.2926 
  51   1.0000      -0.690429       -18.7875 
  52   1.0000      -0.677272       -18.4295 
  53   1.0000      -0.635428       -17.2909 
  54   1.0000      -0.633464       -17.2374 
  55   1.0000      -0.624941       -17.0055 
  56   1.0000      -0.606599       -16.5064 
  57   1.0000      -0.598569       -16.2879 
  58   1.0000      -0.595204       -16.1963 
  59   1.0000      -0.582619       -15.8539 
  60   1.0000      -0.578972       -15.7546 
  61   1.0000      -0.555234       -15.1087 
  62   1.0000      -0.548404       -14.9228 
  63   1.0000      -0.538233       -14.6461 
  64   1.0000      -0.524454       -14.2711 
  65   1.0000      -0.521352       -14.1867 
  66   1.0000      -0.501817       -13.6551 
  67   1.0000      -0.467245       -12.7144 
  68   1.0000      -0.465660       -12.6712 
  69   1.0000      -0.444005       -12.0820 
  70   1.0000      -0.434487       -11.8230 
  71   1.0000      -0.423909       -11.5351 
  72   1.0000      -0.420027       -11.4295 
  73   1.0000      -0.416623       -11.3369 
  74   1.0000      -0.412526       -11.2254 
  75   1.0000      -0.411679       -11.2024 
  76   1.0000      -0.409240       -11.1360 
  77   0.0000       0.003781         0.1029 
  78   0.0000       0.008296         0.2257 
  79   0.0000       0.019854         0.5403 
  80   0.0000       0.020914         0.5691 
  81   0.0000       0.030252         0.8232 
  82   0.0000       0.037353         1.0164 
  83   0.0000       0.039724         1.0809 
  84   0.0000       0.043610         1.1867 
  85   0.0000       0.044470         1.2101 
  86   0.0000       0.047343         1.2883 
  87   0.0000       0.056556         1.5390 
  88   0.0000       0.059301         1.6137 
  89   0.0000       0.061084         1.6622 
  90   0.0000       0.064911         1.7663 
  91   0.0000       0.066956         1.8220 
  92   0.0000       0.070381         1.9152 
  93   0.0000       0.073477         1.9994 
  94   0.0000       0.078322         2.1312 
  95   0.0000       0.088835         2.4173 
  96   0.0000       0.089919         2.4468 
  97   0.0000       0.093095         2.5332 
  98   0.0000       0.093929         2.5559 
  99   0.0000       0.098956         2.6927 
 100   0.0000       0.101175         2.7531 
 101   0.0000       0.109320         2.9748 
 102   0.0000       0.115145         3.1333 
 103   0.0000       0.118076         3.2130 
 104   0.0000       0.122278         3.3274 
 105   0.0000       0.126084         3.4309 
 106   0.0000       0.127252         3.4627 
 107   0.0000       0.130632         3.5547 
 108   0.0000       0.135267         3.6808 
 109   0.0000       0.135601         3.6899 
 110   0.0000       0.137374         3.7381 
 111   0.0000       0.138744         3.7754 
 112   0.0000       0.145766         3.9665 
 113   0.0000       0.149360         4.0643 
 114   0.0000       0.150683         4.1003 
 115   0.0000       0.153372         4.1735 
 116   0.0000       0.156475         4.2579 
 117   0.0000       0.161221         4.3871 
 118   0.0000       0.163333         4.4445 
 119   0.0000       0.166691         4.5359 
 120   0.0000       0.171106         4.6560 
 121   0.0000       0.173603         4.7240 
 122   0.0000       0.174641         4.7522 
 123   0.0000       0.179434         4.8826 
 124   0.0000       0.183597         4.9959 
 125   0.0000       0.187769         5.1095 
 126   0.0000       0.189091         5.1454 
 127   0.0000       0.191870         5.2210 
 128   0.0000       0.195904         5.3308 
 129   0.0000       0.202038         5.4977 
 130   0.0000       0.204611         5.5677 
 131   0.0000       0.207180         5.6377 
 132   0.0000       0.210490         5.7277 
 133   0.0000       0.212364         5.7787 
 134   0.0000       0.214258         5.8303 
 135   0.0000       0.218132         5.9357 
 136   0.0000       0.224347         6.1048 
 137   0.0000       0.231118         6.2890 
 138   0.0000       0.233302         6.3485 
 139   0.0000       0.234340         6.3767 
 140   0.0000       0.236732         6.4418 
 141   0.0000       0.239626         6.5206 
 142   0.0000       0.243532         6.6268 
 143   0.0000       0.246326         6.7029 
 144   0.0000       0.251080         6.8322 
 145   0.0000       0.251954         6.8560 
 146   0.0000       0.254448         6.9239 
 147   0.0000       0.258871         7.0443 
 148   0.0000       0.263709         7.1759 
 149   0.0000       0.266248         7.2450 
 150   0.0000       0.267314         7.2740 
 151   0.0000       0.271736         7.3943 
 152   0.0000       0.274837         7.4787 
 153   0.0000       0.278283         7.5725 
 154   0.0000       0.281698         7.6654 
 155   0.0000       0.295589         8.0434 
 156   0.0000       0.299054         8.1377 
 157   0.0000       0.300687         8.1821 
 158   0.0000       0.304064         8.2740 
 159   0.0000       0.307677         8.3723 
 160   0.0000       0.309615         8.4250 
 161   0.0000       0.312681         8.5085 
 162   0.0000       0.316567         8.6142 
 163   0.0000       0.322212         8.7678 
 164   0.0000       0.322580         8.7779 
 165   0.0000       0.328182         8.9303 
 166   0.0000       0.330786         9.0011 
 167   0.0000       0.338532         9.2119 
 168   0.0000       0.341391         9.2897 
 169   0.0000       0.345169         9.3925 
 170   0.0000       0.350746         9.5443 
 171   0.0000       0.355666         9.6782 
 172   0.0000       0.356531         9.7017 
 173   0.0000       0.361752         9.8438 
 174   0.0000       0.363763         9.8985 
 175   0.0000       0.364887         9.9291 
 176   0.0000       0.368438        10.0257 
 177   0.0000       0.373231        10.1561 
 178   0.0000       0.374630        10.1942 
 179   0.0000       0.378893        10.3102 
 180   0.0000       0.383533        10.4365 
 181   0.0000       0.384912        10.4740 
 182   0.0000       0.389417        10.5966 
 183   0.0000       0.390959        10.6385 
 184   0.0000       0.393573        10.7097 
 185   0.0000       0.398852        10.8533 
 186   0.0000       0.400543        10.8993 
 187   0.0000       0.405455        11.0330 
 188   0.0000       0.407640        11.0924 
 189   0.0000       0.411578        11.1996 
 190   0.0000       0.414555        11.2806 
 191   0.0000       0.417931        11.3725 
 192   0.0000       0.421950        11.4818 
 193   0.0000       0.427071        11.6212 
 194   0.0000       0.427740        11.6394 
 195   0.0000       0.430767        11.7218 
 196   0.0000       0.439823        11.9682 
 197   0.0000       0.441327        12.0091 
 198   0.0000       0.445344        12.1184 
 199   0.0000       0.450338        12.2543 
 200   0.0000       0.452558        12.3147 
 201   0.0000       0.454440        12.3660 
 202   0.0000       0.458884        12.4869 
 203   0.0000       0.462432        12.5834 
 204   0.0000       0.467179        12.7126 
 205   0.0000       0.469278        12.7697 
 206   0.0000       0.472453        12.8561 
 207   0.0000       0.477190        12.9850 
 208   0.0000       0.478338        13.0162 
 209   0.0000       0.480758        13.0821 
 210   0.0000       0.483660        13.1611 
 211   0.0000       0.484944        13.1960 
 212   0.0000       0.488205        13.2847 
 213   0.0000       0.493356        13.4249 
 214   0.0000       0.496012        13.4972 
 215   0.0000       0.497879        13.5480 
 216   0.0000       0.504149        13.7186 
 217   0.0000       0.505000        13.7417 
 218   0.0000       0.507581        13.8120 
 219   0.0000       0.510081        13.8800 
 220   0.0000       0.512495        13.9457 
 221   0.0000       0.516455        14.0535 
 222   0.0000       0.522401        14.2153 
 223   0.0000       0.525039        14.2870 
 224   0.0000       0.527179        14.3453 
 225   0.0000       0.535914        14.5830 
 226   0.0000       0.537121        14.6158 
 227   0.0000       0.540264        14.7013 
 228   0.0000       0.547893        14.9089 
 229   0.0000       0.550270        14.9736 
 230   0.0000       0.554269        15.0824 
 231   0.0000       0.558529        15.1984 
 232   0.0000       0.561283        15.2733 
 233   0.0000       0.563067        15.3218 
 234   0.0000       0.567211        15.4346 
 235   0.0000       0.567730        15.4487 
 236   0.0000       0.574418        15.6307 
 237   0.0000       0.577201        15.7064 
 238   0.0000       0.583708        15.8835 
 239   0.0000       0.590083        16.0570 
 240   0.0000       0.591863        16.1054 
 241   0.0000       0.594029        16.1643 
 242   0.0000       0.595450        16.2030 
 243   0.0000       0.602868        16.4049 
 244   0.0000       0.604100        16.4384 
 245   0.0000       0.608343        16.5539 
 246   0.0000       0.613853        16.7038 
 247   0.0000       0.614874        16.7316 
 248   0.0000       0.618322        16.8254 
 249   0.0000       0.621953        16.9242 
 250   0.0000       0.625802        17.0290 
 251   0.0000       0.628635        17.1060 
 252   0.0000       0.630854        17.1664 
 253   0.0000       0.636413        17.3177 
 254   0.0000       0.641317        17.4511 
 255   0.0000       0.645644        17.5689 
 256   0.0000       0.647675        17.6241 
 257   0.0000       0.649573        17.6758 
 258   0.0000       0.656062        17.8524 
 259   0.0000       0.657967        17.9042 
 260   0.0000       0.666243        18.1294 
 261   0.0000       0.670367        18.2416 
 262   0.0000       0.674858        18.3638 
 263   0.0000       0.680564        18.5191 
 264   0.0000       0.686654        18.6848 
 265   0.0000       0.688446        18.7336 
 266   0.0000       0.693988        18.8844 
 267   0.0000       0.697725        18.9861 
 268   0.0000       0.706122        19.2146 
 269   0.0000       0.706885        19.2353 
 270   0.0000       0.709039        19.2939 
 271   0.0000       0.711832        19.3699 
 272   0.0000       0.716566        19.4988 
 273   0.0000       0.718732        19.5577 
 274   0.0000       0.726017        19.7559 
 275   0.0000       0.732332        19.9278 
 276   0.0000       0.735170        20.0050 
 277   0.0000       0.736080        20.0298 
 278   0.0000       0.746948        20.3255 
 279   0.0000       0.752615        20.4797 
 280   0.0000       0.756866        20.5954 
 281   0.0000       0.759144        20.6574 
 282   0.0000       0.768023        20.8990 
 283   0.0000       0.771829        21.0025 
 284   0.0000       0.774695        21.0805 
 285   0.0000       0.785698        21.3799 
 286   0.0000       0.791480        21.5373 
 287   0.0000       0.797679        21.7060 
 288   0.0000       0.799579        21.7576 
 289   0.0000       0.805422        21.9166 
 290   0.0000       0.812095        22.0982 
 291   0.0000       0.813739        22.1430 
 292   0.0000       0.818473        22.2718 
 293   0.0000       0.823168        22.3995 
 294   0.0000       0.827318        22.5125 
 295   0.0000       0.835070        22.7234 
 296   0.0000       0.838547        22.8180 
 297   0.0000       0.849526        23.1168 
 298   0.0000       0.852767        23.2050 
 299   0.0000       0.854035        23.2395 
 300   0.0000       0.863080        23.4856 
 301   0.0000       0.870725        23.6936 
 302   0.0000       0.873006        23.7557 
 303   0.0000       0.877226        23.8705 
 304   0.0000       0.882949        24.0263 
 305   0.0000       0.888681        24.1822 
 306   0.0000       0.892344        24.2819 
 307   0.0000       0.899116        24.4662 
 308   0.0000       0.901544        24.5323 
 309   0.0000       0.906510        24.6674 
 310   0.0000       0.911280        24.7972 
 311   0.0000       0.914523        24.8854 
 312   0.0000       0.918962        25.0062 
 313   0.0000       0.924041        25.1444 
 314   0.0000       0.929042        25.2805 
 315   0.0000       0.934544        25.4302 
 316   0.0000       0.935815        25.4648 
 317   0.0000       0.937193        25.5023 
 318   0.0000       0.941064        25.6077 
 319   0.0000       0.944397        25.6983 
 320   0.0000       0.946183        25.7469 
 321   0.0000       0.951448        25.8902 
 322   0.0000       0.954866        25.9832 
 323   0.0000       0.959984        26.1225 
 324   0.0000       0.962997        26.2045 
 325   0.0000       0.966990        26.3131 
 326   0.0000       0.970292        26.4030 
 327   0.0000       0.972894        26.4738 
 328   0.0000       0.979279        26.6475 
 329   0.0000       0.985285        26.8110 
 330   0.0000       0.987851        26.8808 
 331   0.0000       0.990214        26.9451 
 332   0.0000       0.997127        27.1332 
 333   0.0000       1.000163        27.2158 
 334   0.0000       1.002825        27.2883 
 335   0.0000       1.006426        27.3862 
 336   0.0000       1.010028        27.4843 
 337   0.0000       1.016238        27.6532 
 338   0.0000       1.018410        27.7123 
 339   0.0000       1.019730        27.7483 
 340   0.0000       1.025776        27.9128 
 341   0.0000       1.026332        27.9279 
 342   0.0000       1.031199        28.0604 
 343   0.0000       1.036141        28.1948 
 344   0.0000       1.038541        28.2601 
 345   0.0000       1.042327        28.3631 
 346   0.0000       1.046837        28.4859 
 347   0.0000       1.047699        28.5093 
 348   0.0000       1.051032        28.6000 
 349   0.0000       1.054073        28.6828 
 350   0.0000       1.060344        28.8534 
 351   0.0000       1.063948        28.9515 
 352   0.0000       1.065524        28.9944 
 353   0.0000       1.069270        29.0963 
 354   0.0000       1.074394        29.2357 
 355   0.0000       1.078657        29.3517 
 356   0.0000       1.084164        29.5016 
 357   0.0000       1.085977        29.5510 
 358   0.0000       1.090884        29.6845 
 359   0.0000       1.100588        29.9485 
 360   0.0000       1.102635        30.0042 
 361   0.0000       1.106120        30.0990 
 362   0.0000       1.108756        30.1708 
 363   0.0000       1.112341        30.2683 
 364   0.0000       1.115137        30.3444 
 365   0.0000       1.123122        30.5617 
 366   0.0000       1.123862        30.5818 
 367   0.0000       1.131889        30.8003 
 368   0.0000       1.134452        30.8700 
 369   0.0000       1.139132        30.9974 
 370   0.0000       1.143214        31.1084 
 371   0.0000       1.147430        31.2232 
 372   0.0000       1.154683        31.4205 
 373   0.0000       1.156697        31.4753 
 374   0.0000       1.161869        31.6161 
 375   0.0000       1.169678        31.8286 
 376   0.0000       1.174765        31.9670 
 377   0.0000       1.175894        31.9977 
 378   0.0000       1.178295        32.0630 
 379   0.0000       1.187797        32.3216 
 380   0.0000       1.189761        32.3751 
 381   0.0000       1.195770        32.5386 
 382   0.0000       1.200827        32.6762 
 383   0.0000       1.202499        32.7217 
 384   0.0000       1.209908        32.9233 
 385   0.0000       1.212431        32.9919 
 386   0.0000       1.216819        33.1113 
 387   0.0000       1.222441        33.2643 
 388   0.0000       1.223829        33.3021 
 389   0.0000       1.229120        33.4460 
 390   0.0000       1.239004        33.7150 
 391   0.0000       1.241170        33.7739 
 392   0.0000       1.243027        33.8245 
 393   0.0000       1.244685        33.8696 
 394   0.0000       1.251709        34.0607 
 395   0.0000       1.257261        34.2118 
 396   0.0000       1.259370        34.2692 
 397   0.0000       1.270395        34.5692 
 398   0.0000       1.274044        34.6685 
 399   0.0000       1.281710        34.8771 
 400   0.0000       1.287024        35.0217 
 401   0.0000       1.289818        35.0977 
 402   0.0000       1.293238        35.1908 
 403   0.0000       1.297439        35.3051 
 404   0.0000       1.304153        35.4878 
 405   0.0000       1.307670        35.5835 
 406   0.0000       1.315943        35.8086 
 407   0.0000       1.318958        35.8907 
 408   0.0000       1.323432        36.0124 
 409   0.0000       1.330242        36.1977 
 410   0.0000       1.336988        36.3813 
 411   0.0000       1.342811        36.5398 
 412   0.0000       1.347405        36.6647 
 413   0.0000       1.352770        36.8107 
 414   0.0000       1.360585        37.0234 
 415   0.0000       1.368395        37.2359 
 416   0.0000       1.370761        37.3003 
 417   0.0000       1.372629        37.3511 
 418   0.0000       1.380057        37.5533 
 419   0.0000       1.382869        37.6298 
 420   0.0000       1.393341        37.9147 
 421   0.0000       1.397600        38.0306 
 422   0.0000       1.400598        38.1122 
 423   0.0000       1.409176        38.3456 
 424   0.0000       1.416936        38.5568 
 425   0.0000       1.420862        38.6636 
 426   0.0000       1.423337        38.7310 
 427   0.0000       1.430408        38.9234 
 428   0.0000       1.438231        39.1363 
 429   0.0000       1.439914        39.1821 
 430   0.0000       1.447354        39.3845 
 431   0.0000       1.449353        39.4389 
 432   0.0000       1.453655        39.5560 
 433   0.0000       1.462714        39.8025 
 434   0.0000       1.471814        40.0501 
 435   0.0000       1.475139        40.1406 
 436   0.0000       1.482469        40.3400 
 437   0.0000       1.483491        40.3678 
 438   0.0000       1.488878        40.5144 
 439   0.0000       1.493459        40.6391 
 440   0.0000       1.493821        40.6489 
 441   0.0000       1.500680        40.8356 
 442   0.0000       1.503692        40.9175 
 443   0.0000       1.504430        40.9376 
 444   0.0000       1.508754        41.0553 
 445   0.0000       1.522548        41.4306 
 446   0.0000       1.526263        41.5317 
 447   0.0000       1.532134        41.6915 
 448   0.0000       1.536507        41.8105 
 449   0.0000       1.542796        41.9816 
 450   0.0000       1.549534        42.1650 
 451   0.0000       1.552396        42.2428 
 452   0.0000       1.555510        42.3276 
 453   0.0000       1.562357        42.5139 
 454   0.0000       1.564763        42.5794 
 455   0.0000       1.571874        42.7729 
 456   0.0000       1.574902        42.8552 
 457   0.0000       1.579349        42.9763 
 458   0.0000       1.586598        43.1735 
 459   0.0000       1.595641        43.4196 
 460   0.0000       1.598279        43.4914 
 461   0.0000       1.600210        43.5439 
 462   0.0000       1.606749        43.7219 
 463   0.0000       1.611159        43.8419 
 464   0.0000       1.614757        43.9398 
 465   0.0000       1.615819        43.9687 
 466   0.0000       1.625441        44.2305 
 467   0.0000       1.630536        44.3691 
 468   0.0000       1.639366        44.6094 
 469   0.0000       1.646838        44.8128 
 470   0.0000       1.656013        45.0624 
 471   0.0000       1.660047        45.1722 
 472   0.0000       1.663329        45.2615 
 473   0.0000       1.668739        45.4087 
 474   0.0000       1.670521        45.4572 
 475   0.0000       1.675823        45.6015 
 476   0.0000       1.679987        45.7148 
 477   0.0000       1.683674        45.8151 
 478   0.0000       1.694773        46.1171 
 479   0.0000       1.700251        46.2662 
 480   0.0000       1.703812        46.3631 
 481   0.0000       1.712689        46.6046 
 482   0.0000       1.715052        46.6690 
 483   0.0000       1.720188        46.8087 
 484   0.0000       1.724062        46.9141 
 485   0.0000       1.729706        47.0677 
 486   0.0000       1.733886        47.1814 
 487   0.0000       1.735435        47.2236 
 488   0.0000       1.740324        47.3566 
 489   0.0000       1.748442        47.5775 
 490   0.0000       1.753480        47.7146 
 491   0.0000       1.757209        47.8161 
 492   0.0000       1.766613        48.0720 
 493   0.0000       1.772631        48.2357 
 494   0.0000       1.774388        48.2835 
 495   0.0000       1.780200        48.4417 
 496   0.0000       1.787735        48.6467 
 497   0.0000       1.793590        48.8061 
 498   0.0000       1.801641        49.0251 
 499   0.0000       1.805226        49.1227 
 500   0.0000       1.808111        49.2012 
 501   0.0000       1.812454        49.3194 
 502   0.0000       1.821057        49.5535 
 503   0.0000       1.823833        49.6290 
 504   0.0000       1.828019        49.7429 
 505   0.0000       1.832739        49.8714 
 506   0.0000       1.844437        50.1897 
 507   0.0000       1.848180        50.2915 
 508   0.0000       1.852161        50.3999 
 509   0.0000       1.860203        50.6187 
 510   0.0000       1.864014        50.7224 
 511   0.0000       1.873205        50.9725 
 512   0.0000       1.877306        51.0841 
 513   0.0000       1.880186        51.1625 
 514   0.0000       1.887828        51.3704 
 515   0.0000       1.894936        51.5638 
 516   0.0000       1.897589        51.6360 
 517   0.0000       1.899881        51.6984 
 518   0.0000       1.903923        51.8084 
 519   0.0000       1.911545        52.0158 
 520   0.0000       1.914595        52.0988 
 521   0.0000       1.919255        52.2256 
 522   0.0000       1.928947        52.4893 
 523   0.0000       1.933520        52.6138 
 524   0.0000       1.938223        52.7417 
 525   0.0000       1.947163        52.9850 
 526   0.0000       1.951024        53.0901 
 527   0.0000       1.953293        53.1518 
 528   0.0000       1.964436        53.4550 
 529   0.0000       1.969678        53.5977 
 530   0.0000       1.973249        53.6948 
 531   0.0000       1.975901        53.7670 
 532   0.0000       1.978033        53.8250 
 533   0.0000       1.982716        53.9524 
 534   0.0000       1.990626        54.1677 
 535   0.0000       1.997731        54.3610 
 536   0.0000       2.002810        54.4992 
 537   0.0000       2.008178        54.6453 
 538   0.0000       2.017017        54.8858 
 539   0.0000       2.020354        54.9766 
 540   0.0000       2.030606        55.2556 
 541   0.0000       2.032570        55.3090 
 542   0.0000       2.040460        55.5238 
 543   0.0000       2.046250        55.6813 
 544   0.0000       2.051125        55.8139 
 545   0.0000       2.060581        56.0713 
 546   0.0000       2.069398        56.3112 
 547   0.0000       2.077237        56.5245 
 548   0.0000       2.088770        56.8383 
 549   0.0000       2.094166        56.9851 
 550   0.0000       2.096104        57.0379 
 551   0.0000       2.102556        57.2135 
 552   0.0000       2.113309        57.5061 
 553   0.0000       2.119112        57.6640 
 554   0.0000       2.127621        57.8955 
 555   0.0000       2.136778        58.1447 
 556   0.0000       2.138557        58.1931 
 557   0.0000       2.143542        58.3288 
 558   0.0000       2.154899        58.6378 
 559   0.0000       2.160770        58.7976 
 560   0.0000       2.172001        59.1032 
 561   0.0000       2.179932        59.3190 
 562   0.0000       2.185762        59.4776 
 563   0.0000       2.191110        59.6231 
 564   0.0000       2.197850        59.8065 
 565   0.0000       2.202748        59.9398 
 566   0.0000       2.215021        60.2738 
 567   0.0000       2.221535        60.4510 
 568   0.0000       2.228528        60.6413 
 569   0.0000       2.237621        60.8888 
 570   0.0000       2.238190        60.9043 
 571   0.0000       2.248084        61.1735 
 572   0.0000       2.253470        61.3200 
 573   0.0000       2.264721        61.6262 
 574   0.0000       2.276575        61.9488 
 575   0.0000       2.282203        62.1019 
 576   0.0000       2.286712        62.2246 
 577   0.0000       2.288958        62.2857 
 578   0.0000       2.296328        62.4863 
 579   0.0000       2.298521        62.5459 
 580   0.0000       2.304514        62.7090 
 581   0.0000       2.316569        63.0370 
 582   0.0000       2.322657        63.2027 
 583   0.0000       2.333918        63.5091 
 584   0.0000       2.342103        63.7319 
 585   0.0000       2.345832        63.8333 
 586   0.0000       2.357581        64.1530 
 587   0.0000       2.368301        64.4448 
 588   0.0000       2.372454        64.5578 
 589   0.0000       2.376321        64.6630 
 590   0.0000       2.384015        64.8724 
 591   0.0000       2.393787        65.1383 
 592   0.0000       2.400814        65.3295 
 593   0.0000       2.405167        65.4479 
 594   0.0000       2.413283        65.6688 
 595   0.0000       2.422449        65.9182 
 596   0.0000       2.429515        66.1105 
 597   0.0000       2.443466        66.4901 
 598   0.0000       2.445982        66.5586 
 599   0.0000       2.452755        66.7428 
 600   0.0000       2.462201        66.9999 
 601   0.0000       2.466385        67.1137 
 602   0.0000       2.480523        67.4985 
 603   0.0000       2.482286        67.5464 
 604   0.0000       2.493303        67.8462 
 605   0.0000       2.513126        68.3856 
 606   0.0000       2.518868        68.5419 
 607   0.0000       2.525289        68.7166 
 608   0.0000       2.538028        69.0632 
 609   0.0000       2.549142        69.3657 
 610   0.0000       2.558540        69.6214 
 611   0.0000       2.578101        70.1537 
 612   0.0000       2.582966        70.2861 
 613   0.0000       2.600155        70.7538 
 614   0.0000       2.613055        71.1048 
 615   0.0000       2.619560        71.2818 
 616   0.0000       2.637599        71.7727 
 617   0.0000       2.641584        71.8812 
 618   0.0000       2.650886        72.1343 
 619   0.0000       2.654548        72.2339 
 620   0.0000       2.669815        72.6494 
 621   0.0000       2.677586        72.8608 
 622   0.0000       2.686068        73.0916 
 623   0.0000       2.700253        73.4776 
 624   0.0000       2.704339        73.5888 
 625   0.0000       2.712656        73.8151 
 626   0.0000       2.725671        74.1693 
 627   0.0000       2.733893        74.3930 
 628   0.0000       2.735729        74.4430 
 629   0.0000       2.749332        74.8131 
 630   0.0000       2.759194        75.0815 
 631   0.0000       2.768163        75.3255 
 632   0.0000       2.772654        75.4477 
 633   0.0000       2.782938        75.7276 
 634   0.0000       2.796770        76.1040 
 635   0.0000       2.801396        76.2299 
 636   0.0000       2.820763        76.7569 
 637   0.0000       2.840571        77.2959 
 638   0.0000       2.842657        77.3526 
 639   0.0000       2.856349        77.7252 
 640   0.0000       2.864404        77.9444 
 641   0.0000       2.881605        78.4125 
 642   0.0000       2.888117        78.5896 
 643   0.0000       2.893859        78.7459 
 644   0.0000       2.916407        79.3595 
 645   0.0000       2.933953        79.8369 
 646   0.0000       2.950378        80.2839 
 647   0.0000       2.958934        80.5167 
 648   0.0000       2.967992        80.7632 
 649   0.0000       2.987930        81.3057 
 650   0.0000       3.000399        81.6450 
 651   0.0000       3.035436        82.5984 
 652   0.0000       3.042108        82.7800 
 653   0.0000       3.060747        83.2872 
 654   0.0000       3.062507        83.3351 
 655   0.0000       3.078834        83.7793 
 656   0.0000       3.095873        84.2430 
 657   0.0000       3.115089        84.7659 
 658   0.0000       3.136827        85.3574 
 659   0.0000       3.148626        85.6785 
 660   0.0000       3.155707        85.8711 
 661   0.0000       3.169856        86.2562 
 662   0.0000       3.185580        86.6840 
 663   0.0000       3.188292        86.7578 
 664   0.0000       3.194072        86.9151 
 665   0.0000       3.204107        87.1882 
 666   0.0000       3.220164        87.6251 
 667   0.0000       3.232884        87.9712 
 668   0.0000       3.245382        88.3113 
 669   0.0000       3.250367        88.4470 
 670   0.0000       3.254439        88.5578 
 671   0.0000       3.263767        88.8116 
 672   0.0000       3.282412        89.3190 
 673   0.0000       3.287734        89.4638 
 674   0.0000       3.294968        89.6606 
 675   0.0000       3.308693        90.0341 
 676   0.0000       3.317145        90.2641 
 677   0.0000       3.326074        90.5071 
 678   0.0000       3.330498        90.6275 
 679   0.0000       3.346729        91.0691 
 680   0.0000       3.356051        91.3228 
 681   0.0000       3.359769        91.4240 
 682   0.0000       3.374885        91.8353 
 683   0.0000       3.380291        91.9824 
 684   0.0000       3.390876        92.2704 
 685   0.0000       3.398216        92.4702 
 686   0.0000       3.413382        92.8828 
 687   0.0000       3.418719        93.0281 
 688   0.0000       3.430751        93.3555 
 689   0.0000       3.442370        93.6716 
 690   0.0000       3.445024        93.7439 
 691   0.0000       3.458743        94.1172 
 692   0.0000       3.467698        94.3609 
 693   0.0000       3.477635        94.6313 
 694   0.0000       3.480673        94.7139 
 695   0.0000       3.496471        95.1438 
 696   0.0000       3.499524        95.2269 
 697   0.0000       3.505353        95.3855 
 698   0.0000       3.512695        95.5853 
 699   0.0000       3.519476        95.7698 
 700   0.0000       3.525573        95.9357 
 701   0.0000       3.529135        96.0326 
 702   0.0000       3.538535        96.2884 
 703   0.0000       3.543024        96.4106 
 704   0.0000       3.553557        96.6972 
 705   0.0000       3.575175        97.2855 
 706   0.0000       3.581535        97.4585 
 707   0.0000       3.587477        97.6202 
 708   0.0000       3.593192        97.7757 
 709   0.0000       3.602908        98.0401 
 710   0.0000       3.607498        98.1650 
 711   0.0000       3.616258        98.4034 
 712   0.0000       3.624941        98.6397 
 713   0.0000       3.628948        98.7487 
 714   0.0000       3.637203        98.9733 
 715   0.0000       3.653420        99.4146 
 716   0.0000       3.660597        99.6099 
 717   0.0000       3.669312        99.8471 
 718   0.0000       3.675533       100.0163 
 719   0.0000       3.682455       100.2047 
 720   0.0000       3.691378       100.4475 
 721   0.0000       3.702915       100.7615 
 722   0.0000       3.707576       100.8883 
 723   0.0000       3.712768       101.0296 
 724   0.0000       3.723095       101.3106 
 725   0.0000       3.727461       101.4294 
 726   0.0000       3.734206       101.6129 
 727   0.0000       3.751171       102.0745 
 728   0.0000       3.764275       102.4311 
 729   0.0000       3.772630       102.6585 
 730   0.0000       3.773376       102.6788 
 731   0.0000       3.778620       102.8215 
 732   0.0000       3.787926       103.0747 
 733   0.0000       3.797486       103.3349 
 734   0.0000       3.804109       103.5151 
 735   0.0000       3.806791       103.5881 
 736   0.0000       3.817997       103.8930 
 737   0.0000       3.831589       104.2628 
 738   0.0000       3.836004       104.3830 
 739   0.0000       3.840014       104.4921 
 740   0.0000       3.850647       104.7814 
 741   0.0000       3.855709       104.9192 
 742   0.0000       3.862286       105.0981 
 743   0.0000       3.866404       105.2102 
 744   0.0000       3.871314       105.3438 
 745   0.0000       3.880515       105.5942 
 746   0.0000       3.884689       105.7078 
 747   0.0000       3.892501       105.9203 
 748   0.0000       3.903392       106.2167 
 749   0.0000       3.912343       106.4603 
 750   0.0000       3.920296       106.6767 
 751   0.0000       3.921483       106.7090 
 752   0.0000       3.935991       107.1037 
 753   0.0000       3.937752       107.1517 
 754   0.0000       3.948093       107.4331 
 755   0.0000       3.954218       107.5997 
 756   0.0000       3.955210       107.6267 
 757   0.0000       3.965156       107.8974 
 758   0.0000       3.972726       108.1034 
 759   0.0000       3.976083       108.1947 
 760   0.0000       3.981052       108.3299 
 761   0.0000       3.984977       108.4367 
 762   0.0000       3.996326       108.7456 
 763   0.0000       4.005992       109.0086 
 764   0.0000       4.016115       109.2840 
 765   0.0000       4.021512       109.4309 
 766   0.0000       4.029277       109.6422 
 767   0.0000       4.034133       109.7743 
 768   0.0000       4.040088       109.9364 
 769   0.0000       4.047543       110.1392 
 770   0.0000       4.053841       110.3106 
 771   0.0000       4.062271       110.5400 
 772   0.0000       4.072625       110.8217 
 773   0.0000       4.086309       111.1941 
 774   0.0000       4.089678       111.2858 
 775   0.0000       4.093492       111.3896 
 776   0.0000       4.099915       111.5644 
 777   0.0000       4.107484       111.7703 
 778   0.0000       4.119355       112.0934 
 779   0.0000       4.126190       112.2793 
 780   0.0000       4.133930       112.4899 
 781   0.0000       4.146776       112.8395 
 782   0.0000       4.156025       113.0912 
 783   0.0000       4.157595       113.1339 
 784   0.0000       4.164448       113.3204 
 785   0.0000       4.169149       113.4483 
 786   0.0000       4.177939       113.6875 
 787   0.0000       4.186666       113.9250 
 788   0.0000       4.198859       114.2568 
 789   0.0000       4.204235       114.4030 
 790   0.0000       4.207606       114.4948 
 791   0.0000       4.218979       114.8042 
 792   0.0000       4.223534       114.9282 
 793   0.0000       4.239794       115.3707 
 794   0.0000       4.259137       115.8970 
 795   0.0000       4.261133       115.9513 
 796   0.0000       4.267491       116.1243 
 797   0.0000       4.274954       116.3274 
 798   0.0000       4.293890       116.8427 
 799   0.0000       4.298189       116.9597 
 800   0.0000       4.306914       117.1971 
 801   0.0000       4.318521       117.5129 
 802   0.0000       4.321942       117.6060 
 803   0.0000       4.326419       117.7279 
 804   0.0000       4.331957       117.8785 
 805   0.0000       4.335034       117.9623 
 806   0.0000       4.345784       118.2548 
 807   0.0000       4.361650       118.6865 
 808   0.0000       4.372629       118.9853 
 809   0.0000       4.378190       119.1366 
 810   0.0000       4.387052       119.3778 
 811   0.0000       4.388307       119.4119 
 812   0.0000       4.399061       119.7045 
 813   0.0000       4.419147       120.2511 
 814   0.0000       4.423507       120.3698 
 815   0.0000       4.442240       120.8795 
 816   0.0000       4.446030       120.9826 
 817   0.0000       4.449968       121.0898 
 818   0.0000       4.459314       121.3441 
 819   0.0000       4.471913       121.6869 
 820   0.0000       4.478347       121.8620 
 821   0.0000       4.487707       122.1167 
 822   0.0000       4.494000       122.2880 
 823   0.0000       4.502157       122.5099 
 824   0.0000       4.511547       122.7654 
 825   0.0000       4.525606       123.1480 
 826   0.0000       4.538141       123.4891 
 827   0.0000       4.543470       123.6341 
 828   0.0000       4.554733       123.9406 
 829   0.0000       4.566608       124.2637 
 830   0.0000       4.572895       124.4348 
 831   0.0000       4.587729       124.8384 
 832   0.0000       4.614550       125.5683 
 833   0.0000       4.626727       125.8996 
 834   0.0000       4.629711       125.9808 
 835   0.0000       4.637063       126.1809 
 836   0.0000       4.651991       126.5871 
 837   0.0000       4.653764       126.6353 
 838   0.0000       4.673325       127.1676 
 839   0.0000       4.683784       127.4522 
 840   0.0000       4.696473       127.7975 
 841   0.0000       4.701128       127.9242 
 842   0.0000       4.706698       128.0758 
 843   0.0000       4.720180       128.4426 
 844   0.0000       4.742374       129.0466 
 845   0.0000       4.750076       129.2561 
 846   0.0000       4.763079       129.6100 
 847   0.0000       4.777673       130.0071 
 848   0.0000       4.787852       130.2841 
 849   0.0000       4.792512       130.4109 
 850   0.0000       4.803355       130.7059 
 851   0.0000       4.814171       131.0003 
 852   0.0000       4.817804       131.0991 
 853   0.0000       4.855766       132.1321 
 854   0.0000       4.861538       132.2892 
 855   0.0000       4.872660       132.5918 
 856   0.0000       4.879435       132.7762 
 857   0.0000       4.900690       133.3545 
 858   0.0000       4.904284       133.4523 
 859   0.0000       4.917195       133.8037 
 860   0.0000       4.928965       134.1239 
 861   0.0000       4.942997       134.5058 
 862   0.0000       4.945509       134.5742 
 863   0.0000       4.956877       134.8835 
 864   0.0000       4.962167       135.0274 
 865   0.0000       4.969688       135.2321 
 866   0.0000       4.981331       135.5489 
 867   0.0000       4.989800       135.7794 
 868   0.0000       5.001467       136.0968 
 869   0.0000       5.007803       136.2692 
 870   0.0000       5.016284       136.5000 
 871   0.0000       5.027497       136.8051 
 872   0.0000       5.045173       137.2861 
 873   0.0000       5.056156       137.5850 
 874   0.0000       5.080096       138.2364 
 875   0.0000       5.083585       138.3314 
 876   0.0000       5.092490       138.5737 
 877   0.0000       5.106998       138.9685 
 878   0.0000       5.120291       139.3302 
 879   0.0000       5.133427       139.6876 
 880   0.0000       5.142447       139.9331 
 881   0.0000       5.162905       140.4898 
 882   0.0000       5.178696       140.9195 
 883   0.0000       5.196845       141.4133 
 884   0.0000       5.200362       141.5090 
 885   0.0000       5.227008       142.2341 
 886   0.0000       5.232071       142.3719 
 887   0.0000       5.245093       142.7262 
 888   0.0000       5.252372       142.9243 
 889   0.0000       5.260350       143.1414 
 890   0.0000       5.272215       143.4643 
 891   0.0000       5.275709       143.5594 
 892   0.0000       5.301992       144.2745 
 893   0.0000       5.312747       144.5672 
 894   0.0000       5.333968       145.1446 
 895   0.0000       5.338810       145.2764 
 896   0.0000       5.348494       145.5399 
 897   0.0000       5.356121       145.7475 
 898   0.0000       5.373827       146.2293 
 899   0.0000       5.389296       146.6502 
 900   0.0000       5.395805       146.8273 
 901   0.0000       5.407108       147.1349 
 902   0.0000       5.417550       147.4190 
 903   0.0000       5.435405       147.9049 
 904   0.0000       5.442824       148.1068 
 905   0.0000       5.462727       148.6484 
 906   0.0000       5.467391       148.7753 
 907   0.0000       5.476249       149.0163 
 908   0.0000       5.485409       149.2656 
 909   0.0000       5.501435       149.7017 
 910   0.0000       5.505836       149.8214 
 911   0.0000       5.523961       150.3146 
 912   0.0000       5.538741       150.7168 
 913   0.0000       5.546850       150.9375 
 914   0.0000       5.561897       151.3469 
 915   0.0000       5.586480       152.0159 
 916   0.0000       5.591259       152.1459 
 917   0.0000       5.612985       152.7371 
 918   0.0000       5.616242       152.8257 
 919   0.0000       5.632661       153.2725 
 920   0.0000       5.642162       153.5310 
 921   0.0000       5.647422       153.6742 
 922   0.0000       5.659332       153.9983 
 923   0.0000       5.665095       154.1551 
 924   0.0000       5.674027       154.3981 
 925   0.0000       5.691132       154.8636 
 926   0.0000       5.694804       154.9635 
 927   0.0000       5.709743       155.3700 
 928   0.0000       5.729921       155.9191 
 929   0.0000       5.732251       155.9825 
 930   0.0000       5.747489       156.3971 
 931   0.0000       5.751415       156.5039 
 932   0.0000       5.781105       157.3119 
 933   0.0000       5.783628       157.3805 
 934   0.0000       5.789741       157.5469 
 935   0.0000       5.806593       158.0054 
 936   0.0000       5.820844       158.3932 
 937   0.0000       5.826528       158.5479 
 938   0.0000       5.846771       159.0987 
 939   0.0000       5.861265       159.4931 
 940   0.0000       5.885459       160.1515 
 941   0.0000       5.906261       160.7175 
 942   0.0000       5.912300       160.8819 
 943   0.0000       5.921105       161.1215 
 944   0.0000       5.943040       161.7184 
 945   0.0000       5.957194       162.1035 
 946   0.0000       6.003579       163.3657 
 947   0.0000       6.075123       165.3125 
 948   0.0000       6.099616       165.9790 
 949   0.0000       6.132511       166.8741 
 950   0.0000       6.143768       167.1804 
 951   0.0000       6.152299       167.4126 
 952   0.0000       6.163990       167.7307 
 953   0.0000       6.189684       168.4299 
 954   0.0000       6.204153       168.8236 
 955   0.0000       6.221895       169.3064 
 956   0.0000       6.242834       169.8762 
 957   0.0000       6.244702       169.9270 
 958   0.0000       6.252659       170.1435 
 959   0.0000       6.267117       170.5369 
 960   0.0000       6.314790       171.8342 
 961   0.0000       6.331952       172.3012 
 962   0.0000       6.356778       172.9767 
 963   0.0000       6.385705       173.7639 
 964   0.0000       6.405301       174.2971 
 965   0.0000       6.410876       174.4488 
 966   0.0000       6.428153       174.9189 
 967   0.0000       6.452046       175.5691 
 968   0.0000       6.478657       176.2932 
 969   0.0000       6.526531       177.5959 
 970   0.0000       6.646707       180.8661 
 971   0.0000       6.697847       182.2577 
 972   0.0000       6.844423       186.2462 
 973   0.0000       6.858926       186.6409 
 974   0.0000       6.893667       187.5862 
 975   0.0000       6.908363       187.9861 
 976   0.0000       6.916459       188.2064 
 977   0.0000       6.941742       188.8944 
 978   0.0000       6.949903       189.1165 
 979   0.0000       7.004609       190.6051 
 980   0.0000       7.018885       190.9936 
 981   0.0000       7.055073       191.9783 
 982   0.0000       7.102204       193.2608 
 983   0.0000       7.110483       193.4861 
 984   0.0000       7.154793       194.6918 
 985   0.0000       7.200444       195.9340 
 986   0.0000       7.339169       199.7090 
 987   0.0000       7.358916       200.2463 
 988   0.0000       7.521287       204.6646 
 989   0.0000       7.572067       206.0464 
 990   0.0000       7.606585       206.9857 
 991   0.0000       7.690428       209.2672 
 992   0.0000       7.759048       211.1344 
 993   0.0000       7.809186       212.4987 
 994   0.0000       7.817450       212.7236 
 995   0.0000       7.969910       216.8723 
 996   0.0000       8.057022       219.2427 
 997   0.0000       8.163128       222.1300 
 998   0.0000       8.424344       229.2380 
 999   0.0000       9.442885       256.9540 
 1000   0.0000       9.445405       257.0225 
 1001   0.0000       9.484111       258.0758 
 1002   0.0000       9.499259       258.4880 
 1003   0.0000       9.516950       258.9694 
 1004   0.0000       9.551409       259.9071 
 1005   0.0000       9.822468       267.2829 
 1006   0.0000      10.111594       275.1504 
 1007   0.0000      10.140106       275.9263 
 1008   0.0000      10.157373       276.3962 
 1009   0.0000      10.217225       278.0248 
 1010   0.0000      10.237912       278.5878 
 1011   0.0000      10.253911       279.0231 
 1012   0.0000      10.430650       283.8324 
 1013   0.0000      10.453751       284.4610 
 1014   0.0000      10.613398       288.8053 
 1015   0.0000      16.550029       450.3492 
 1016   0.0000      17.742370       482.7944 
 1017   0.0000      18.293804       497.7997 
 1018   0.0000      18.713861       509.2301 
 1019   0.0000      18.931439       515.1506 
 1020   0.0000      18.964892       516.0610 
 1021   0.0000      19.189242       522.1658 
 1022   0.0000      19.605280       533.4868 
 1023   0.0000      20.607149       560.7490 
 1024   0.0000      21.790352       592.9456 

                 SPIN DOWN ORBITALS
  NO   OCC          E(Eh)            E(eV) 
   0   1.0000    -261.539644     -7116.8555 
   1   1.0000    -104.774325     -2851.0543 
   2   1.0000    -104.772435     -2851.0029 
   3   1.0000    -104.767119     -2850.8583 
   4   1.0000     -32.048991      -872.0974 
   5   1.0000     -27.527218      -749.0537 
   6   1.0000     -27.526948      -749.0463 
   7   1.0000     -27.526252      -749.0274 
   8   1.0000     -20.527827      -558.5906 
   9   1.0000     -11.413367      -310.5735 
  10   1.0000     -11.335759      -308.4617 
  11   1.0000     -11.295520      -307.3667 
  12   1.0000     -11.286493      -307.1211 
  13   1.0000     -11.280395      -306.9552 
  14   1.0000     -11.263683      -306.5004 
  15   1.0000     -11.237081      -305.7765 
  16   1.0000     -11.229644      -305.5741 
  17   1.0000     -10.500802      -285.7413 
  18   1.0000     -10.498833      -285.6878 
  19   1.0000     -10.493566      -285.5445 
  20   1.0000      -7.966562      -216.7812 
  21   1.0000      -7.966300      -216.7740 
  22   1.0000      -7.966195      -216.7712 
  23   1.0000      -7.964744      -216.7317 
  24   1.0000      -7.964283      -216.7192 
  25   1.0000      -7.964177      -216.7163 
  26   1.0000      -7.959608      -216.5919 
  27   1.0000      -7.958764      -216.5690 
  28   1.0000      -7.958698      -216.5672 
  29   1.0000      -4.124487      -112.2330 
  30   1.0000      -2.646550       -72.0163 
  31   1.0000      -2.646296       -72.0094 
  32   1.0000      -2.645622       -71.9910 
  33   1.0000      -1.330294       -36.1991 
  34   1.0000      -1.191110       -32.4117 
  35   1.0000      -1.091661       -29.7056 
  36   1.0000      -1.036782       -28.2123 
  37   1.0000      -1.031352       -28.0645 
  38   1.0000      -1.023653       -27.8550 
  39   1.0000      -1.017506       -27.6877 
  40   1.0000      -1.015592       -27.6357 
  41   1.0000      -0.962623       -26.1943 
  42   1.0000      -0.931634       -25.3510 
  43   1.0000      -0.806950       -21.9582 
  44   1.0000      -0.765805       -20.8386 
  45   1.0000      -0.709903       -19.3174 
  46   1.0000      -0.690343       -18.7852 
  47   1.0000      -0.677724       -18.4418 
  48   1.0000      -0.636260       -17.3135 
  49   1.0000      -0.635176       -17.2840 
  50   1.0000      -0.623078       -16.9548 
  51   1.0000      -0.606845       -16.5131 
  52   1.0000      -0.597047       -16.2465 
  53   1.0000      -0.595090       -16.1932 
  54   1.0000      -0.582385       -15.8475 
  55   1.0000      -0.577144       -15.7049 
  56   1.0000      -0.555007       -15.1025 
  57   1.0000      -0.545646       -14.8478 
  58   1.0000      -0.537383       -14.6229 
  59   1.0000      -0.521169       -14.1817 
  60   1.0000      -0.516940       -14.0667 
  61   1.0000      -0.498449       -13.5635 
  62   1.0000      -0.467517       -12.7218 
  63   1.0000      -0.463993       -12.6259 
  64   1.0000      -0.449432       -12.2297 
  65   1.0000      -0.443171       -12.0593 
  66   1.0000      -0.435046       -11.8382 
  67   1.0000      -0.429906       -11.6983 
  68   1.0000      -0.429549       -11.6886 
  69   1.0000      -0.409098       -11.1321 
  70   1.0000      -0.400869       -10.9082 
  71   1.0000      -0.398874       -10.8539 
  72   0.0000       0.003683         0.1002 
  73   0.0000       0.008129         0.2212 
  74   0.0000       0.019838         0.5398 
  75   0.0000       0.020896         0.5686 
  76   0.0000       0.030283         0.8240 
  77   0.0000       0.037340         1.0161 
  78   0.0000       0.039712         1.0806 
  79   0.0000       0.043512         1.1840 
  80   0.0000       0.044366         1.2073 
  81   0.0000       0.047387         1.2895 
  82   0.0000       0.056536         1.5384 
  83   0.0000       0.059277         1.6130 
  84   0.0000       0.061056         1.6614 
  85   0.0000       0.064910         1.7663 
  86   0.0000       0.066919         1.8210 
  87   0.0000       0.070284         1.9125 
  88   0.0000       0.073432         1.9982 
  89   0.0000       0.078221         2.1285 
  90   0.0000       0.088785         2.4160 
  91   0.0000       0.089758         2.4424 
  92   0.0000       0.092997         2.5306 
  93   0.0000       0.093778         2.5518 
  94   0.0000       0.098901         2.6912 
  95   0.0000       0.101151         2.7525 
  96   0.0000       0.108840         2.9617 
  97   0.0000       0.115029         3.1301 
  98   0.0000       0.118083         3.2132 
  99   0.0000       0.122110         3.3228 
 100   0.0000       0.124802         3.3960 
 101   0.0000       0.126380         3.4390 
 102   0.0000       0.128403         3.4940 
 103   0.0000       0.130050         3.5388 
 104   0.0000       0.131642         3.5822 
 105   0.0000       0.133227         3.6253 
 106   0.0000       0.134578         3.6621 
 107   0.0000       0.136970         3.7271 
 108   0.0000       0.138894         3.7795 
 109   0.0000       0.139614         3.7991 
 110   0.0000       0.142326         3.8729 
 111   0.0000       0.148226         4.0334 
 112   0.0000       0.149716         4.0740 
 113   0.0000       0.151956         4.1349 
 114   0.0000       0.153833         4.1860 
 115   0.0000       0.154695         4.2095 
 116   0.0000       0.157890         4.2964 
 117   0.0000       0.162496         4.4217 
 118   0.0000       0.164033         4.4636 
 119   0.0000       0.167807         4.5663 
 120   0.0000       0.171707         4.6724 
 121   0.0000       0.175449         4.7742 
 122   0.0000       0.175716         4.7815 
 123   0.0000       0.182056         4.9540 
 124   0.0000       0.185572         5.0497 
 125   0.0000       0.188934         5.1411 
 126   0.0000       0.189842         5.1659 
 127   0.0000       0.194465         5.2917 
 128   0.0000       0.199725         5.4348 
 129   0.0000       0.202655         5.5145 
 130   0.0000       0.206560         5.6208 
 131   0.0000       0.209334         5.6963 
 132   0.0000       0.212710         5.7881 
 133   0.0000       0.213861         5.8195 
 134   0.0000       0.216061         5.8793 
 135   0.0000       0.224107         6.0983 
 136   0.0000       0.229164         6.2359 
 137   0.0000       0.233054         6.3417 
 138   0.0000       0.236289         6.4298 
 139   0.0000       0.237989         6.4760 
 140   0.0000       0.241111         6.5610 
 141   0.0000       0.242459         6.5976 
 142   0.0000       0.245089         6.6692 
 143   0.0000       0.247940         6.7468 
 144   0.0000       0.252089         6.8597 
 145   0.0000       0.254792         6.9332 
 146   0.0000       0.261298         7.1103 
 147   0.0000       0.264780         7.2050 
 148   0.0000       0.266933         7.2636 
 149   0.0000       0.268461         7.3052 
 150   0.0000       0.272831         7.4241 
 151   0.0000       0.276821         7.5327 
 152   0.0000       0.280172         7.6239 
 153   0.0000       0.283254         7.7077 
 154   0.0000       0.293066         7.9747 
 155   0.0000       0.298171         8.1136 
 156   0.0000       0.302613         8.2345 
 157   0.0000       0.305999         8.3267 
 158   0.0000       0.309872         8.4321 
 159   0.0000       0.312903         8.5145 
 160   0.0000       0.314703         8.5635 
 161   0.0000       0.317536         8.6406 
 162   0.0000       0.321109         8.7378 
 163   0.0000       0.324361         8.8263 
 164   0.0000       0.328576         8.9410 
 165   0.0000       0.334425         9.1002 
 166   0.0000       0.336777         9.1642 
 167   0.0000       0.340561         9.2671 
 168   0.0000       0.345859         9.4113 
 169   0.0000       0.351539         9.5659 
 170   0.0000       0.352566         9.5938 
 171   0.0000       0.358185         9.7467 
 172   0.0000       0.360436         9.8080 
 173   0.0000       0.365134         9.9358 
 174   0.0000       0.366379         9.9697 
 175   0.0000       0.369356        10.0507 
 176   0.0000       0.370433        10.0800 
 177   0.0000       0.376316        10.2401 
 178   0.0000       0.378817        10.3081 
 179   0.0000       0.381507        10.3813 
 180   0.0000       0.388999        10.5852 
 181   0.0000       0.390172        10.6171 
 182   0.0000       0.391077        10.6418 
 183   0.0000       0.393477        10.7070 
 184   0.0000       0.401307        10.9201 
 185   0.0000       0.401814        10.9339 
 186   0.0000       0.407096        11.0776 
 187   0.0000       0.408169        11.1069 
 188   0.0000       0.412707        11.2303 
 189   0.0000       0.415339        11.3020 
 190   0.0000       0.417062        11.3488 
 191   0.0000       0.423249        11.5172 
 192   0.0000       0.426878        11.6159 
 193   0.0000       0.428500        11.6601 
 194   0.0000       0.430403        11.7118 
 195   0.0000       0.434435        11.8216 
 196   0.0000       0.442138        12.0312 
 197   0.0000       0.447241        12.1700 
 198   0.0000       0.451261        12.2794 
 199   0.0000       0.452602        12.3159 
 200   0.0000       0.457449        12.4478 
 201   0.0000       0.459408        12.5011 
 202   0.0000       0.463461        12.6114 
 203   0.0000       0.467524        12.7220 
 204   0.0000       0.469953        12.7881 
 205   0.0000       0.473963        12.8972 
 206   0.0000       0.474157        12.9025 
 207   0.0000       0.479836        13.0570 
 208   0.0000       0.481874        13.1125 
 209   0.0000       0.485237        13.2040 
 210   0.0000       0.486919        13.2497 
 211   0.0000       0.489180        13.3113 
 212   0.0000       0.494420        13.4538 
 213   0.0000       0.496762        13.5176 
 214   0.0000       0.498308        13.5596 
 215   0.0000       0.503641        13.7048 
 216   0.0000       0.505863        13.7652 
 217   0.0000       0.507816        13.8184 
 218   0.0000       0.510528        13.8922 
 219   0.0000       0.511960        13.9311 
 220   0.0000       0.520157        14.1542 
 221   0.0000       0.523928        14.2568 
 222   0.0000       0.527221        14.3464 
 223   0.0000       0.529153        14.3990 
 224   0.0000       0.531485        14.4624 
 225   0.0000       0.538115        14.6428 
 226   0.0000       0.539897        14.6913 
 227   0.0000       0.542881        14.7725 
 228   0.0000       0.549021        14.9396 
 229   0.0000       0.552719        15.0402 
 230   0.0000       0.558230        15.1902 
 231   0.0000       0.560349        15.2479 
 232   0.0000       0.563377        15.3303 
 233   0.0000       0.564098        15.3499 
 234   0.0000       0.568492        15.4695 
 235   0.0000       0.569980        15.5099 
 236   0.0000       0.576690        15.6925 
 237   0.0000       0.579618        15.7722 
 238   0.0000       0.585923        15.9438 
 239   0.0000       0.591276        16.0894 
 240   0.0000       0.594405        16.1746 
 241   0.0000       0.596736        16.2380 
 242   0.0000       0.597611        16.2618 
 243   0.0000       0.605790        16.4844 
 244   0.0000       0.606944        16.5158 
 245   0.0000       0.610484        16.6121 
 246   0.0000       0.614947        16.7336 
 247   0.0000       0.616996        16.7893 
 248   0.0000       0.619855        16.8671 
 249   0.0000       0.625420        17.0185 
 250   0.0000       0.627945        17.0873 
 251   0.0000       0.630725        17.1629 
 252   0.0000       0.635192        17.2845 
 253   0.0000       0.637843        17.3566 
 254   0.0000       0.644486        17.5373 
 255   0.0000       0.647294        17.6138 
 256   0.0000       0.651720        17.7342 
 257   0.0000       0.653245        17.7757 
 258   0.0000       0.659822        17.9547 
 259   0.0000       0.662222        18.0200 
 260   0.0000       0.667412        18.1612 
 261   0.0000       0.672864        18.3096 
 262   0.0000       0.677952        18.4480 
 263   0.0000       0.682727        18.5780 
 264   0.0000       0.689224        18.7547 
 265   0.0000       0.691331        18.8121 
 266   0.0000       0.696720        18.9587 
 267   0.0000       0.701521        19.0893 
 268   0.0000       0.708943        19.2913 
 269   0.0000       0.710479        19.3331 
 270   0.0000       0.712000        19.3745 
 271   0.0000       0.715297        19.4642 
 272   0.0000       0.721214        19.6252 
 273   0.0000       0.722135        19.6503 
 274   0.0000       0.729089        19.8395 
 275   0.0000       0.733849        19.9691 
 276   0.0000       0.737686        20.0734 
 277   0.0000       0.741652        20.1814 
 278   0.0000       0.748951        20.3800 
 279   0.0000       0.757495        20.6125 
 280   0.0000       0.762697        20.7540 
 281   0.0000       0.764370        20.7996 
 282   0.0000       0.771313        20.9885 
 283   0.0000       0.775001        21.0888 
 284   0.0000       0.779357        21.2074 
[...]
  | sigma^2 in % of trace(Dij) retained ...   9.29e+00
  | sigma^2 in % of trace(Dip) retained ...   2.31e+01
  | sigma^2 in % of trace(Dpq) retained ...   1.42e-01
  | Av. % of trace(Di) retained         ...  99.998501297248
  | Av. % of trace(Dp) retained         ...  99.999998090448
  | sigma^2 in % of trace(Di) retained  ...   7.96e-07
  | sigma^2 in % of trace(Dp) retained  ...   1.70e-12
 Distributions of % trace(Dij) recovered:
  |       >= 99.9  ...   105 ( 20.6 % of all IJ-pairs)
  |   [80.0, 90.0) ...    32 (  6.3 % of all IJ-pairs)
  |   [90.0, 99.0) ...   278 ( 54.5 % of all IJ-pairs)
  |   [99.0, 99.9) ...    95 ( 18.6 % of all IJ-pairs)
 Distributions of % trace(Dip) recovered:
  |   [70.0, 80.0) ...     2 (  1.7 % of all IP-pairs)
  |   [80.0, 90.0) ...     9 (  7.4 % of all IP-pairs)
  |   [90.0, 99.0) ...    65 ( 53.7 % of all IP-pairs)
  |   [99.0, 99.9) ...    45 ( 37.2 % of all IP-pairs)
 Distributions of % trace(Dpq) recovered:
  |       >= 99.9  ...     5 ( 33.3 % of all PQ-pairs)
  |   [99.0, 99.9) ...    10 ( 66.7 % of all PQ-pairs)
 Distributions of % trace(Di) recovered :
  |       >= 99.9  ...    43 (100.0 % of all I-pairs )
 Distributions of % trace(Dp) recovered :
  |       >= 99.9  ...     5 (100.0 % of all P-pairs )

                       ===========================
                       1123 OF 1745 PAIRS ARE KEPT
                       ===========================

 Initial PAO correlation energy (all pairs)    ...  -2.6884515423 Eh
 Energy constituents in PAO basis (Eh):
  | Vijab(+0) ...  -2.2566241305
  | Viab (-1) ...  -0.1763353012
  | Vab  (-2) ...  -0.0573558254
  | Va   (-1) ...  -0.0000435776
  | Vija (+1) ...  -0.0740160649
  | Vij  (+2) ...  -0.0155501736
  | Via  (+0) ...  -0.1083608943
  | Vi   (+1) ...  -0.0001655749
 Initial PNO correlation energy                ...  -2.6533896281 Eh
 Energy constituents in PNO basis (Eh):
  | Vijab(+0) ...  -2.2376622832 (err=  0.0189618473)
  | Viab (-1) ...  -0.1619269251 (err=  0.0144083761)
  | Vab  (-2) ...  -0.0568560290 (err=  0.0004997964)
  | Va   (-1) ...  -0.0000242955 (err=  0.0000192821)
  | Vija (+1) ...  -0.0730140104 (err=  0.0010020545)
  | Vij  (+2) ...  -0.0154962374 (err=  0.0000539362)
  | Via  (+0) ...  -0.1082447098 (err=  0.0001161845)
  | Vi   (+1) ...  -0.0001651377 (err=  0.0000004372)
 Sum of total truncation errors ...   0.0350619143 Eh
  | Pair screening ...   0.0118440327 Eh
  | PNO truncation ...   0.0232178816 Eh

 UMP2 correlation energy (PAO) ...  -2.6834527791
  | alpha-alpha ...  -0.3851631943 (NP_aa=  946)
  | alpha-beta  ...  -1.9923394558 (NP_ab= 1720)
  | beta -beta  ...  -0.3059501290 (NP_bb=  741)
 UMP2 correlation energy (PNO) ...  -2.6480348402
  | alpha-alpha ...  -0.3728974842 (err=  0.0122657101, NP_aa=  598)
  | alpha-beta  ...  -1.9733292343 (err=  0.0190102215, NP_ab= 1098)
  | beta -beta  ...  -0.3018081218 (err=  0.0041420072, NP_bb=  467)
 Sum of total UMP2 truncation errors ...   0.0354179388 Eh
  | Pair screening ...   0.0118554774 Eh
  | PNO truncation ...   0.0235624614 Eh
 Timing for NEV-PNO construction (sec.)
  | Intermediate construction  ..           59.533
  | Amplitude construction     ..           72.038
  | Total time                 ..          131.572
 Making pair pair interaction lists ...      ok
 Total size for 2-ext PNO integrals ...     11.1 MB
Checking the number of SOMO/SOMO doubles PNOs ... 
 #Truncate: (72, 72)[182] -> [85] .. 
 #Truncate: (73, 73)[184] -> [85] .. 
 #Truncate: (74, 74)[185] -> [85] .. 
 #Truncate: (75, 75)[182] -> [85] .. 
 #Truncate: (76, 76)[181] -> [85] .. 

--------------------------------
LOCAL RI TRANSFORMATION (VABPAO)
--------------------------------

Number of PAOs:    1030
Basis functions:   1025 (343 shells)
Aux. functions:    2424 (644 shells)

Processing maps (0.0 sec)
Average map sizes:
   Aux shells -> PAOs           1030.0
   PAOs       -> AO shells       343.0

Calculating integrals (211.4 sec, 37370.165 MB)
Finished
-----------------------------
LOCAL RI TRANSFORMATION (IJV)
-----------------------------

Orbital window:      29 to 76
Basis functions:   1025 (343 shells)
Aux. functions:    2424 (644 shells)

Processing maps (0.0 sec)
Average map sizes:
   Aux shells -> MOs(i)           46.3
   Aux shells -> MOs(j)           48.0
   MOs        -> AO shells       342.0

Calculating integrals (22.8 sec, 41.196 MB)
Sorting integrals (0.3 sec, 41.169 MB)
Total time for the integral transformation: 23.2 sec


-------------------------------------
Pair Pair Term precalculation with     
RI-(ij|mn) and (im|jn) transformation  
ON THE FLY                             
-------------------------------------

   IBatch   1 (of   2)              ... done ( 1176.482 sec)
   IBatch   2 (of   2)              ... done ( 1138.863 sec)
Total EXT                           ...        2315.345 sec

---------------------
RI-PNO TRANSFORMATION
---------------------

Total Number of PNOs                   ... 34764
Total Number of IJ-PNOs                ... 30555
Total Number of IP-PNOs                ...  3260
Total Number of PQ-PNOs                ...   949
Total Number of IJ-pairs               ...   977
Total Number of PI-pairs               ...   121
Total Number of PQ-pairs               ...    25
Average number of PNOs per pair        ...    30
Maximal number of PNOs per pair        ...    85
>> Statistics for ij-pairs..
   #pairs with  1 -  5 PNOs   :    0
   #pairs with  6 - 10 PNOs   :    0
   #pairs with 11 - 15 PNOs   :   56
   #pairs with 16 - 20 PNOs   :  224
   #pairs with 21 - 25 PNOs   :  184
   #pairs with 26 - 30 PNOs   :  152
   #pairs with 31 - 35 PNOs   :   76
   #pairs with 36 - 40 PNOs   :   56
   #pairs with 41 - 45 PNOs   :   50
   #pairs with 46 - 50 PNOs   :   10
   #pairs with 51 - 55 PNOs   :   39
   #pairs with 56 - 60 PNOs   :   56
   #pairs with 61 - 65 PNOs   :   68
   #pairs with 66 - 70 PNOs   :    6
>> Statistics for ip-pairs..
   #pairs with  1 -  5 PNOs   :    0
   #pairs with  6 - 10 PNOs   :    5
   #pairs with 11 - 15 PNOs   :   16
   #pairs with 16 - 20 PNOs   :    7
   #pairs with 21 - 25 PNOs   :   19
   #pairs with 26 - 30 PNOs   :   17
   #pairs with 31 - 35 PNOs   :   42
   #pairs with 36 - 40 PNOs   :   15
   #pairs with 41 - 45 PNOs   :    0
   #pairs with 46 - 50 PNOs   :    0
>> Statistics for pq-pairs..
   #pairs with  1 -  5 PNOs   :    0
   #pairs with  6 - 10 PNOs   :    0
   #pairs with 11 - 15 PNOs   :    0
   #pairs with 16 - 20 PNOs   :    0
   #pairs with 21 - 25 PNOs   :    8
   #pairs with 26 - 30 PNOs   :   12
   #pairs with 31 - 35 PNOs   :    0
   #pairs with 36 - 40 PNOs   :    0
   #pairs with 41 - 45 PNOs   :    0
   #pairs with 46 - 50 PNOs   :    0
   #pairs with 81 - 85 PNOs   :    5

Generation of (ij|ab)[P] integrals            ... on
Generation of (ia|bc)[P],(ja|bc)[P] integrals ... on
Storage of 3 and 4 external integrals         ... on
Generation of ALL (ka|bc)[P] integrals        ... on
Keep RI integrals in memory                   ... off

Ibatch:  1 (of  1)
Starting 2-4 index PNO integral generation ... done

Timings:
Total PNO integral transformation time     ...       2153.436 sec
Size of the 3-external file                ...       283 MB
Size of the 4-external file                ...      1898 MB
Size of the IKJL file                      ...        19 MB
Size of the all 3-external file            ...      6793 MB
Size of the 1-external file                ...        22 MB

Size of the PAO/PNO coefficient matrices   ...     227.9 MB

Making pair/pair overlap matrices          ... done (  337.166 sec)
Size of the pair overlap file              ...    2486.0 MB
Total # unrestricted pairs ...       2163
  # of alpha-alpha pairs   ...        598
  # of alpha-beta pairs    ...       1098
  # of beta-beta pairs     ...        467
Constructing the guess amplitudes          ... done (    0.604 sec)

-------------------------
FINAL STARTUP INFORMATION
-------------------------

E(0)                                       ...  -3028.430062866
E(SL-UMP2 in NEV-PNO space)                ...     -2.684330823
Initial E(tot)                             ...  -3031.114393688
<T|T>                                      ...      0.531514242
Number of unrestricted pairs included      ... 2163
Total number of pairs                      ... 4095
----------------------------------------------------------
                     OPEN-SHELL COUPLED CLUSTER ITERATIONS
----------------------------------------------------------

Number of PNO amplitudes to be optimized        ...          2106301
Number of canonical amplitudes for strong pairs ...       1953626590
Untruncated number of canonical amplitudes      ...       3698645738

Iter       E(tot)           E(Corr)          Delta-E          Residual     Time
  0  -3031.121689080     -2.655330232      0.029000591      0.022174619 1808.78
                           *** Turning on DIIS ***
  1  -3031.237949758     -2.771590910     -0.116260679      0.010154396 2057.05
  2  -3031.301895007     -2.835536159     -0.063945248      0.009831533 2105.51
  3  -3031.322733443     -2.856374595     -0.020838436      0.004535785 2083.06
  4  -3031.329716148     -2.863357300     -0.006982706      0.003103326 2097.20
  5  -3031.333229253     -2.866870405     -0.003513105      0.002887648 2086.11
  6  -3031.334562477     -2.868203629     -0.001333224      0.001137797 2095.88
  7  -3031.335387952     -2.869029104     -0.000825475      0.000811771 2056.65
  8  -3031.335551339     -2.869192491     -0.000163387      0.000259374 2074.93
  9  -3031.335594693     -2.869235845     -0.000043354      0.000233590 2077.91
 10  -3031.335589640     -2.869230792      0.000005053      0.000116522 2115.66
 11  -3031.335601404     -2.869242556     -0.000011763      0.000093577 2083.64
 12  -3031.335607986     -2.869249138     -0.000006583      0.000037111 2089.55
 13  -3031.335611277     -2.869252429     -0.000003290      0.000021186 2095.29
 14  -3031.335611713     -2.869252865     -0.000000436      0.000009290 2069.55
               --- The CCSD iterations have converged ---

E(0)                                       ...  -3028.430062866
E(CORR)(strong-pairs)                      ...     -2.869252865
E(CORR)(weak-pairs)                        ...     -0.036295982
E(CORR)(corrected)                         ...     -2.905548847
E(TOT)                                     ...  -3031.335611713
Singles norm <S|S>**1/2                    ...      0.185102348 ( 0.060993211, 0.124109137)  
T1 diagnostic                              ...      0.019403998                              
<S**2>(linearized)                         ...      8.7507079 (ideal value:      8.7500000)

----------------------
LARGEST PNO AMPLITUDES
----------------------
  51b-> 76b  -1b-> -1b       0.054766
  45b-> 73b  -1b-> -1b       0.054266
  30b-> 76b  -1b-> -1b       0.053137
  29b-> 76b  -1b-> -1b       0.052643
  49b-> 72b  -1b-> -1b       0.048635
  44a-> 77a  44b-> 77b       0.047046
  52b-> 73b  -1b-> -1b       0.046500
  63a-> 77a  63b-> 77b       0.043646
  67a-> 77a  67b-> 77b       0.043563
  47a-> 79a  47b-> 79b       0.043158
  66a-> 77a  66b-> 77b       0.043018
  56a-> 77a  56b-> 77b       0.042987
  59a-> 77a  59b-> 77b       0.042812
  62a-> 77a  62b-> 77b       0.042458
  55a-> 78a  55b-> 78b       0.042042
  61a-> 77a  61b-> 77b       0.042010

Total # unrestricted pairs ...       1244
  # of alpha-alpha pairs   ...        348
  # of alpha-beta pairs    ...        622
  # of beta-beta pairs     ...        274

-------------------------------------------
DLPNO BASED TRIPLES CORRECTION
-------------------------------------------

Singles multiplier          ...  1.000000
Fragment selection                          .... not used
TCutTNO                     ... 1.000e-09
TCutMP2Pairs                ... 1.000e-05
TCutDOStrong                ... 2.000e-02
TCutMKNStrong               ... 1.000e-02
TCutDOWeak                  ... 4.000e-02
TCutMKNWeak                 ... 1.000e-01
NTCutTNO                    ... 1

Number of Triples that are to be computed         ...     35380

 . . . . . . . . .
10% done  
20% done  
30% done  
40% done  
50% done  
60% done  
70% done  
80% done  
90% done  
          Batch   1   done (  17245.633 sec)

Triples-Correction TCutTNO=   1.000e-09 (NWeakPairs = 0  1  2  3)  -0.115417021452   -0.001900995456    0.000000000000    0.000000000000
Triples-Correction  -0.117318016909

Triples timings:
Total time                      ... 18003.936 sec

Triples List generation         ...     0.000 sec
TNO generation                  ...   758.021 sec
Pair density generation         ...     0.104 sec
Look up tables                  ...     0.119 sec
Generating 3-index integrals    ... 10907.730 sec
Make 4-ind.int. from 3-ind.int  ...     3.813 sec
Projecting amplitudes (D + S)   ...  6082.594 sec
Sorting integrals for spin cases...    52.715 sec
Calculate W0/W1                 ...   160.238 sec
Energy contr. (sum over a,b,c)  ...    38.404 sec

Everything after 3-index        ...  6474.559 sec

Energy contribution AAA         ...    24.269 sec
Energy contribution AAB         ...   111.475 sec
Energy contribution ABB         ...   101.963 sec
Energy contribution BBB         ...    13.689 sec
prep                ...     3.298 sec
makeTTNO            ...  6022.219 sec
copyij              ...     0.132 sec
copyil              ...     4.224 sec
transposeij         ...     0.078 sec
newMatInDoubleProj  ...    56.941 sec
BlasInDoubleProj    ...  3256.851 sec
ProjSingles         ...    49.986 sec
ProjDoubles         ...  6032.608 sec
overall Doubles for projection      ... 3286486
used Doubles for projection         ... 3286486


Number of Triples   (0, 1, 2, 3 weak pairs; overall):  17086   12251       0       0  ( 29337)
Number of Atoms     (0, 1, 2, 3 weak pairs; overall):   20.2    14.7     0.0     0.0  (    29)
Number of PAOs      (0, 1, 2, 3 weak pairs; overall):  781.9   598.6     0.0     0.0  (  1025)
Number of AuxFcns   (0, 1, 2, 3 weak pairs; overall):  972.1   577.7     0.0     0.0  (  2424)
Number of TNOs (0, 1, 2, 3 weak pairs         ):   78.5    55.9     0.0     0.0
Aver. Number of NTNO, Atoms, PAOs, AuxFcns / Triples:  29337    69.1    17.9   705.4   807.4

Triples Correction (T)                     ...     -0.117318017
    alpha-alpha-alpha ... -0.003858033 (  3.3%)
    alpha-alpha-beta  ... -0.055065724 ( 46.9%)
    alpha-beta -beta  ... -0.054313356 ( 46.3%)
    beta -beta -beta  ... -0.004080903 (  3.5%)
Final correlation energy                   ...     -3.022866864
E(CCSD)                                    ...  -3031.335611713
E(CCSD(T))                                 ...  -3031.452929730

----------------------------
STATISTICS FOR PAIR-ENERGIES
----------------------------
Minimum, maximum and average ratios of UMP and CCSD pair-energies ... 0.32, 1.41, 1.02


------------------------------------------------------------------------------- 
                                     TIMINGS                                   
------------------------------------------------------------------------------- 


Total execution time                   ...    57451.697 sec

Localization of occupied MO's          ...       11.869 sec (  0.0%)
Fock Matrix Formation                  ...     1457.691 sec (  2.5%)
Differential overlap integrals         ...        1.468 sec (  0.0%)
Organizing maps                        ...        1.704 sec (  0.0%)
RI 3-index integral generations        ...      297.009 sec (  0.5%)
RI-PNO integral transformation         ...     4993.801 sec (  8.7%)
Initial Guess                          ...     1983.889 sec (  3.5%)
DIIS Solver                            ...       17.590 sec (  0.0%)
State Vector Update                    ...        0.796 sec (  0.0%)
Sigma-vector construction              ...    30996.793 sec ( 54.0%)
  <0|H|D>                              ...        0.031 sec (  0.0% of sigma)
  <D|H|D>(0-ext)                       ...     5716.017 sec ( 18.4% of sigma)
  <D|H|D>(2-ext Fock)                  ...        1.357 sec (  0.0% of sigma)
  <D|H|D>(2-ext)                       ...     4381.133 sec ( 14.1% of sigma)
  <D|H|D>(4-ext)                       ...      148.694 sec (  0.5% of sigma)
  <D|H|D>(4-ext-corr)                  ...      926.985 sec (  3.0% of sigma)
  CCSD doubles correction              ...      549.771 sec (  1.8% of sigma)
  <S|H|S>                              ...      847.104 sec (  2.7% of sigma)
  <S|H|D>(1-ext)                       ...      274.288 sec (  0.9% of sigma)
  <D|H|S>(1-ext)                       ...        0.756 sec (  0.0% of sigma)
  <S|H|D>(3-ext)                       ...       22.756 sec (  0.1% of sigma)
  CCSD singles correction              ...        0.004 sec (  0.0% of sigma)
  Fock-dressing                        ...     9467.538 sec ( 30.5% of sigma)
  Singles amplitudes                   ...      118.918 sec (  0.4% of sigma)
  (ik|jl)-dressing                     ...     6837.955 sec ( 22.1% of sigma)
  (ij|ab),(ia|jb)-dressing             ...     1621.388 sec (  5.2% of sigma)
  Pair energies                        ...        0.142 sec (  0.0% of sigma)
Total Time for computing (T)           ...    18050.115 sec ( 31.4% of ALL)


-------------------------   --------------------
FINAL SINGLE POINT ENERGY     -3031.452929729616
-------------------------   --------------------


                            ***************************************
                            *     ORCA property calculations      *
                            ***************************************

                                    ---------------------
                                    Active property flags
                                    ---------------------
   (+) Dipole Moment


------------------------------------------------------------------------------
                       ORCA ELECTRIC PROPERTIES CALCULATION
------------------------------------------------------------------------------

Dipole Moment Calculation                       ... on
Quadrupole Moment Calculation                   ... off
Polarizability Calculation                      ... off
GBWName                                         ... simple-grid-165-240-b3lyp_d3bj-631gd-gas-singlepoint-DLPNO_CCSD_T1-NormalPNO-augtz-gas.gbw
Electron density file                           ... simple-grid-165-240-b3lyp_d3bj-631gd-gas-singlepoint-DLPNO_CCSD_T1-NormalPNO-augtz-gas.scfp.tmp
The origin for moment calculation is the CENTER OF MASS  = ( 0.294821,  0.030192  0.019731)

-------------
DIPOLE MOMENT
-------------
                                X             Y             Z
Electronic contribution:     39.00866       5.11610       2.50113
Nuclear contribution   :    -43.92839      -4.49867      -2.93989
                        -----------------------------------------
Total Dipole Moment    :     -4.91973       0.61742      -0.43876
                        -----------------------------------------
Magnitude (a.u.)       :      4.97770
Magnitude (Debye)      :     12.65230



--------------------
Rotational spectrum 
--------------------
 
Rotational constants in cm-1:     0.018927     0.012122     0.010909 
Rotational constants in MHz :   567.415520   363.399417   327.043060 

 Dipole components along the rotational axes: 
x,y,z [a.u.] :    -4.926516     0.561562    -0.437681 
x,y,z [Debye]:   -12.522210     1.427377    -1.112496 

 

Timings for individual modules:

Sum of individual times         ...    73687.767 sec (=1228.129 min)
GTO integral calculation        ...       12.587 sec (=   0.210 min)   0.0 %
SCF iterations                  ...    16204.788 sec (= 270.080 min)  22.0 %
MDCI module                     ...    57470.392 sec (= 957.840 min)  78.0 %
                             ****ORCA TERMINATED NORMALLY****
TOTAL RUN TIME: 0 days 20 hours 28 minutes 10 seconds 350 msec
