
                                 *****************
                                 * O   R   C   A *
                                 *****************

           --- An Ab Initio, DFT and Semiempirical electronic structure package ---

                  #######################################################
                  #                        -***-                        #
                  #          Department of theory and spectroscopy      #
                  #               Directorship: Frank Neese             #
                  #        Max Planck Institute fuer Kohlenforschung    #
                  #                Kaiser Wilhelm Platz 1               #
                  #                 D-45470 Muelheim/Ruhr               #
                  #                      Germany                        #
                  #                                                     #
                  #                  All rights reserved                #
                  #                        -***-                        #
                  #######################################################


                         Program Version 4.1.2  - RELEASE  -


 With contributions from (in alphabetic order):
   Daniel Aravena         : Magnetic Properties
   Michael Atanasov       : Ab Initio Ligand Field Theory
   Alexander A. Auer      : GIAO ZORA
   Ute Becker             : Parallelization
   Giovanni Bistoni       : ED, Open-shell LED
   Martin Brehm           : Molecular dynamics
   Dmytro Bykov           : SCF Hessian
   Vijay G. Chilkuri      : MRCI spin determinant printing
   Dipayan Datta          : RHF DLPNO-CCSD density
   Achintya Kumar Dutta   : EOM-CC, STEOM-CC
   Dmitry Ganyushin       : Spin-Orbit,Spin-Spin,Magnetic field MRCI
   Miquel Garcia          : C-PCM Hessian
   Yang Guo               : DLPNO-NEVPT2, CIM, IAO-localization
   Andreas Hansen         : Spin unrestricted coupled pair/coupled cluster methods
   Benjamin Helmich-Paris : CASSCF linear response (MC-RPA)
   Lee Huntington         : MR-EOM, pCC
   Robert Izsak           : Overlap fitted RIJCOSX, COSX-SCS-MP3, EOM
   Christian Kollmar      : KDIIS, OOCD, Brueckner-CCSD(T), CCSD density
   Simone Kossmann        : Meta GGA functionals, TD-DFT gradient, OOMP2, MP2 Hessian
   Martin Krupicka        : AUTO-CI
   Lucas Lang             : DCDCAS
   Dagmar Lenk            : GEPOL surface, SMD
   Dimitrios Liakos       : Extrapolation schemes; parallel MDCI
   Dimitrios Manganas     : ROCIS; embedding schemes
   Dimitrios Pantazis     : SARC Basis sets
   Taras Petrenko         : DFT Hessian,TD-DFT gradient, ASA, ECA, R-Raman, ABS, FL, XAS/XES, NRVS
   Peter Pinski           : DLPNO-MP2, DLPNO-MP2 Gradient
   Christoph Reimann      : Effective Core Potentials
   Marius Retegan         : Local ZFS, SOC
   Christoph Riplinger    : Optimizer, TS searches, QM/MM, DLPNO-CCSD(T), (RO)-DLPNO pert. Triples
   Tobias Risthaus        : Range-separated hybrids, TD-DFT gradient, RPA, STAB
   Michael Roemelt        : Restricted open shell CIS
   Masaaki Saitow         : Open-shell DLPNO
   Barbara Sandhoefer     : DKH picture change effects
   Avijit Sen             : IP-ROCIS
   Kantharuban Sivalingam : CASSCF convergence, NEVPT2, FIC-MRCI
   Bernardo de Souza      : ESD, SOC TD-DFT
   Georgi Stoychev        : AutoAux, RI-MP2 NMR
   Willem Van den Heuvel  : Paramagnetic NMR
   Boris Wezisla          : Elementary symmetry handling
   Frank Wennmohs         : Technical directorship


 We gratefully acknowledge several colleagues who have allowed us to
 interface, adapt or use parts of their codes:
   Stefan Grimme, W. Hujo, H. Kruse,             : VdW corrections, initial TS optimization,
                  C. Bannwarth                     DFT functionals, gCP, sTDA/sTD-DF
   Ed Valeev                                     : LibInt (2-el integral package), F12 methods
   Garnet Chan, S. Sharma, J. Yang, R. Olivares  : DMRG
   Ulf Ekstrom                                   : XCFun DFT Library
   Mihaly Kallay                                 : mrcc  (arbitrary order and MRCC methods)
   Andreas Klamt, Michael Diedenhofen            : otool_cosmo (COSMO solvation model)
   Jiri Pittner, Ondrej Demel                    : Mk-CCSD
   Frank Weinhold                                : gennbo (NPA and NBO analysis)
   Christopher J. Cramer and Donald G. Truhlar   : smd solvation model
   Lars Goerigk                                  : TD-DFT with DH, B97 family of functionals
   V. Asgeirsson, H. Jonsson                     : NEB implementation
   FAccTs GmbH                                   : IRC, NEB, NEB-TS, Multilevel


 Your calculation uses the libint2 library for the computation of 2-el integrals
 For citations please refer to: http://libint.valeyev.net

 This ORCA versions uses:
   CBLAS   interface :  Fast vector & matrix operations
   LAPACKE interface :  Fast linear algebra routines
   SCALAPACK package :  Parallel linear algebra routines


----- Orbital basis set information -----
Your calculation utilizes the basis: aug-cc-pVTZ 
    H, B-Ne : Obtained from the ccRepo (grant-hill.group.shef.ac.uk/ccrepo) Feb. 2017
              R. A. Kendall, T. H. Dunning, Jr., R. J. Harrison, J. Chem. Phys. 96, 6796 (1992)
         He : Obtained from the ccRepo (grant-hill.group.shef.ac.uk/ccrepo) Feb. 2017
              D. E. Woon, T. H. Dunning, Jr., J. Chem. Phys. 100, 2975 (1994)
  Li-Be, Na : Obtained from the ccRepo (grant-hill.group.shef.ac.uk/ccrepo) Feb. 2017
              B. P. Prascher, D. E. Woon, K. A. Peterson, T. H. Dunning, Jr., A. K. Wilson, Theor. Chem. Acc. 128, 69 (2011)
         Mg : Obtained from the Peterson Research Group Website (tyr0.chem.wsu.edu/~kipeters) Feb. 2017
              B. P. Prascher, D. E. Woon, K. A. Peterson, T. H. Dunning, Jr., A. K. Wilson, Theor. Chem. Acc. 128, 69 (2011)
      Al-Ar : Obtained from the ccRepo (grant-hill.group.shef.ac.uk/ccrepo) Feb. 2017
              D. E. Woon, T. H. Dunning, Jr., J. Chem. Phys. 98, 1358 (1993)
      Sc-Zn : Obtained from the ccRepo (grant-hill.group.shef.ac.uk/ccrepo) Feb. 2017
              N. B. Balabanov, K. A. Peterson, J. Chem. Phys. 123, 064107 (2005)
              N. B. Balabanov, K. A. Peterson, J. Chem. Phys. 125, 074110 (2006)
      Ga-Kr : Obtained from the ccRepo (grant-hill.group.shef.ac.uk/ccrepo) Feb. 2017
              A. K. Wilson, D. E. Woon, K. A. Peterson, T. H. Dunning, Jr., J. Chem. Phys. 110, 7667 (1999)
     Ag, Au : Obtained from the Peterson Research Group Website (tyr0.chem.wsu.edu/~kipeters) Feb. 2017
              K. A. Peterson, C. Puzzarini, Theor. Chem. Acc. 114, 283 (2005)

----- AuxJ basis set information -----
Your calculation utilizes the AutoAux generation procedure.
  G. L. Stoychev, A. A. Auer, F. Neese, J. Chem. Theory Comput. 13, 554 (2017)

----- AuxC basis set information -----
Your calculation utilizes the auxiliary basis: aug-cc-pVTZ/C 
  H-He, B-F, Al-Ar, Ga-Kr : Obtained from the EMSL Basis Set Exchange (bse.pnl.gov) Feb. 2017
                            F. Weigend, A. Kohn, C. Hattig, J. Chem. Phys. 116, 3175 (2002)
                   Be, Mg : Obtained from the TURBOMOLE 7.0 basis set library
                            C. Haettig, Phys. Chem. Chem. Phys. 7, 59 (2005)
                       Ne : Obtained from the EMSL Basis Set Exchange (bse.pnl.gov) Feb. 2017
                            C. Haettig, Phys. Chem. Chem. Phys. 7, 59 (2005)
                            F. Weigend, A. Kohn, C. Hattig, J. Chem. Phys. 116, 3175 (2002)
                    Sc-Zn : Obtained from the EMSL Basis Set Exchange (bse.pnl.gov) Feb. 2017
                            J. G. Hill, J. A. Platts, J. Chem. Phys. 128, 044104 (2008)

----- AuxJK basis set information -----
Your calculation utilizes the AutoAux generation procedure.
  G. L. Stoychev, A. A. Auer, F. Neese, J. Chem. Theory Comput. 13, 554 (2017)

================================================================================
                                        WARNINGS
                       Please study these warnings very carefully!
================================================================================


WARNING: your system is open-shell and RHF/RKS was chosen
  ===> : WILL SWITCH to UHF/UKS


WARNING: MDCI localization with Augmented Hessian Foster-Boys
  ===> : Switching off randomization!

WARNING: Post HF methods need fully converged wavefunctions
  ===> : Setting SCFConvForced true
         You can overwrite this default with %scf ConvForced false 


INFO   : the flag for use of LIBINT has been found!

================================================================================
                                       INPUT FILE
================================================================================
NAME = simple-grid-245-245-b3lyp_d3bj-631gd-gas-singlepoint-DLPNO_CCSD_T1-NormalPNO-augtz-gas.inp
|  1> ! aug-cc-pVTZ aug-cc-pVTZ/C DLPNO-CCSD(T1) TightSCF NormalPNO UNO MiniPrint AutoAux
|  2> %pal nproc 10 end
|  3> %maxcore 20000
|  4> %mdci
|  5>      density none
|  6> end
|  7> 
|  8> * xyz 0 6
|  9>  O     -0.30586500     -0.17498500     -0.68477700
| 10>  C     -1.14194600     -1.12206000     -0.58851700
| 11>  C     -3.18816100      0.01281400      0.13781800
| 12>  C     -2.37809900      1.04201200     -0.20799700
| 13>  C     -2.36844700      1.60052900     -1.60031100
| 14> Fe      1.46798800      0.08787600      0.05401900
| 15> Cl      2.10112800      1.98922600     -0.80974200
| 16>  C     -1.55761700      1.81307600      0.78333600
| 17> Cl      2.49267600     -1.71039000     -0.67592000
| 18> Cl      1.32906600      0.10515100      2.24776500
| 19>  H     -3.82598000     -0.40175200     -0.64119100
| 20>  H     -2.15346300      2.66424500      1.14185700
| 21>  H     -1.25823000      1.23005200      1.65499500
| 22>  H     -0.65986000      2.22819000      0.31694500
| 23>  H     -2.65868800      2.65852800     -1.56096500
| 24>  H     -1.35790800      1.56809600     -2.02272400
| 25>  H     -3.06551400      1.08658800     -2.26756200
| 26>  C     -3.52100300     -0.42426300      1.53831800
| 27>  H     -4.43706100      0.08117100      1.87337100
| 28>  H     -3.71867400     -1.49959400      1.59438000
| 29>  H     -2.73696400     -0.18303700      2.26008400
| 30>  C     -1.08184900     -2.04728400      0.58846900
| 31>  H     -1.97313900     -2.66797600      0.67920900
| 32>  H     -0.21995000     -2.70554700      0.40012400
| 33>  H     -0.88033600     -1.51218500      1.51670700
| 34>  C     -1.74641000     -1.64004600     -1.86196000
| 35>  H     -0.98936200     -2.31487000     -2.28850100
| 36>  H     -2.65883000     -2.21319700     -1.69172200
| 37>  H     -1.91442500     -0.84003100     -2.58196300
| 38> *
| 39> 
| 40> 
| 41>                          ****END OF INPUT****
================================================================================

                       ****************************
                       * Single Point Calculation *
                       ****************************

---------------------------------
CARTESIAN COORDINATES (ANGSTROEM)
---------------------------------
  O     -0.305865   -0.174985   -0.684777
  C     -1.141946   -1.122060   -0.588517
  C     -3.188161    0.012814    0.137818
  C     -2.378099    1.042012   -0.207997
  C     -2.368447    1.600529   -1.600311
  Fe     1.467988    0.087876    0.054019
  Cl     2.101128    1.989226   -0.809742
  C     -1.557617    1.813076    0.783336
  Cl     2.492676   -1.710390   -0.675920
  Cl     1.329066    0.105151    2.247765
  H     -3.825980   -0.401752   -0.641191
  H     -2.153463    2.664245    1.141857
  H     -1.258230    1.230052    1.654995
  H     -0.659860    2.228190    0.316945
  H     -2.658688    2.658528   -1.560965
  H     -1.357908    1.568096   -2.022724
  H     -3.065514    1.086588   -2.267562
  C     -3.521003   -0.424263    1.538318
  H     -4.437061    0.081171    1.873371
  H     -3.718674   -1.499594    1.594380
  H     -2.736964   -0.183037    2.260084
  C     -1.081849   -2.047284    0.588469
  H     -1.973139   -2.667976    0.679209
  H     -0.219950   -2.705547    0.400124
  H     -0.880336   -1.512185    1.516707
  C     -1.746410   -1.640046   -1.861960
  H     -0.989362   -2.314870   -2.288501
  H     -2.658830   -2.213197   -1.691722
  H     -1.914425   -0.840031   -2.581963

----------------------------
CARTESIAN COORDINATES (A.U.)
----------------------------
  NO LB      ZA    FRAG     MASS         X           Y           Z
   0 O     8.0000    0    15.999   -0.578001   -0.330674   -1.294041
   1 C     6.0000    0    12.011   -2.157965   -2.120386   -1.112136
   2 C     6.0000    0    12.011   -6.024751    0.024215    0.260438
   3 C     6.0000    0    12.011   -4.493956    1.969117   -0.393057
   4 C     6.0000    0    12.011   -4.475716    3.024561   -3.024150
   5 Fe   26.0000    0    55.850    2.774095    0.166062    0.102081
   6 Cl   17.0000    0    35.453    3.970556    3.759092   -1.530191
   7 C     6.0000    0    12.011   -2.943470    3.426217    1.480291
   8 Cl   17.0000    0    35.453    4.710475   -3.232169   -1.277304
   9 Cl   17.0000    0    35.453    2.511571    0.198707    4.247660
  10 H     1.0000    0     1.008   -7.230054   -0.759201   -1.211675
  11 H     1.0000    0     1.008   -4.069455    5.034693    2.157797
  12 H     1.0000    0     1.008   -2.377710    2.324461    3.127487
  13 H     1.0000    0     1.008   -1.246955    4.210669    0.598939
  14 H     1.0000    0     1.008   -5.024192    5.023890   -2.949796
  15 H     1.0000    0     1.008   -2.566074    2.963272   -3.822394
  16 H     1.0000    0     1.008   -5.792982    2.053354   -4.285071
  17 C     6.0000    0    12.011   -6.653731   -0.801741    2.907000
  18 H     1.0000    0     1.008   -8.384830    0.153391    3.540158
  19 H     1.0000    0     1.008   -7.027275   -2.833822    3.012942
  20 H     1.0000    0     1.008   -5.172112   -0.345890    4.270940
  21 C     6.0000    0    12.011   -2.044398   -3.868806    1.112045
  22 H     1.0000    0     1.008   -3.728692   -5.041744    1.283519
  23 H     1.0000    0     1.008   -0.415645   -5.112743    0.756125
  24 H     1.0000    0     1.008   -1.663594   -2.857616    2.866161
  25 C     6.0000    0    12.011   -3.300237   -3.099238   -3.518594
  26 H     1.0000    0     1.008   -1.869623   -4.374470   -4.324640
  27 H     1.0000    0     1.008   -5.024461   -4.182336   -3.196891
  28 H     1.0000    0     1.008   -3.617739   -1.587429   -4.879203



           ************************************************************
           *        Program running with 10 parallel MPI-processes    *
           *              working on a common directory               *
           ************************************************************


           ************************************************************
           *        Program running with 10 parallel MPI-processes    *
           *              working on a common directory               *
           ************************************************************

Diagonalization of the overlap matrix:
Smallest eigenvalue                        ... 6.796e-07
Time for diagonalization                   ...    0.325 sec
Threshold for overlap eigenvalues          ... 1.000e-08
Number of eigenvalues below threshold      ... 0
Time for construction of square roots      ...    0.269 sec
Total time needed                          ...    0.600 sec

-------------------
DFT GRID GENERATION
-------------------

General Integration Accuracy     IntAcc      ...  4.340
Radial Grid Type                 RadialGrid  ... Gauss-Chebyshev
Angular Grid (max. acc.)         AngularGrid ... Lebedev-110
Angular grid pruning method      GridPruning ... 3 (G Style)
Weight generation scheme         WeightScheme... Becke
Basis function cutoff            BFCut       ...    1.0000e-11
Integration weight cutoff        WCut        ...    1.0000e-14
Grids for H and He will be reduced by one unit

# of grid points (after initial pruning)     ...  36112 (   0.0 sec)
# of grid points (after weights+screening)   ...  32363 (   0.1 sec)
nearest neighbour list constructed           ...    0.0 sec
Grid point re-assignment to atoms done       ...    0.0 sec
Grid point division into batches done        ...    0.0 sec
Reduced shell lists constructed in    0.2 sec

Total number of grid points                  ...    32363
Total number of batches                      ...      519
Average number of points per batch           ...       62
Average number of grid points per atom       ...     1116
Average number of shells per batch           ...   290.66 (84.74%)
Average number of basis functions per batch  ...   862.70 (84.17%)
Average number of large shells per batch     ...   237.96 (81.87%)
Average number of large basis fcns per batch ...   706.30 (81.87%)
Maximum spatial batch extension              ...   2.87,  3.08,  4.27 au
Average spatial batch extension              ...   0.18,  0.19,  0.17 au

Time for grid setup =    0.345 sec

Loading Hartree-Fock densities                     ... done
Calculating cut-offs                               ... done
Setting up the integral package                    ... done
Initializing the effective Hamiltonian             ... done
Starting the Coulomb interaction                   ... done (   1.1 sec)
Reading the grid                                   ... done
Mapping shells                                     ... done
Starting the XC term evaluation                    ... done (   0.8 sec)
Transforming the Hamiltonian                       ... done (   0.2 sec)
Diagonalizing the Hamiltonian                      ... done (   0.3 sec)
Back transforming the eigenvectors                 ... done (   0.1 sec)
Now organizing SCF variables                       ... done
--------------
SCF ITERATIONS
--------------
ITER       Energy         Delta-E        Max-DP      RMS-DP      [F,P]     Damp
               ***  Starting incremental Fock matrix formation  ***
  0  -3027.5761180319   0.000000000000 0.19917669  0.00107636  0.2537593 0.7000
  1  -3027.8289767304  -0.252858698557 0.15230243  0.00085042  0.1556585 0.7000
                               ***Turning on DIIS***
  2  -3027.9983861237  -0.169409393231 0.10815580  0.00062952  0.1092332 0.7000
  3  -3029.6198493049  -1.621463181233 0.25049306  0.00158613  0.0816645 0.0000
  4  -3028.2976433895   1.322205915425 0.04740341  0.00023172  0.0204237 0.0000
  5  -3028.4194293061  -0.121785916650 0.03986959  0.00017668  0.0120291 0.0000
  6  -3028.4606211580  -0.041191851874 0.02146429  0.00007183  0.0054416 0.0000
  7  -3028.4763360105  -0.015714852498 0.00920499  0.00003328  0.0035864 0.0000
  8  -3028.4678199516   0.008516058923 0.00610018  0.00001900  0.0014955 0.0000
  9  -3028.4612920491   0.006527902528 0.00239655  0.00001087  0.0007806 0.0000
 10  -3028.4490773076   0.012214741461 0.00104200  0.00000337  0.0004284 0.0000
 11  -3028.4554002138  -0.006322906248 0.00030191  0.00000183  0.0000695 0.0000
 12  -3028.4532994350   0.002100778873 0.00036706  0.00000141  0.0000256 0.0000
 13  -3028.4532740655   0.000025369442 0.00073838  0.00000195  0.0000083 0.0000
 14  -3028.4532876496  -0.000013584073 0.00083005  0.00000239  0.0000048 0.0000
 15  -3028.4532428946   0.000044755013 0.00059747  0.00000201  0.0000029 0.0000
 16  -3028.4532478120  -0.000004917401 0.00086878  0.00000248  0.0000024 0.0000
 17  -3028.4532641532  -0.000016341260 0.00073964  0.00000220  0.0000016 0.0000
 18  -3028.4532474340   0.000016719212 0.00119403  0.00000355  0.0000012 0.0000
                            ***DIIS convergence achieved***

               *****************************************************
               *                     SUCCESS                       *
               *           SCF CONVERGED AFTER  19 CYCLES          *
               *****************************************************

Total Energy       :        -3028.45325528 Eh          -82408.40264 eV
  Last Energy change         ...   -7.8497e-06  Tolerance :   1.0000e-08
  Last MAX-Density change    ...    6.2957e-04  Tolerance :   1.0000e-07
             **** THE GBW FILE WAS UPDATED (simple-grid-245-245-b3lyp_d3bj-631gd-gas-singlepoint-DLPNO_CCSD_T1-NormalPNO-augtz-gas.gbw) ****
             **** DENSITY FILE WAS UPDATED (simple-grid-245-245-b3lyp_d3bj-631gd-gas-singlepoint-DLPNO_CCSD_T1-NormalPNO-augtz-gas.scfp.tmp) ****
             **** ENERGY FILE WAS UPDATED (simple-grid-245-245-b3lyp_d3bj-631gd-gas-singlepoint-DLPNO_CCSD_T1-NormalPNO-augtz-gas.en.tmp) ****
----------------------
UHF SPIN CONTAMINATION
----------------------

Expectation value of <S**2>     :     8.764806
Ideal value S*(S+1) for S=2.5   :     8.750000
Deviation                       :     0.014806

----------------
ORBITAL ENERGIES
----------------
                 SPIN UP ORBITALS
  NO   OCC          E(Eh)            E(eV) 
   0   1.0000    -261.571131     -7117.7123 
   1   1.0000    -104.789627     -2851.4707 
   2   1.0000    -104.787830     -2851.4218 
   3   1.0000    -104.786640     -2851.3894 
   4   1.0000     -32.238873      -877.2643 
   5   1.0000     -27.715264      -754.1707 
   6   1.0000     -27.714264      -754.1435 
   7   1.0000     -27.714119      -754.1395 
   8   1.0000     -20.601434      -560.5935 
   9   1.0000     -11.421509      -310.7951 
  10   1.0000     -11.284192      -307.0585 
  11   1.0000     -11.275083      -306.8106 
  12   1.0000     -11.269908      -306.6698 
  13   1.0000     -11.249974      -306.1274 
  14   1.0000     -11.246653      -306.0370 
  15   1.0000     -11.244168      -305.9694 
  16   1.0000     -11.237097      -305.7770 
  17   1.0000     -10.516308      -286.1633 
  18   1.0000     -10.514464      -286.1131 
  19   1.0000     -10.513235      -286.0797 
  20   1.0000      -7.983155      -217.2327 
  21   1.0000      -7.982382      -217.2117 
  22   1.0000      -7.982338      -217.2105 
  23   1.0000      -7.981349      -217.1836 
  24   1.0000      -7.980560      -217.1621 
  25   1.0000      -7.980477      -217.1598 
  26   1.0000      -7.980027      -217.1476 
  27   1.0000      -7.979358      -217.1294 
  28   1.0000      -7.979299      -217.1278 
  29   1.0000      -4.593920      -125.0069 
  30   1.0000      -3.207039       -87.2680 
  31   1.0000      -3.205427       -87.2241 
  32   1.0000      -3.205222       -87.2185 
  33   1.0000      -1.453742       -39.5583 
  34   1.0000      -1.137398       -30.9502 
  35   1.0000      -1.098884       -29.9021 
  36   1.0000      -1.062760       -28.9192 
  37   1.0000      -1.057328       -28.7713 
  38   1.0000      -1.055161       -28.7124 
  39   1.0000      -1.025750       -27.9121 
  40   1.0000      -1.010192       -27.4887 
  41   1.0000      -0.965965       -26.2852 
  42   1.0000      -0.939339       -25.5607 
  43   1.0000      -0.923102       -25.1189 
  44   1.0000      -0.922948       -25.1147 
  45   1.0000      -0.912382       -24.8272 
  46   1.0000      -0.912229       -24.8230 
  47   1.0000      -0.904899       -24.6235 
  48   1.0000      -0.807885       -21.9837 
  49   1.0000      -0.737355       -20.0645 
  50   1.0000      -0.706261       -19.2183 
  51   1.0000      -0.699364       -19.0307 
  52   1.0000      -0.690607       -18.7924 
  53   1.0000      -0.661335       -17.9958 
  54   1.0000      -0.628615       -17.1055 
  55   1.0000      -0.620634       -16.8883 
  56   1.0000      -0.602945       -16.4070 
  57   1.0000      -0.600738       -16.3469 
  58   1.0000      -0.584339       -15.9007 
  59   1.0000      -0.578933       -15.7536 
  60   1.0000      -0.562064       -15.2945 
  61   1.0000      -0.559971       -15.2376 
  62   1.0000      -0.552975       -15.0472 
  63   1.0000      -0.543185       -14.7808 
  64   1.0000      -0.534404       -14.5419 
  65   1.0000      -0.527321       -14.3491 
  66   1.0000      -0.501915       -13.6578 
  67   1.0000      -0.497369       -13.5341 
  68   1.0000      -0.475127       -12.9289 
  69   1.0000      -0.470809       -12.8114 
  70   1.0000      -0.443574       -12.0703 
  71   1.0000      -0.437548       -11.9063 
  72   1.0000      -0.436130       -11.8677 
  73   1.0000      -0.427631       -11.6364 
  74   1.0000      -0.425962       -11.5910 
  75   1.0000      -0.425716       -11.5843 
  76   1.0000      -0.362835        -9.8732 
  77   0.0000       0.012572         0.3421 
  78   0.0000       0.023520         0.6400 
  79   0.0000       0.023698         0.6449 
  80   0.0000       0.030385         0.8268 
  81   0.0000       0.039484         1.0744 
  82   0.0000       0.040926         1.1137 
  83   0.0000       0.042525         1.1572 
  84   0.0000       0.043390         1.1807 
  85   0.0000       0.043877         1.1939 
  86   0.0000       0.056197         1.5292 
  87   0.0000       0.056948         1.5496 
  88   0.0000       0.059921         1.6305 
  89   0.0000       0.064491         1.7549 
  90   0.0000       0.067443         1.8352 
  91   0.0000       0.071090         1.9345 
  92   0.0000       0.072614         1.9759 
  93   0.0000       0.075253         2.0477 
  94   0.0000       0.079719         2.1693 
  95   0.0000       0.091220         2.4822 
  96   0.0000       0.092385         2.5139 
  97   0.0000       0.092700         2.5225 
  98   0.0000       0.100516         2.7352 
  99   0.0000       0.102341         2.7848 
 100   0.0000       0.103673         2.8211 
 101   0.0000       0.107473         2.9245 
 102   0.0000       0.115708         3.1486 
 103   0.0000       0.121220         3.2986 
 104   0.0000       0.123075         3.3490 
 105   0.0000       0.124384         3.3847 
 106   0.0000       0.127553         3.4709 
 107   0.0000       0.129394         3.5210 
 108   0.0000       0.131156         3.5689 
 109   0.0000       0.133033         3.6200 
 110   0.0000       0.137676         3.7464 
 111   0.0000       0.139545         3.7972 
 112   0.0000       0.140729         3.8294 
 113   0.0000       0.146703         3.9920 
 114   0.0000       0.149237         4.0609 
 115   0.0000       0.152029         4.1369 
 116   0.0000       0.156114         4.2481 
 117   0.0000       0.158063         4.3011 
 118   0.0000       0.160497         4.3674 
 119   0.0000       0.167856         4.5676 
 120   0.0000       0.168501         4.5851 
 121   0.0000       0.171123         4.6565 
 122   0.0000       0.174026         4.7355 
 123   0.0000       0.176273         4.7966 
 124   0.0000       0.179651         4.8886 
 125   0.0000       0.185105         5.0370 
 126   0.0000       0.187637         5.1059 
 127   0.0000       0.188446         5.1279 
 128   0.0000       0.193615         5.2685 
 129   0.0000       0.198652         5.4056 
 130   0.0000       0.200354         5.4519 
 131   0.0000       0.204998         5.5783 
 132   0.0000       0.205784         5.5997 
 133   0.0000       0.207843         5.6557 
 134   0.0000       0.211366         5.7516 
 135   0.0000       0.213215         5.8019 
 136   0.0000       0.217907         5.9295 
 137   0.0000       0.224063         6.0971 
 138   0.0000       0.225211         6.1283 
 139   0.0000       0.229196         6.2367 
 140   0.0000       0.234319         6.3761 
 141   0.0000       0.236130         6.4254 
 142   0.0000       0.236949         6.4477 
 143   0.0000       0.243144         6.6163 
 144   0.0000       0.248383         6.7588 
 145   0.0000       0.249352         6.7852 
 146   0.0000       0.251240         6.8366 
 147   0.0000       0.254277         6.9192 
 148   0.0000       0.259590         7.0638 
 149   0.0000       0.261914         7.1271 
 150   0.0000       0.265795         7.2327 
 151   0.0000       0.271771         7.3953 
 152   0.0000       0.272790         7.4230 
 153   0.0000       0.276817         7.5326 
 154   0.0000       0.283051         7.7022 
 155   0.0000       0.288561         7.8521 
 156   0.0000       0.291627         7.9356 
 157   0.0000       0.297327         8.0907 
 158   0.0000       0.298771         8.1300 
 159   0.0000       0.301244         8.1973 
 160   0.0000       0.309836         8.4311 
 161   0.0000       0.310851         8.4587 
 162   0.0000       0.316463         8.6114 
 163   0.0000       0.318744         8.6735 
 164   0.0000       0.327633         8.9154 
 165   0.0000       0.329704         8.9717 
 166   0.0000       0.332361         9.0440 
 167   0.0000       0.339585         9.2406 
 168   0.0000       0.341580         9.2949 
 169   0.0000       0.345764         9.4087 
 170   0.0000       0.348354         9.4792 
 171   0.0000       0.354394         9.6436 
 172   0.0000       0.357825         9.7369 
 173   0.0000       0.359707         9.7881 
 174   0.0000       0.362741         9.8707 
 175   0.0000       0.363255         9.8847 
 176   0.0000       0.367884        10.0106 
 177   0.0000       0.368826        10.0363 
 178   0.0000       0.372011        10.1229 
 179   0.0000       0.374891        10.2013 
 180   0.0000       0.378555        10.3010 
 181   0.0000       0.383778        10.4431 
 182   0.0000       0.385069        10.4783 
 183   0.0000       0.388076        10.5601 
 184   0.0000       0.389683        10.6038 
 185   0.0000       0.395389        10.7591 
 186   0.0000       0.400224        10.8907 
 187   0.0000       0.403871        10.9899 
 188   0.0000       0.405925        11.0458 
 189   0.0000       0.408202        11.1077 
 190   0.0000       0.409610        11.1460 
 191   0.0000       0.415281        11.3004 
 192   0.0000       0.419138        11.4053 
 193   0.0000       0.423293        11.5184 
 194   0.0000       0.429096        11.6763 
 195   0.0000       0.431140        11.7319 
 196   0.0000       0.435094        11.8395 
 197   0.0000       0.439183        11.9508 
 198   0.0000       0.443306        12.0630 
 199   0.0000       0.446067        12.1381 
 200   0.0000       0.451179        12.2772 
 201   0.0000       0.455112        12.3842 
 202   0.0000       0.456248        12.4151 
 203   0.0000       0.463681        12.6174 
 204   0.0000       0.465049        12.6546 
 205   0.0000       0.469432        12.7739 
 206   0.0000       0.470881        12.8133 
 207   0.0000       0.474372        12.9083 
 208   0.0000       0.475588        12.9414 
 209   0.0000       0.480943        13.0871 
 210   0.0000       0.484008        13.1705 
 211   0.0000       0.485803        13.2194 
 212   0.0000       0.487640        13.2694 
 213   0.0000       0.494709        13.4617 
 214   0.0000       0.496707        13.5161 
 215   0.0000       0.501706        13.6521 
 216   0.0000       0.505687        13.7604 
 217   0.0000       0.508065        13.8252 
 218   0.0000       0.510760        13.8985 
 219   0.0000       0.512806        13.9541 
 220   0.0000       0.514057        13.9882 
 221   0.0000       0.516889        14.0653 
 222   0.0000       0.522568        14.2198 
 223   0.0000       0.526326        14.3220 
 224   0.0000       0.527952        14.3663 
 225   0.0000       0.533881        14.5276 
 226   0.0000       0.535359        14.5678 
 227   0.0000       0.539629        14.6840 
 228   0.0000       0.542264        14.7557 
 229   0.0000       0.543263        14.7829 
 230   0.0000       0.547176        14.8894 
 231   0.0000       0.554373        15.0853 
 232   0.0000       0.560500        15.2520 
 233   0.0000       0.561373        15.2757 
 234   0.0000       0.565201        15.3799 
 235   0.0000       0.567657        15.4467 
 236   0.0000       0.568836        15.4788 
 237   0.0000       0.573990        15.6190 
 238   0.0000       0.576483        15.6869 
 239   0.0000       0.582628        15.8541 
 240   0.0000       0.586866        15.9694 
 241   0.0000       0.591664        16.1000 
 242   0.0000       0.597409        16.2563 
 243   0.0000       0.599026        16.3003 
 244   0.0000       0.603490        16.4218 
 245   0.0000       0.604617        16.4525 
 246   0.0000       0.614891        16.7320 
 247   0.0000       0.616666        16.7803 
 248   0.0000       0.619001        16.8439 
 249   0.0000       0.624225        16.9860 
 250   0.0000       0.629441        17.1279 
 251   0.0000       0.630443        17.1552 
 252   0.0000       0.632823        17.2200 
 253   0.0000       0.638140        17.3647 
 254   0.0000       0.642720        17.4893 
 255   0.0000       0.644827        17.5466 
 256   0.0000       0.651152        17.7187 
 257   0.0000       0.651359        17.7244 
 258   0.0000       0.652955        17.7678 
 259   0.0000       0.654097        17.7989 
 260   0.0000       0.658724        17.9248 
 261   0.0000       0.663052        18.0425 
 262   0.0000       0.668020        18.1778 
 263   0.0000       0.671467        18.2715 
 264   0.0000       0.673154        18.3174 
 265   0.0000       0.679926        18.5017 
 266   0.0000       0.688108        18.7244 
 267   0.0000       0.689773        18.7697 
 268   0.0000       0.693852        18.8807 
 269   0.0000       0.697102        18.9691 
 270   0.0000       0.698867        19.0171 
 271   0.0000       0.707742        19.2586 
 272   0.0000       0.712744        19.3947 
 273   0.0000       0.717714        19.5300 
 274   0.0000       0.726306        19.7638 
 275   0.0000       0.727441        19.7947 
 276   0.0000       0.732852        19.9419 
 277   0.0000       0.734777        19.9943 
 278   0.0000       0.736823        20.0500 
 279   0.0000       0.738581        20.0978 
 280   0.0000       0.746804        20.3216 
 281   0.0000       0.754795        20.5390 
 282   0.0000       0.762134        20.7387 
 283   0.0000       0.764287        20.7973 
 284   0.0000       0.767342        20.8804 
 285   0.0000       0.772017        21.0076 
 286   0.0000       0.778203        21.1760 
 287   0.0000       0.791449        21.5364 
 288   0.0000       0.798352        21.7243 
 289   0.0000       0.809123        22.0174 
 290   0.0000       0.811845        22.0914 
 291   0.0000       0.818187        22.2640 
 292   0.0000       0.820258        22.3204 
 293   0.0000       0.824711        22.4415 
 294   0.0000       0.832787        22.6613 
 295   0.0000       0.840266        22.8648 
 296   0.0000       0.845508        23.0074 
 297   0.0000       0.851880        23.1808 
 298   0.0000       0.854642        23.2560 
 299   0.0000       0.859588        23.3906 
 300   0.0000       0.870187        23.6790 
 301   0.0000       0.871772        23.7221 
 302   0.0000       0.876712        23.8566 
 303   0.0000       0.882117        24.0036 
 304   0.0000       0.885332        24.0911 
 305   0.0000       0.886742        24.1295 
 306   0.0000       0.893921        24.3248 
 307   0.0000       0.897529        24.4230 
 308   0.0000       0.901464        24.5301 
 309   0.0000       0.905116        24.6294 
 310   0.0000       0.908490        24.7213 
 311   0.0000       0.909913        24.7600 
 312   0.0000       0.913963        24.8702 
 313   0.0000       0.916133        24.9293 
 314   0.0000       0.924888        25.1675 
 315   0.0000       0.927997        25.2521 
 316   0.0000       0.934281        25.4231 
 317   0.0000       0.938176        25.5291 
 318   0.0000       0.943925        25.6855 
 319   0.0000       0.944502        25.7012 
 320   0.0000       0.947688        25.7879 
 321   0.0000       0.951209        25.8837 
 322   0.0000       0.955649        26.0045 
 323   0.0000       0.958903        26.0931 
 324   0.0000       0.960395        26.1337 
 325   0.0000       0.965913        26.2838 
 326   0.0000       0.966713        26.3056 
 327   0.0000       0.969079        26.3700 
 328   0.0000       0.972116        26.4526 
 329   0.0000       0.976646        26.5759 
 330   0.0000       0.979893        26.6643 
 331   0.0000       0.986389        26.8410 
 332   0.0000       0.990997        26.9664 
 333   0.0000       0.992614        27.0104 
 334   0.0000       0.997555        27.1448 
 335   0.0000       1.000928        27.2366 
 336   0.0000       1.003325        27.3019 
 337   0.0000       1.005445        27.3595 
 338   0.0000       1.008057        27.4306 
 339   0.0000       1.014281        27.6000 
 340   0.0000       1.016253        27.6537 
 341   0.0000       1.020227        27.7618 
 342   0.0000       1.025648        27.9093 
 343   0.0000       1.028169        27.9779 
 344   0.0000       1.029321        28.0092 
 345   0.0000       1.035371        28.1739 
 346   0.0000       1.036714        28.2104 
 347   0.0000       1.038887        28.2696 
 348   0.0000       1.043360        28.3913 
 349   0.0000       1.052747        28.6467 
 350   0.0000       1.055134        28.7116 
 351   0.0000       1.058215        28.7955 
 352   0.0000       1.062578        28.9142 
 353   0.0000       1.064201        28.9584 
 354   0.0000       1.069090        29.0914 
 355   0.0000       1.074811        29.2471 
 356   0.0000       1.077881        29.3306 
 357   0.0000       1.079801        29.3829 
 358   0.0000       1.081906        29.4401 
 359   0.0000       1.085110        29.5274 
 360   0.0000       1.085723        29.5440 
 361   0.0000       1.094509        29.7831 
 362   0.0000       1.100195        29.9378 
 363   0.0000       1.101546        29.9746 
 364   0.0000       1.110621        30.2215 
 365   0.0000       1.112727        30.2788 
 366   0.0000       1.116021        30.3685 
 367   0.0000       1.121908        30.5287 
 368   0.0000       1.126503        30.6537 
 369   0.0000       1.132184        30.8083 
 370   0.0000       1.135250        30.8917 
 371   0.0000       1.136363        30.9220 
 372   0.0000       1.148710        31.2580 
 373   0.0000       1.151808        31.3423 
 374   0.0000       1.154753        31.4224 
 375   0.0000       1.159524        31.5523 
 376   0.0000       1.166159        31.7328 
 377   0.0000       1.167323        31.7645 
 378   0.0000       1.175194        31.9787 
 379   0.0000       1.176289        32.0084 
 380   0.0000       1.184038        32.2193 
 381   0.0000       1.187259        32.3070 
 382   0.0000       1.191160        32.4131 
 383   0.0000       1.198498        32.6128 
 384   0.0000       1.201775        32.7020 
 385   0.0000       1.203382        32.7457 
 386   0.0000       1.210136        32.9295 
 387   0.0000       1.213719        33.0270 
 388   0.0000       1.216251        33.0959 
 389   0.0000       1.222445        33.2644 
 390   0.0000       1.230534        33.4845 
 391   0.0000       1.234306        33.5872 
 392   0.0000       1.236862        33.6567 
 393   0.0000       1.240493        33.7555 
 394   0.0000       1.246746        33.9257 
 395   0.0000       1.248275        33.9673 
 396   0.0000       1.253204        34.1014 
 397   0.0000       1.259139        34.2629 
 398   0.0000       1.263541        34.3827 
 399   0.0000       1.268909        34.5288 
 400   0.0000       1.273828        34.6626 
 401   0.0000       1.278557        34.7913 
 402   0.0000       1.283605        34.9287 
 403   0.0000       1.287288        35.0289 
 404   0.0000       1.290571        35.1182 
 405   0.0000       1.295461        35.2513 
 406   0.0000       1.304928        35.5089 
 407   0.0000       1.308549        35.6074 
 408   0.0000       1.314330        35.7647 
 409   0.0000       1.318030        35.8654 
 410   0.0000       1.323878        36.0245 
 411   0.0000       1.326087        36.0847 
 412   0.0000       1.328267        36.1440 
 413   0.0000       1.333168        36.2773 
 414   0.0000       1.345455        36.6117 
 415   0.0000       1.351473        36.7755 
 416   0.0000       1.355086        36.8738 
 417   0.0000       1.366902        37.1953 
 418   0.0000       1.367991        37.2249 
 419   0.0000       1.373513        37.3752 
 420   0.0000       1.376230        37.4491 
 421   0.0000       1.381412        37.5901 
 422   0.0000       1.388466        37.7821 
 423   0.0000       1.389729        37.8164 
 424   0.0000       1.394582        37.9485 
 425   0.0000       1.404552        38.2198 
 426   0.0000       1.410814        38.3902 
 427   0.0000       1.414875        38.5007 
 428   0.0000       1.422389        38.7052 
 429   0.0000       1.431208        38.9451 
 430   0.0000       1.434353        39.0307 
 431   0.0000       1.438528        39.1443 
 432   0.0000       1.445601        39.3368 
 433   0.0000       1.446276        39.3552 
 434   0.0000       1.453793        39.5597 
 435   0.0000       1.461992        39.7828 
 436   0.0000       1.464197        39.8428 
 437   0.0000       1.466882        39.9159 
 438   0.0000       1.473686        40.1010 
 439   0.0000       1.476092        40.1665 
 440   0.0000       1.486275        40.4436 
 441   0.0000       1.487714        40.4828 
 442   0.0000       1.490826        40.5674 
 443   0.0000       1.495099        40.6837 
 444   0.0000       1.500273        40.8245 
 445   0.0000       1.508801        41.0566 
 446   0.0000       1.513939        41.1964 
 447   0.0000       1.519018        41.3346 
 448   0.0000       1.523967        41.4693 
 449   0.0000       1.526465        41.5372 
 450   0.0000       1.532418        41.6992 
 451   0.0000       1.535496        41.7830 
 452   0.0000       1.543599        42.0035 
 453   0.0000       1.544693        42.0332 
 454   0.0000       1.549492        42.1638 
 455   0.0000       1.563964        42.5576 
 456   0.0000       1.567546        42.6551 
 457   0.0000       1.573643        42.8210 
 458   0.0000       1.576452        42.8974 
 459   0.0000       1.582139        43.0522 
 460   0.0000       1.589000        43.2389 
 461   0.0000       1.594487        43.3882 
 462   0.0000       1.596870        43.4530 
 463   0.0000       1.604203        43.6526 
 464   0.0000       1.618753        44.0485 
 465   0.0000       1.620683        44.1010 
 466   0.0000       1.622372        44.1470 
 467   0.0000       1.628490        44.3135 
 468   0.0000       1.633547        44.4511 
 469   0.0000       1.641473        44.6667 
 470   0.0000       1.649019        44.8721 
 471   0.0000       1.649446        44.8837 
 472   0.0000       1.652648        44.9708 
 473   0.0000       1.657940        45.1148 
 474   0.0000       1.660100        45.1736 
 475   0.0000       1.672967        45.5237 
 476   0.0000       1.675337        45.5882 
 477   0.0000       1.676594        45.6224 
 478   0.0000       1.685404        45.8622 
 479   0.0000       1.685910        45.8759 
 480   0.0000       1.691229        46.0207 
 481   0.0000       1.701318        46.2952 
 482   0.0000       1.706699        46.4416 
 483   0.0000       1.714909        46.6650 
 484   0.0000       1.717936        46.7474 
 485   0.0000       1.721285        46.8385 
 486   0.0000       1.725166        46.9442 
 487   0.0000       1.739439        47.3325 
 488   0.0000       1.740048        47.3491 
 489   0.0000       1.745666        47.5020 
 490   0.0000       1.753461        47.7141 
 491   0.0000       1.756793        47.8048 
 492   0.0000       1.762883        47.9705 
 493   0.0000       1.766319        48.0640 
 494   0.0000       1.769011        48.1372 
 495   0.0000       1.774132        48.2766 
 496   0.0000       1.780044        48.4375 
 497   0.0000       1.786903        48.6241 
 498   0.0000       1.790733        48.7283 
 499   0.0000       1.793535        48.8046 
 500   0.0000       1.798140        48.9299 
 501   0.0000       1.799673        48.9716 
 502   0.0000       1.802838        49.0577 
 503   0.0000       1.807019        49.1715 
 504   0.0000       1.817782        49.4644 
 505   0.0000       1.820094        49.5273 
 506   0.0000       1.835214        49.9387 
 507   0.0000       1.838687        50.0332 
 508   0.0000       1.841271        50.1035 
 509   0.0000       1.850387        50.3516 
 510   0.0000       1.852755        50.4160 
 511   0.0000       1.861966        50.6667 
 512   0.0000       1.866470        50.7892 
 513   0.0000       1.871310        50.9209 
 514   0.0000       1.877632        51.0930 
 515   0.0000       1.880240        51.1639 
 516   0.0000       1.881200        51.1901 
 517   0.0000       1.885836        51.3162 
 518   0.0000       1.887958        51.3740 
 519   0.0000       1.900104        51.7045 
 520   0.0000       1.908118        51.9225 
 521   0.0000       1.911362        52.0108 
 522   0.0000       1.916437        52.1489 
 523   0.0000       1.920165        52.2503 
 524   0.0000       1.924553        52.3697 
 525   0.0000       1.932983        52.5991 
 526   0.0000       1.938136        52.7394 
 527   0.0000       1.943842        52.8946 
 528   0.0000       1.946736        52.9734 
 529   0.0000       1.953411        53.1550 
 530   0.0000       1.955321        53.2070 
 531   0.0000       1.966579        53.5133 
 532   0.0000       1.973037        53.6891 
 533   0.0000       1.977629        53.8140 
 534   0.0000       1.980533        53.8930 
 535   0.0000       1.988271        54.1036 
 536   0.0000       1.991361        54.1877 
 537   0.0000       2.000359        54.4325 
 538   0.0000       2.001408        54.4611 
 539   0.0000       2.013822        54.7989 
 540   0.0000       2.019045        54.9410 
 541   0.0000       2.022437        55.0333 
 542   0.0000       2.029870        55.2356 
 543   0.0000       2.040321        55.5200 
 544   0.0000       2.046193        55.6797 
 545   0.0000       2.055251        55.9262 
 546   0.0000       2.061102        56.0854 
 547   0.0000       2.068655        56.2910 
 548   0.0000       2.069805        56.3223 
 549   0.0000       2.082336        56.6632 
 550   0.0000       2.085186        56.7408 
 551   0.0000       2.089388        56.8551 
 552   0.0000       2.098001        57.0895 
 553   0.0000       2.103373        57.2357 
 554   0.0000       2.104307        57.2611 
 555   0.0000       2.115627        57.5691 
 556   0.0000       2.119877        57.6848 
 557   0.0000       2.124363        57.8068 
 558   0.0000       2.130515        57.9743 
 559   0.0000       2.154429        58.6250 
 560   0.0000       2.158457        58.7346 
 561   0.0000       2.164441        58.8974 
 562   0.0000       2.167665        58.9852 
 563   0.0000       2.174541        59.1723 
 564   0.0000       2.179155        59.2978 
 565   0.0000       2.189155        59.5699 
 566   0.0000       2.192481        59.6604 
 567   0.0000       2.196175        59.7610 
 568   0.0000       2.205303        60.0094 
 569   0.0000       2.213128        60.2223 
 570   0.0000       2.219643        60.3996 
 571   0.0000       2.229099        60.6569 
 572   0.0000       2.231654        60.7264 
 573   0.0000       2.238764        60.9199 
 574   0.0000       2.250406        61.2367 
 575   0.0000       2.254569        61.3499 
 576   0.0000       2.259666        61.4886 
 577   0.0000       2.261576        61.5406 
 578   0.0000       2.267690        61.7070 
 579   0.0000       2.276277        61.9406 
 580   0.0000       2.282684        62.1150 
 581   0.0000       2.291015        62.3417 
 582   0.0000       2.297615        62.5213 
 583   0.0000       2.303313        62.6763 
 584   0.0000       2.314338        62.9763 
 585   0.0000       2.317455        63.0612 
 586   0.0000       2.330780        63.4238 
 587   0.0000       2.338649        63.6379 
 588   0.0000       2.355534        64.0973 
 589   0.0000       2.359500        64.2053 
 590   0.0000       2.365338        64.3641 
 591   0.0000       2.374157        64.6041 
 592   0.0000       2.384996        64.8990 
 593   0.0000       2.400601        65.3237 
 594   0.0000       2.402673        65.3801 
 595   0.0000       2.409720        65.5718 
 596   0.0000       2.422224        65.9121 
 597   0.0000       2.426997        66.0419 
 598   0.0000       2.437951        66.3400 
 599   0.0000       2.440608        66.4123 
 600   0.0000       2.447707        66.6055 
 601   0.0000       2.461413        66.9785 
 602   0.0000       2.471512        67.2533 
 603   0.0000       2.477754        67.4231 
 604   0.0000       2.480831        67.5069 
 605   0.0000       2.487037        67.6757 
 606   0.0000       2.510344        68.3099 
 607   0.0000       2.515747        68.4570 
 608   0.0000       2.517613        68.5077 
 609   0.0000       2.538436        69.0743 
 610   0.0000       2.550070        69.3909 
 611   0.0000       2.555278        69.5327 
 612   0.0000       2.556449        69.5645 
 613   0.0000       2.572896        70.0121 
 614   0.0000       2.579309        70.1866 
 615   0.0000       2.589841        70.4731 
 616   0.0000       2.607444        70.9522 
 617   0.0000       2.622082        71.3505 
 618   0.0000       2.634647        71.6924 
 619   0.0000       2.642009        71.8927 
 620   0.0000       2.663120        72.4672 
 621   0.0000       2.668833        72.6226 
 622   0.0000       2.674511        72.7771 
 623   0.0000       2.676670        72.8359 
 624   0.0000       2.689209        73.1771 
 625   0.0000       2.692517        73.2671 
 626   0.0000       2.696663        73.3799 
 627   0.0000       2.718275        73.9680 
 628   0.0000       2.718693        73.9794 
 629   0.0000       2.735640        74.4405 
 630   0.0000       2.741528        74.6008 
 631   0.0000       2.754896        74.9645 
 632   0.0000       2.761705        75.1498 
 633   0.0000       2.772314        75.4385 
 634   0.0000       2.775690        75.5304 
 635   0.0000       2.778195        75.5985 
 636   0.0000       2.791752        75.9674 
 637   0.0000       2.801370        76.2292 
 638   0.0000       2.814379        76.5831 
 639   0.0000       2.819591        76.7250 
 640   0.0000       2.844596        77.4054 
 641   0.0000       2.856882        77.7397 
 642   0.0000       2.864666        77.9515 
 643   0.0000       2.875109        78.2357 
 644   0.0000       2.884146        78.4816 
 645   0.0000       2.906747        79.0966 
 646   0.0000       2.914323        79.3028 
 647   0.0000       2.924229        79.5723 
 648   0.0000       2.939665        79.9924 
 649   0.0000       2.957117        80.4672 
 650   0.0000       2.975167        80.9584 
 651   0.0000       2.980014        81.0903 
 652   0.0000       2.995329        81.5071 
 653   0.0000       2.999735        81.6269 
 654   0.0000       3.031873        82.5014 
 655   0.0000       3.041979        82.7765 
 656   0.0000       3.053048        83.0777 
 657   0.0000       3.060749        83.2872 
 658   0.0000       3.066748        83.4504 
 659   0.0000       3.090767        84.1040 
 660   0.0000       3.099676        84.3465 
 661   0.0000       3.113304        84.7173 
 662   0.0000       3.130375        85.1818 
 663   0.0000       3.154699        85.8437 
 664   0.0000       3.165339        86.1333 
 665   0.0000       3.174077        86.3710 
 666   0.0000       3.190422        86.8158 
 667   0.0000       3.205880        87.2364 
 668   0.0000       3.216215        87.5177 
 669   0.0000       3.219567        87.6089 
 670   0.0000       3.233690        87.9932 
 671   0.0000       3.234315        88.0102 
 672   0.0000       3.238277        88.1180 
 673   0.0000       3.260278        88.7167 
 674   0.0000       3.265583        88.8610 
 675   0.0000       3.270364        88.9911 
 676   0.0000       3.284311        89.3706 
 677   0.0000       3.288084        89.4733 
 678   0.0000       3.298857        89.7665 
 679   0.0000       3.310965        90.0959 
 680   0.0000       3.322033        90.3971 
 681   0.0000       3.326838        90.5279 
 682   0.0000       3.332874        90.6921 
 683   0.0000       3.346498        91.0629 
 684   0.0000       3.347927        91.1017 
 685   0.0000       3.361677        91.4759 
 686   0.0000       3.377389        91.9034 
 687   0.0000       3.386844        92.1607 
 688   0.0000       3.410286        92.7986 
 689   0.0000       3.411107        92.8209 
 690   0.0000       3.422125        93.1207 
 691   0.0000       3.432771        93.4104 
 692   0.0000       3.439830        93.6025 
 693   0.0000       3.448047        93.8261 
 694   0.0000       3.460580        94.1672 
 695   0.0000       3.472188        94.4830 
 696   0.0000       3.481532        94.7373 
 697   0.0000       3.493862        95.0728 
 698   0.0000       3.499737        95.2327 
 699   0.0000       3.502897        95.3187 
 700   0.0000       3.507617        95.4471 
 701   0.0000       3.523554        95.8808 
 702   0.0000       3.528167        96.0063 
 703   0.0000       3.535526        96.2065 
 704   0.0000       3.544899        96.4616 
 705   0.0000       3.552453        96.6672 
 706   0.0000       3.572316        97.2077 
 707   0.0000       3.582999        97.4984 
 708   0.0000       3.585223        97.5589 
 709   0.0000       3.586328        97.5890 
 710   0.0000       3.593010        97.7708 
 711   0.0000       3.600485        97.9742 
 712   0.0000       3.610102        98.2359 
 713   0.0000       3.623167        98.5914 
 714   0.0000       3.625650        98.6589 
 715   0.0000       3.628494        98.7363 
 716   0.0000       3.645164        99.1899 
 717   0.0000       3.645837        99.2083 
 718   0.0000       3.650926        99.3467 
 719   0.0000       3.662746        99.6684 
 720   0.0000       3.682167       100.1969 
 721   0.0000       3.686494       100.3146 
 722   0.0000       3.698191       100.6329 
 723   0.0000       3.705925       100.8433 
 724   0.0000       3.710206       100.9598 
 725   0.0000       3.712112       101.0117 
 726   0.0000       3.719653       101.2169 
 727   0.0000       3.732935       101.5783 
 728   0.0000       3.734323       101.6161 
 729   0.0000       3.742740       101.8451 
 730   0.0000       3.747828       101.9836 
 731   0.0000       3.756662       102.2240 
 732   0.0000       3.763349       102.4059 
 733   0.0000       3.774059       102.6974 
 734   0.0000       3.785444       103.0072 
 735   0.0000       3.793531       103.2272 
 736   0.0000       3.798931       103.3742 
 737   0.0000       3.805010       103.5396 
 738   0.0000       3.807637       103.6111 
 739   0.0000       3.816136       103.8423 
 740   0.0000       3.820247       103.9542 
 741   0.0000       3.823647       104.0467 
 742   0.0000       3.836035       104.3838 
 743   0.0000       3.842951       104.5720 
 744   0.0000       3.850751       104.7843 
 745   0.0000       3.861999       105.0903 
 746   0.0000       3.865282       105.1797 
 747   0.0000       3.869075       105.2829 
 748   0.0000       3.879260       105.5600 
 749   0.0000       3.888161       105.8023 
 750   0.0000       3.892984       105.9335 
 751   0.0000       3.903025       106.2067 
 752   0.0000       3.916075       106.5618 
 753   0.0000       3.916666       106.5779 
 754   0.0000       3.925560       106.8199 
 755   0.0000       3.935795       107.0984 
 756   0.0000       3.945429       107.3606 
 757   0.0000       3.949606       107.4742 
 758   0.0000       3.953642       107.5841 
 759   0.0000       3.964328       107.8748 
 760   0.0000       3.966855       107.9436 
 761   0.0000       3.971570       108.0719 
 762   0.0000       3.983002       108.3830 
 763   0.0000       3.986568       108.4800 
 764   0.0000       3.989321       108.5549 
 765   0.0000       3.993448       108.6673 
 766   0.0000       3.998941       108.8167 
 767   0.0000       4.011539       109.1595 
 768   0.0000       4.023474       109.4843 
 769   0.0000       4.028067       109.6093 
 770   0.0000       4.032565       109.7317 
 771   0.0000       4.037095       109.8549 
 772   0.0000       4.049334       110.1880 
 773   0.0000       4.060998       110.5054 
 774   0.0000       4.075120       110.8897 
 775   0.0000       4.080662       111.0404 
 776   0.0000       4.088485       111.2533 
 777   0.0000       4.097137       111.4888 
 778   0.0000       4.100330       111.5756 
 779   0.0000       4.110778       111.8599 
 780   0.0000       4.114293       111.9556 
 781   0.0000       4.120059       112.1125 
 782   0.0000       4.133380       112.4750 
 783   0.0000       4.143269       112.7441 
 784   0.0000       4.150699       112.9463 
 785   0.0000       4.155515       113.0773 
 786   0.0000       4.160422       113.2108 
 787   0.0000       4.172798       113.5476 
 788   0.0000       4.179585       113.7323 
 789   0.0000       4.187065       113.9358 
 790   0.0000       4.195051       114.1531 
 791   0.0000       4.202298       114.3503 
 792   0.0000       4.211388       114.5977 
 793   0.0000       4.218201       114.7831 
 794   0.0000       4.223305       114.9220 
 795   0.0000       4.236099       115.2701 
 796   0.0000       4.245102       115.5151 
 797   0.0000       4.258293       115.8741 
 798   0.0000       4.265110       116.0595 
 799   0.0000       4.268299       116.1463 
 800   0.0000       4.276155       116.3601 
 801   0.0000       4.285650       116.6185 
 802   0.0000       4.295189       116.8780 
 803   0.0000       4.297789       116.9488 
 804   0.0000       4.307746       117.2197 
 805   0.0000       4.314378       117.4002 
 806   0.0000       4.338796       118.0646 
 807   0.0000       4.342243       118.1584 
 808   0.0000       4.349524       118.3566 
 809   0.0000       4.360735       118.6616 
 810   0.0000       4.365331       118.7867 
 811   0.0000       4.379855       119.1819 
 812   0.0000       4.390151       119.4621 
 813   0.0000       4.397144       119.6524 
 814   0.0000       4.410579       120.0180 
 815   0.0000       4.418988       120.2468 
 816   0.0000       4.427171       120.4694 
 817   0.0000       4.433739       120.6482 
 818   0.0000       4.440533       120.8330 
 819   0.0000       4.450267       121.0979 
 820   0.0000       4.453754       121.1928 
 821   0.0000       4.460520       121.3769 
 822   0.0000       4.465040       121.4999 
 823   0.0000       4.488678       122.1431 
 824   0.0000       4.494159       122.2923 
 825   0.0000       4.502920       122.5307 
 826   0.0000       4.514090       122.8346 
 827   0.0000       4.521728       123.0425 
 828   0.0000       4.528079       123.2153 
 829   0.0000       4.544809       123.6705 
 830   0.0000       4.551083       123.8413 
 831   0.0000       4.559099       124.0594 
 832   0.0000       4.567437       124.2863 
 833   0.0000       4.582446       124.6947 
 834   0.0000       4.589318       124.8817 
 835   0.0000       4.592359       124.9644 
 836   0.0000       4.622000       125.7710 
 837   0.0000       4.623216       125.8041 
 838   0.0000       4.646752       126.4446 
 839   0.0000       4.656570       126.7117 
 840   0.0000       4.660235       126.8114 
 841   0.0000       4.666131       126.9719 
 842   0.0000       4.675447       127.2254 
 843   0.0000       4.691745       127.6689 
 844   0.0000       4.700786       127.9149 
 845   0.0000       4.716617       128.3457 
 846   0.0000       4.732147       128.7683 
 847   0.0000       4.738115       128.9307 
 848   0.0000       4.745774       129.1391 
 849   0.0000       4.754236       129.3693 
 850   0.0000       4.781072       130.0996 
 851   0.0000       4.785585       130.2224 
 852   0.0000       4.798175       130.5650 
 853   0.0000       4.806629       130.7950 
 854   0.0000       4.814907       131.0203 
 855   0.0000       4.825889       131.3191 
 856   0.0000       4.840116       131.7063 
 857   0.0000       4.841778       131.7515 
 858   0.0000       4.855673       132.1296 
 859   0.0000       4.866680       132.4291 
 860   0.0000       4.875634       132.6728 
 861   0.0000       4.899880       133.3325 
 862   0.0000       4.905196       133.4772 
 863   0.0000       4.914012       133.7171 
 864   0.0000       4.931312       134.1878 
 865   0.0000       4.940000       134.4242 
 866   0.0000       4.950484       134.7095 
 867   0.0000       4.957887       134.9110 
 868   0.0000       4.979936       135.5109 
 869   0.0000       4.990872       135.8085 
 870   0.0000       4.998971       136.0289 
 871   0.0000       5.001957       136.1102 
 872   0.0000       5.015134       136.4687 
 873   0.0000       5.022719       136.6751 
 874   0.0000       5.036469       137.0493 
 875   0.0000       5.043973       137.2535 
 876   0.0000       5.051786       137.4661 
 877   0.0000       5.075594       138.1139 
 878   0.0000       5.083289       138.3233 
 879   0.0000       5.093259       138.5946 
 880   0.0000       5.099985       138.7777 
 881   0.0000       5.128065       139.5417 
 882   0.0000       5.134487       139.7165 
 883   0.0000       5.141712       139.9131 
 884   0.0000       5.151211       140.1716 
 885   0.0000       5.166749       140.5944 
 886   0.0000       5.182352       141.0190 
 887   0.0000       5.196980       141.4170 
 888   0.0000       5.205850       141.6584 
 889   0.0000       5.214639       141.8975 
 890   0.0000       5.219096       142.0188 
 891   0.0000       5.236246       142.4855 
 892   0.0000       5.250077       142.8619 
 893   0.0000       5.270214       143.4098 
 894   0.0000       5.297045       144.1399 
 895   0.0000       5.299660       144.2111 
 896   0.0000       5.305994       144.3834 
 897   0.0000       5.320260       144.7716 
 898   0.0000       5.341652       145.3537 
 899   0.0000       5.350963       145.6071 
 900   0.0000       5.364173       145.9666 
 901   0.0000       5.372300       146.1877 
 902   0.0000       5.387238       146.5942 
 903   0.0000       5.394626       146.7952 
 904   0.0000       5.409232       147.1927 
 905   0.0000       5.413246       147.3019 
 906   0.0000       5.418595       147.4475 
 907   0.0000       5.428657       147.7213 
 908   0.0000       5.444393       148.1495 
 909   0.0000       5.463553       148.6708 
 910   0.0000       5.475045       148.9836 
 911   0.0000       5.478704       149.0831 
 912   0.0000       5.499453       149.6477 
 913   0.0000       5.509750       149.9279 
 914   0.0000       5.521430       150.2458 
 915   0.0000       5.536553       150.6573 
 916   0.0000       5.541997       150.8054 
 917   0.0000       5.565110       151.4343 
 918   0.0000       5.574560       151.6915 
 919   0.0000       5.590723       152.1313 
 920   0.0000       5.607950       152.6001 
 921   0.0000       5.609479       152.6417 
 922   0.0000       5.628096       153.1483 
 923   0.0000       5.635133       153.3398 
 924   0.0000       5.642261       153.5337 
 925   0.0000       5.660159       154.0208 
 926   0.0000       5.668580       154.2499 
 927   0.0000       5.675397       154.4354 
 928   0.0000       5.687198       154.7565 
 929   0.0000       5.697969       155.0496 
 930   0.0000       5.704440       155.2257 
 931   0.0000       5.712900       155.4559 
 932   0.0000       5.729378       155.9043 
 933   0.0000       5.738955       156.1649 
 934   0.0000       5.752624       156.5369 
 935   0.0000       5.766214       156.9067 
 936   0.0000       5.777778       157.2213 
 937   0.0000       5.806912       158.0141 
 938   0.0000       5.821074       158.3995 
 939   0.0000       5.838139       158.8638 
 940   0.0000       5.846277       159.0853 
 941   0.0000       5.880047       160.0042 
 942   0.0000       5.887722       160.2131 
 943   0.0000       5.929074       161.3383 
 944   0.0000       5.949488       161.8938 
 945   0.0000       6.003138       163.3537 
 946   0.0000       6.005578       163.4201 
 947   0.0000       6.092247       165.7785 
 948   0.0000       6.118639       166.4966 
 949   0.0000       6.132421       166.8717 
 950   0.0000       6.155993       167.5131 
 951   0.0000       6.173262       167.9830 
 952   0.0000       6.195040       168.5756 
 953   0.0000       6.211805       169.0318 
 954   0.0000       6.231661       169.5721 
 955   0.0000       6.235856       169.6863 
 956   0.0000       6.249163       170.0484 
 957   0.0000       6.260769       170.3642 
 958   0.0000       6.274456       170.7366 
 959   0.0000       6.285046       171.0248 
 960   0.0000       6.293432       171.2530 
 961   0.0000       6.310722       171.7235 
 962   0.0000       6.327942       172.1920 
 963   0.0000       6.358463       173.0226 
 964   0.0000       6.386384       173.7823 
 965   0.0000       6.392537       173.9498 
 966   0.0000       6.423028       174.7795 
 967   0.0000       6.442006       175.2959 
 968   0.0000       6.511593       177.1895 
 969   0.0000       6.539597       177.9515 
 970   0.0000       6.627603       180.3462 
 971   0.0000       6.659253       181.2075 
 972   0.0000       6.830412       185.8649 
 973   0.0000       6.854357       186.5165 
 974   0.0000       6.863271       186.7591 
 975   0.0000       6.899568       187.7468 
 976   0.0000       6.930561       188.5902 
 977   0.0000       6.950241       189.1257 
 978   0.0000       6.966174       189.5592 
 979   0.0000       6.987636       190.1433 
 980   0.0000       6.998282       190.4329 
 981   0.0000       7.031081       191.3254 
 982   0.0000       7.051415       191.8788 
 983   0.0000       7.064171       192.2259 
 984   0.0000       7.146719       194.4721 
 985   0.0000       7.170681       195.1241 
 986   0.0000       7.326311       199.3591 
 987   0.0000       7.376133       200.7148 
 988   0.0000       7.428789       202.1476 
 989   0.0000       7.503693       204.1859 
 990   0.0000       7.546840       205.3600 
 991   0.0000       7.616966       207.2682 
 992   0.0000       7.642056       207.9509 
 993   0.0000       7.697636       209.4633 
 994   0.0000       7.811332       212.5571 
 995   0.0000       7.877048       214.3454 
 996   0.0000       7.995197       217.5604 
 997   0.0000       8.051979       219.1055 
 998   0.0000       8.263938       224.8732 
 999   0.0000       9.412204       256.1191 
 1000   0.0000       9.431147       256.6346 
 1001   0.0000       9.441947       256.9284 
 1002   0.0000       9.454122       257.2597 
 1003   0.0000       9.468532       257.6519 
 1004   0.0000       9.485800       258.1218 
 1005   0.0000       9.670821       263.1564 
 1006   0.0000      10.086203       274.4595 
 1007   0.0000      10.102304       274.8977 
 1008   0.0000      10.114076       275.2180 
 1009   0.0000      10.202750       277.6309 
 1010   0.0000      10.210811       277.8503 
 1011   0.0000      10.250780       278.9379 
 1012   0.0000      10.346639       281.5464 
 1013   0.0000      10.391139       282.7573 
 1014   0.0000      10.483226       285.2631 
 1015   0.0000      15.071967       410.1291 
 1016   0.0000      17.232357       468.9163 
 1017   0.0000      17.845985       485.6139 
 1018   0.0000      18.201446       495.2865 
 1019   0.0000      18.609195       506.3820 
 1020   0.0000      18.700181       508.8578 
 1021   0.0000      18.883574       513.8482 
 1022   0.0000      20.490169       557.5659 
 1023   0.0000      21.430261       583.1471 
 1024   0.0000      21.899689       595.9208 

                 SPIN DOWN ORBITALS
  NO   OCC          E(Eh)            E(eV) 
   0   1.0000    -261.567565     -7117.6153 
   1   1.0000    -104.788148     -2851.4305 
   2   1.0000    -104.786315     -2851.3806 
   3   1.0000    -104.785128     -2851.3483 
   4   1.0000     -32.076872      -872.8561 
   5   1.0000     -27.554796      -749.8041 
   6   1.0000     -27.554741      -749.8026 
   7   1.0000     -27.554551      -749.7975 
   8   1.0000     -20.597682      -560.4914 
   9   1.0000     -11.421342      -310.7905 
  10   1.0000     -11.284278      -307.0608 
  11   1.0000     -11.274982      -306.8079 
  12   1.0000     -11.269902      -306.6696 
  13   1.0000     -11.249768      -306.1218 
  14   1.0000     -11.246674      -306.0376 
  15   1.0000     -11.244151      -305.9689 
  16   1.0000     -11.237107      -305.7772 
  17   1.0000     -10.514727      -286.1203 
  18   1.0000     -10.512846      -286.0691 
  19   1.0000     -10.511627      -286.0359 
  20   1.0000      -7.980637      -217.1642 
  21   1.0000      -7.979937      -217.1451 
  22   1.0000      -7.979880      -217.1436 
  23   1.0000      -7.978720      -217.1120 
  24   1.0000      -7.978082      -217.0947 
  25   1.0000      -7.977981      -217.0919 
  26   1.0000      -7.977616      -217.0820 
  27   1.0000      -7.976770      -217.0589 
  28   1.0000      -7.976686      -217.0567 
  29   1.0000      -4.151741      -112.9746 
  30   1.0000      -2.673317       -72.7447 
  31   1.0000      -2.673262       -72.7432 
  32   1.0000      -2.672871       -72.7325 
  33   1.0000      -1.444288       -39.3011 
  34   1.0000      -1.136950       -30.9380 
  35   1.0000      -1.096410       -29.8348 
  36   1.0000      -1.047421       -28.5018 
  37   1.0000      -1.035104       -28.1666 
  38   1.0000      -1.033253       -28.1162 
  39   1.0000      -1.025288       -27.8995 
  40   1.0000      -1.009423       -27.4678 
  41   1.0000      -0.965831       -26.2816 
  42   1.0000      -0.905367       -24.6363 
  43   1.0000      -0.821407       -22.3516 
  44   1.0000      -0.737404       -20.0658 
  45   1.0000      -0.709059       -19.2945 
  46   1.0000      -0.698744       -19.0138 
  47   1.0000      -0.689386       -18.7591 
  48   1.0000      -0.661294       -17.9947 
  49   1.0000      -0.628508       -17.1026 
  50   1.0000      -0.620229       -16.8773 
  51   1.0000      -0.602714       -16.4007 
  52   1.0000      -0.600687       -16.3455 
  53   1.0000      -0.583950       -15.8901 
  54   1.0000      -0.578334       -15.7373 
  55   1.0000      -0.561727       -15.2854 
  56   1.0000      -0.559788       -15.2326 
  57   1.0000      -0.550229       -14.9725 
  58   1.0000      -0.543097       -14.7784 
  59   1.0000      -0.533433       -14.5155 
  60   1.0000      -0.518185       -14.1005 
  61   1.0000      -0.501954       -13.6589 
  62   1.0000      -0.497108       -13.5270 
  63   1.0000      -0.481001       -13.0887 
  64   1.0000      -0.479884       -13.0583 
  65   1.0000      -0.450758       -12.2658 
  66   1.0000      -0.447622       -12.1804 
  67   1.0000      -0.445181       -12.1140 
  68   1.0000      -0.429603       -11.6901 
  69   1.0000      -0.426348       -11.6015 
  70   1.0000      -0.410926       -11.1819 
  71   1.0000      -0.361772        -9.8443 
  72   0.0000       0.012561         0.3418 
  73   0.0000       0.023491         0.6392 
  74   0.0000       0.023672         0.6441 
  75   0.0000       0.030366         0.8263 
  76   0.0000       0.039420         1.0727 
  77   0.0000       0.040796         1.1101 
  78   0.0000       0.042449         1.1551 
  79   0.0000       0.043362         1.1799 
  80   0.0000       0.043796         1.1917 
  81   0.0000       0.054830         1.4920 
  82   0.0000       0.056235         1.5302 
  83   0.0000       0.059869         1.6291 
  84   0.0000       0.064116         1.7447 
  85   0.0000       0.066230         1.8022 
  86   0.0000       0.067809         1.8452 
  87   0.0000       0.072406         1.9703 
  88   0.0000       0.075081         2.0430 
  89   0.0000       0.079487         2.1630 
  90   0.0000       0.091046         2.4775 
  91   0.0000       0.091109         2.4792 
  92   0.0000       0.092404         2.5144 
  93   0.0000       0.100022         2.7217 
  94   0.0000       0.101890         2.7726 
  95   0.0000       0.103382         2.8132 
  96   0.0000       0.104579         2.8457 
  97   0.0000       0.108555         2.9539 
  98   0.0000       0.109736         2.9861 
  99   0.0000       0.113380         3.0852 
 100   0.0000       0.114187         3.1072 
 101   0.0000       0.114493         3.1155 
 102   0.0000       0.118943         3.2366 
 103   0.0000       0.121597         3.3088 
 104   0.0000       0.125246         3.4081 
 105   0.0000       0.126081         3.4308 
 106   0.0000       0.128577         3.4988 
 107   0.0000       0.130775         3.5586 
 108   0.0000       0.133633         3.6363 
 109   0.0000       0.134493         3.6597 
 110   0.0000       0.138601         3.7715 
 111   0.0000       0.140447         3.8217 
 112   0.0000       0.141990         3.8638 
 113   0.0000       0.149023         4.0551 
 114   0.0000       0.149735         4.0745 
 115   0.0000       0.152990         4.1631 
 116   0.0000       0.157723         4.2919 
 117   0.0000       0.160728         4.3736 
 118   0.0000       0.162059         4.4098 
 119   0.0000       0.168370         4.5816 
 120   0.0000       0.169887         4.6229 
 121   0.0000       0.173614         4.7243 
 122   0.0000       0.175636         4.7793 
 123   0.0000       0.177539         4.8311 
 124   0.0000       0.180426         4.9096 
 125   0.0000       0.186285         5.0691 
 126   0.0000       0.187981         5.1152 
 127   0.0000       0.190246         5.1769 
 128   0.0000       0.196362         5.3433 
 129   0.0000       0.201214         5.4753 
 130   0.0000       0.202377         5.5070 
 131   0.0000       0.207138         5.6365 
 132   0.0000       0.209567         5.7026 
 133   0.0000       0.210497         5.7279 
 134   0.0000       0.213606         5.8125 
 135   0.0000       0.216510         5.8915 
 136   0.0000       0.223238         6.0746 
 137   0.0000       0.228174         6.2089 
 138   0.0000       0.229036         6.2324 
 139   0.0000       0.231479         6.2989 
 140   0.0000       0.237796         6.4708 
 141   0.0000       0.239888         6.5277 
 142   0.0000       0.243710         6.6317 
 143   0.0000       0.245192         6.6720 
 144   0.0000       0.250846         6.8259 
 145   0.0000       0.255161         6.9433 
 146   0.0000       0.256228         6.9723 
 147   0.0000       0.259109         7.0507 
 148   0.0000       0.263784         7.1779 
 149   0.0000       0.266206         7.2438 
 150   0.0000       0.274846         7.4790 
 151   0.0000       0.275443         7.4952 
 152   0.0000       0.277655         7.5554 
 153   0.0000       0.284538         7.7427 
 154   0.0000       0.289997         7.8912 
 155   0.0000       0.292859         7.9691 
 156   0.0000       0.298838         8.1318 
 157   0.0000       0.300207         8.1690 
 158   0.0000       0.302234         8.2242 
 159   0.0000       0.310332         8.4446 
 160   0.0000       0.310487         8.4488 
 161   0.0000       0.316537         8.6134 
 162   0.0000       0.321381         8.7452 
 163   0.0000       0.325296         8.8517 
 164   0.0000       0.331006         9.0071 
 165   0.0000       0.332088         9.0366 
 166   0.0000       0.334589         9.1046 
 167   0.0000       0.341981         9.3058 
 168   0.0000       0.345046         9.3892 
 169   0.0000       0.346878         9.4390 
 170   0.0000       0.349996         9.5239 
 171   0.0000       0.359445         9.7810 
 172   0.0000       0.361151         9.8274 
 173   0.0000       0.363199         9.8831 
 174   0.0000       0.365475         9.9451 
 175   0.0000       0.366789         9.9808 
 176   0.0000       0.368755        10.0343 
 177   0.0000       0.373875        10.1737 
 178   0.0000       0.374679        10.1955 
 179   0.0000       0.379812        10.3352 
 180   0.0000       0.386565        10.5190 
 181   0.0000       0.387798        10.5525 
 182   0.0000       0.391460        10.6522 
 183   0.0000       0.394157        10.7255 
 184   0.0000       0.396760        10.7964 
 185   0.0000       0.398411        10.8413 
 186   0.0000       0.405578        11.0363 
 187   0.0000       0.406654        11.0656 
 188   0.0000       0.408101        11.1050 
 189   0.0000       0.410055        11.1582 
 190   0.0000       0.412750        11.2315 
 191   0.0000       0.419767        11.4224 
 192   0.0000       0.419989        11.4285 
 193   0.0000       0.425279        11.5724 
 194   0.0000       0.431480        11.7412 
 195   0.0000       0.435265        11.8442 
 196   0.0000       0.438152        11.9227 
 197   0.0000       0.440996        12.0001 
 198   0.0000       0.449790        12.2394 
 199   0.0000       0.453491        12.3401 
 200   0.0000       0.457009        12.4359 
 201   0.0000       0.460111        12.5202 
 202   0.0000       0.462058        12.5732 
 203   0.0000       0.465963        12.6795 
 204   0.0000       0.468738        12.7550 
 205   0.0000       0.474917        12.9231 
 206   0.0000       0.476613        12.9693 
 207   0.0000       0.477175        12.9846 
 208   0.0000       0.482580        13.1317 
 209   0.0000       0.484303        13.1785 
 210   0.0000       0.487123        13.2553 
 211   0.0000       0.489129        13.3099 
 212   0.0000       0.494800        13.4642 
 213   0.0000       0.496588        13.5129 
 214   0.0000       0.501535        13.6474 
 215   0.0000       0.504344        13.7239 
 216   0.0000       0.509720        13.8702 
 217   0.0000       0.511495        13.9185 
 218   0.0000       0.513193        13.9647 
 219   0.0000       0.516484        14.0542 
 220   0.0000       0.519373        14.1329 
 221   0.0000       0.520068        14.1518 
 222   0.0000       0.525468        14.2987 
 223   0.0000       0.528226        14.3738 
 224   0.0000       0.531786        14.4706 
 225   0.0000       0.536107        14.5882 
 226   0.0000       0.537393        14.6232 
 227   0.0000       0.541446        14.7335 
 228   0.0000       0.544845        14.8260 
 229   0.0000       0.547443        14.8967 
 230   0.0000       0.551400        15.0043 
 231   0.0000       0.555872        15.1260 
 232   0.0000       0.561213        15.2714 
 233   0.0000       0.563630        15.3372 
 234   0.0000       0.566262        15.4088 
 235   0.0000       0.568577        15.4718 
 236   0.0000       0.570604        15.5269 
 237   0.0000       0.575730        15.6664 
 238   0.0000       0.579631        15.7726 
 239   0.0000       0.584691        15.9102 
 240   0.0000       0.589473        16.0404 
 241   0.0000       0.593249        16.1431 
 242   0.0000       0.599522        16.3138 
 243   0.0000       0.600626        16.3439 
 244   0.0000       0.605271        16.4703 
 245   0.0000       0.609237        16.5782 
 246   0.0000       0.617109        16.7924 
 247   0.0000       0.618969        16.8430 
 248   0.0000       0.621105        16.9011 
 249   0.0000       0.625720        17.0267 
 250   0.0000       0.631288        17.1782 
 251   0.0000       0.632759        17.2182 
 252   0.0000       0.634686        17.2707 
 253   0.0000       0.641223        17.4486 
 254   0.0000       0.644556        17.5393 
 255   0.0000       0.646200        17.5840 
 256   0.0000       0.652585        17.7577 
 257   0.0000       0.653282        17.7767 
 258   0.0000       0.654178        17.8011 
 259   0.0000       0.657560        17.8931 
 260   0.0000       0.663199        18.0466 
 261   0.0000       0.667257        18.1570 
 262   0.0000       0.671110        18.2618 
 263   0.0000       0.672973        18.3125 
 264   0.0000       0.676335        18.4040 
 265   0.0000       0.685345        18.6492 
 266   0.0000       0.691802        18.8249 
 267   0.0000       0.692892        18.8546 
 268   0.0000       0.698005        18.9937 
 269   0.0000       0.698509        19.0074 
 270   0.0000       0.702186        19.1075 
 271   0.0000       0.710927        19.3453 
 272   0.0000       0.715535        19.4707 
 273   0.0000       0.721589        19.6354 
 274   0.0000       0.729552        19.8521 
 275   0.0000       0.732545        19.9336 
 276   0.0000       0.737040        20.0559 
 277   0.0000       0.738173        20.0867 
 278   0.0000       0.742251        20.1977 
 279   0.0000       0.743245        20.2247 
 280   0.0000       0.750464        20.4212 
 281   0.0000       0.756523        20.5860 
 282   0.0000       0.765719        20.8363 
 283   0.0000       0.766970        20.8703 
[...]
  | sigma^2 in % of trace(Dij) retained ...   8.59e+00
  | sigma^2 in % of trace(Dip) retained ...   2.02e+01
  | sigma^2 in % of trace(Dpq) retained ...   1.37e-01
  | Av. % of trace(Di) retained         ...  99.998539707184
  | Av. % of trace(Dp) retained         ...  99.999999720598
  | sigma^2 in % of trace(Di) retained  ...   7.14e-07
  | sigma^2 in % of trace(Dp) retained  ...   9.88e-14
 Distributions of % trace(Dij) recovered:
  |       >= 99.9  ...   105 ( 21.3 % of all IJ-pairs)
  |   [80.0, 90.0) ...    24 (  4.9 % of all IJ-pairs)
  |   [90.0, 99.0) ...   276 ( 56.0 % of all IJ-pairs)
  |   [99.0, 99.9) ...    88 ( 17.8 % of all IJ-pairs)
 Distributions of % trace(Dip) recovered:
  |   [80.0, 90.0) ...    16 ( 13.4 % of all IP-pairs)
  |   [90.0, 99.0) ...    59 ( 49.6 % of all IP-pairs)
  |   [99.0, 99.9) ...    44 ( 37.0 % of all IP-pairs)
 Distributions of % trace(Dpq) recovered:
  |       >= 99.9  ...     5 ( 33.3 % of all PQ-pairs)
  |   [99.0, 99.9) ...    10 ( 66.7 % of all PQ-pairs)
 Distributions of % trace(Di) recovered :
  |       >= 99.9  ...    43 (100.0 % of all I-pairs )
 Distributions of % trace(Dp) recovered :
  |       >= 99.9  ...     5 (100.0 % of all P-pairs )

                       ===========================
                       1087 OF 1715 PAIRS ARE KEPT
                       ===========================

 Initial PAO correlation energy (all pairs)    ...  -2.6890852786 Eh
 Energy constituents in PAO basis (Eh):
  | Vijab(+0) ...  -2.2610753605
  | Viab (-1) ...  -0.1746135890
  | Vab  (-2) ...  -0.0573449296
  | Va   (-1) ...  -0.0000444980
  | Vija (+1) ...  -0.0718181127
  | Vij  (+2) ...  -0.0155328103
  | Via  (+0) ...  -0.1084939049
  | Vi   (+1) ...  -0.0001620737
 Initial PNO correlation energy                ...  -2.6539011021 Eh
 Energy constituents in PNO basis (Eh):
  | Vijab(+0) ...  -2.2417954067 (err=  0.0192799538)
  | Viab (-1) ...  -0.1603809390 (err=  0.0142326500)
  | Vab  (-2) ...  -0.0568899150 (err=  0.0004550146)
  | Va   (-1) ...  -0.0000258102 (err=  0.0000186877)
  | Vija (+1) ...  -0.0707957094 (err=  0.0010224033)
  | Vij  (+2) ...  -0.0154725114 (err=  0.0000602989)
  | Via  (+0) ...  -0.1083792053 (err=  0.0001146996)
  | Vi   (+1) ...  -0.0001616050 (err=  0.0000004687)
 Sum of total truncation errors ...   0.0351841765 Eh
  | Pair screening ...   0.0123629863 Eh
  | PNO truncation ...   0.0228211902 Eh

 UMP2 correlation energy (PAO) ...  -2.6840413014
  | alpha-alpha ...  -0.3855603584 (NP_aa=  925)
  | alpha-beta  ...  -1.9925044172 (NP_ab= 1690)
  | beta -beta  ...  -0.3059765258 (NP_bb=  732)
 UMP2 correlation energy (PNO) ...  -2.6484837325
  | alpha-alpha ...  -0.3733126222 (err=  0.0122477362, NP_aa=  579)
  | alpha-beta  ...  -1.9734559250 (err=  0.0190484922, NP_ab= 1062)
  | beta -beta  ...  -0.3017151853 (err=  0.0042613405, NP_bb=  450)
 Sum of total UMP2 truncation errors ...   0.0355575689 Eh
  | Pair screening ...   0.0123767592 Eh
  | PNO truncation ...   0.0231808098 Eh
 Timing for NEV-PNO construction (sec.)
  | Intermediate construction  ..           45.187
  | Amplitude construction     ..           65.557
  | Total time                 ..          110.744
 Making pair pair interaction lists ...      ok
 Total size for 2-ext PNO integrals ...     10.9 MB
Checking the number of SOMO/SOMO doubles PNOs ... 
 #Truncate: (72, 72)[176] -> [85] .. 
 #Truncate: (73, 73)[178] -> [85] .. 
 #Truncate: (74, 74)[180] -> [85] .. 
 #Truncate: (75, 75)[179] -> [85] .. 
 #Truncate: (76, 76)[178] -> [85] .. 

--------------------------------
LOCAL RI TRANSFORMATION (VABPAO)
--------------------------------

Number of PAOs:    1030
Basis functions:   1025 (343 shells)
Aux. functions:    2424 (644 shells)

Processing maps (0.0 sec)
Average map sizes:
   Aux shells -> PAOs           1030.0
   PAOs       -> AO shells       343.0

Calculating integrals (189.7 sec, 37370.165 MB)
Finished
-----------------------------
LOCAL RI TRANSFORMATION (IJV)
-----------------------------

Orbital window:      29 to 76
Basis functions:   1025 (343 shells)
Aux. functions:    2424 (644 shells)

Processing maps (0.0 sec)
Average map sizes:
   Aux shells -> MOs(i)           46.7
   Aux shells -> MOs(j)           48.0
   MOs        -> AO shells       341.9

Calculating integrals (22.8 sec, 41.556 MB)
Sorting integrals (0.3 sec, 41.529 MB)
Total time for the integral transformation: 23.2 sec


-------------------------------------
Pair Pair Term precalculation with     
RI-(ij|mn) and (im|jn) transformation  
ON THE FLY                             
-------------------------------------

   IBatch   1 (of   2)              ... done ( 1051.327 sec)
   IBatch   2 (of   2)              ... done ( 1106.072 sec)
Total EXT                           ...        2157.399 sec

---------------------
RI-PNO TRANSFORMATION
---------------------

Total Number of PNOs                   ... 33822
Total Number of IJ-PNOs                ... 29662
Total Number of IP-PNOs                ...  3207
Total Number of PQ-PNOs                ...   953
Total Number of IJ-pairs               ...   943
Total Number of PI-pairs               ...   119
Total Number of PQ-pairs               ...    25
Average number of PNOs per pair        ...    31
Maximal number of PNOs per pair        ...    85
>> Statistics for ij-pairs..
   #pairs with  1 -  5 PNOs   :    0
   #pairs with  6 - 10 PNOs   :    0
   #pairs with 11 - 15 PNOs   :   64
   #pairs with 16 - 20 PNOs   :  228
   #pairs with 21 - 25 PNOs   :  154
   #pairs with 26 - 30 PNOs   :  142
   #pairs with 31 - 35 PNOs   :   62
   #pairs with 36 - 40 PNOs   :   54
   #pairs with 41 - 45 PNOs   :   50
   #pairs with 46 - 50 PNOs   :   22
   #pairs with 51 - 55 PNOs   :   32
   #pairs with 56 - 60 PNOs   :   59
   #pairs with 61 - 65 PNOs   :   71
   #pairs with 66 - 70 PNOs   :    2
   #pairs with 71 - 75 PNOs   :    1
   #pairs with 81 - 85 PNOs   :    2
>> Statistics for ip-pairs..
   #pairs with  1 -  5 PNOs   :    0
   #pairs with  6 - 10 PNOs   :    2
   #pairs with 11 - 15 PNOs   :   17
   #pairs with 16 - 20 PNOs   :    4
   #pairs with 21 - 25 PNOs   :   28
   #pairs with 26 - 30 PNOs   :   10
   #pairs with 31 - 35 PNOs   :   45
   #pairs with 36 - 40 PNOs   :   13
   #pairs with 41 - 45 PNOs   :    0
   #pairs with 46 - 50 PNOs   :    0
>> Statistics for pq-pairs..
   #pairs with  1 -  5 PNOs   :    0
   #pairs with  6 - 10 PNOs   :    0
   #pairs with 11 - 15 PNOs   :    0
   #pairs with 16 - 20 PNOs   :    0
   #pairs with 21 - 25 PNOs   :   10
   #pairs with 26 - 30 PNOs   :   10
   #pairs with 31 - 35 PNOs   :    0
   #pairs with 36 - 40 PNOs   :    0
   #pairs with 41 - 45 PNOs   :    0
   #pairs with 46 - 50 PNOs   :    0
   #pairs with 81 - 85 PNOs   :    5

Generation of (ij|ab)[P] integrals            ... on
Generation of (ia|bc)[P],(ja|bc)[P] integrals ... on
Storage of 3 and 4 external integrals         ... on
Generation of ALL (ka|bc)[P] integrals        ... on
Keep RI integrals in memory                   ... off

Ibatch:  1 (of  1)
Starting 2-4 index PNO integral generation ... done

Timings:
Total PNO integral transformation time     ...       2191.385 sec
Size of the 3-external file                ...       283 MB
Size of the 4-external file                ...      1918 MB
Size of the IKJL file                      ...        18 MB
Size of the all 3-external file            ...      6793 MB
Size of the 1-external file                ...        21 MB

Size of the PAO/PNO coefficient matrices   ...     218.5 MB

Making pair/pair overlap matrices          ... done (  347.247 sec)
Size of the pair overlap file              ...    2384.0 MB
Total # unrestricted pairs ...       2091
  # of alpha-alpha pairs   ...        579
  # of alpha-beta pairs    ...       1062
  # of beta-beta pairs     ...        450
Constructing the guess amplitudes          ... done (    0.551 sec)

-------------------------
FINAL STARTUP INFORMATION
-------------------------

E(0)                                       ...  -3028.445193639
E(SL-UMP2 in NEV-PNO space)                ...     -2.684930960
Initial E(tot)                             ...  -3031.130124599
<T|T>                                      ...      0.533188482
Number of unrestricted pairs included      ... 2091
Total number of pairs                      ... 4095
----------------------------------------------------------
                     OPEN-SHELL COUPLED CLUSTER ITERATIONS
----------------------------------------------------------

Number of PNO amplitudes to be optimized        ...          2076340
Number of canonical amplitudes for strong pairs ...       1888587677
Untruncated number of canonical amplitudes      ...       3698645738

Iter       E(tot)           E(Corr)          Delta-E          Residual     Time
  0  -3031.137335059     -2.655694192      0.029236768      0.020936256 1935.02
                           *** Turning on DIIS ***
  1  -3031.251726083     -2.770085216     -0.114391024      0.009990954 1946.79
  2  -3031.316416408     -2.834775541     -0.064690325      0.008358421 1932.59
  3  -3031.338082622     -2.856441755     -0.021666214      0.003182650 1935.25
  4  -3031.345534268     -2.863893401     -0.007451646      0.002625962 1920.74
  5  -3031.349593191     -2.867952325     -0.004058923      0.001523970 1916.42
  6  -3031.351093730     -2.869452863     -0.001500539      0.000752223 1948.27
  7  -3031.351731466     -2.870090599     -0.000637736      0.000502475 1986.02
  8  -3031.351870248     -2.870229381     -0.000138782      0.000220119 1934.36
  9  -3031.351929157     -2.870288290     -0.000058909      0.000123697 1908.61
 10  -3031.351927224     -2.870286357      0.000001933      0.000097945 1895.29
 11  -3031.351940002     -2.870299135     -0.000012778      0.000054976 1902.54
 12  -3031.351944943     -2.870304077     -0.000004942      0.000031833 1763.04
 13  -3031.351947318     -2.870306451     -0.000002374      0.000015401 1635.84
 14  -3031.351948986     -2.870308120     -0.000001669      0.000007241 1637.54
               --- The CCSD iterations have converged ---

E(0)                                       ...  -3028.445193639
E(CORR)(strong-pairs)                      ...     -2.870308120
E(CORR)(weak-pairs)                        ...     -0.036447227
E(CORR)(corrected)                         ...     -2.906755347
E(TOT)                                     ...  -3031.351948986
Singles norm <S|S>**1/2                    ...      0.193867842 ( 0.064589742, 0.129278100)  
T1 diagnostic                              ...      0.020322872                              
<S**2>(linearized)                         ...      8.7508240 (ideal value:      8.7500000)

----------------------
LARGEST PNO AMPLITUDES
----------------------
  70a-> 78a  70b-> 78b       0.062583
  51b-> 76b  -1b-> -1b       0.054314
  50b-> 76b  -1b-> -1b       0.054076
  48b-> 72b  -1b-> -1b       0.053209
  48b-> 74b  -1b-> -1b       0.046381
  48b-> 75b  -1b-> -1b       0.046360
  55a-> 77a  55b-> 77b       0.044865
  54a-> 77a  54b-> 77b       0.044813
  69a-> 77a  69b-> 77b       0.044412
  42b-> 73b  -1b-> -1b       0.044261
  39b-> 73b  -1b-> -1b       0.044135
  63a-> 77a  63b-> 77b       0.043371
  46a-> 78a  46b-> 78b       0.043089
  61a-> 77a  61b-> 77b       0.043014
  68a-> 77a  68b-> 77b       0.042506
  65a-> 77a  65b-> 77b       0.042168

Total # unrestricted pairs ...       1256
  # of alpha-alpha pairs   ...        346
  # of alpha-beta pairs    ...        628
  # of beta-beta pairs     ...        282

-------------------------------------------
DLPNO BASED TRIPLES CORRECTION
-------------------------------------------

Singles multiplier          ...  1.000000
Fragment selection                          .... not used
TCutTNO                     ... 1.000e-09
TCutMP2Pairs                ... 1.000e-05
TCutDOStrong                ... 2.000e-02
TCutMKNStrong               ... 1.000e-02
TCutDOWeak                  ... 4.000e-02
TCutMKNWeak                 ... 1.000e-01
NTCutTNO                    ... 1

Number of Triples that are to be computed         ...     33836

 . . . . . . . . .
10% done  
20% done  
30% done  
40% done  
50% done  
60% done  
70% done  
80% done  
90% done  
          Batch   1   done (  14644.902 sec)

Triples-Correction TCutTNO=   1.000e-09 (NWeakPairs = 0  1  2  3)  -0.116774211974   -0.001927049292    0.000000000000    0.000000000000
Triples-Correction  -0.118701261266

Triples timings:
Total time                      ... 15244.800 sec

Triples List generation         ...     0.000 sec
TNO generation                  ...   599.662 sec
Pair density generation         ...     0.085 sec
Look up tables                  ...     0.110 sec
Generating 3-index integrals    ...  9031.071 sec
Make 4-ind.int. from 3-ind.int  ...     3.458 sec
Projecting amplitudes (D + S)   ...  5361.604 sec
Sorting integrals for spin cases...    51.511 sec
Calculate W0/W1                 ...   159.366 sec
Energy contr. (sum over a,b,c)  ...    37.749 sec

Everything after 3-index        ...  5740.089 sec

Energy contribution AAA         ...    24.339 sec
Energy contribution AAB         ...   110.307 sec
Energy contribution ABB         ...   100.472 sec
Energy contribution BBB         ...    13.555 sec
prep                ...     3.084 sec
makeTTNO            ...  5307.280 sec
copyij              ...     0.122 sec
copyil              ...     3.969 sec
transposeij         ...     0.074 sec
newMatInDoubleProj  ...    50.393 sec
BlasInDoubleProj    ...  2881.490 sec
ProjSingles         ...    44.714 sec
ProjDoubles         ...  5316.890 sec
overall Doubles for projection      ... 3092333
used Doubles for projection         ... 3092333


Number of Triples   (0, 1, 2, 3 weak pairs; overall):  15654   12383       0       0  ( 28037)
Number of Atoms     (0, 1, 2, 3 weak pairs; overall):   19.3    14.2     0.0     0.0  (    29)
Number of PAOs      (0, 1, 2, 3 weak pairs; overall):  754.4   576.3     0.0     0.0  (  1025)
Number of AuxFcns   (0, 1, 2, 3 weak pairs; overall):  898.4   585.9     0.0     0.0  (  2424)
Number of TNOs (0, 1, 2, 3 weak pairs         ):   78.7    55.7     0.0     0.0
Aver. Number of NTNO, Atoms, PAOs, AuxFcns / Triples:  28037    68.6    17.1   675.7   760.3

Triples Correction (T)                     ...     -0.118701261
    alpha-alpha-alpha ... -0.003837891 (  3.2%)
    alpha-alpha-beta  ... -0.055724713 ( 46.9%)
    alpha-beta -beta  ... -0.055049365 ( 46.4%)
    beta -beta -beta  ... -0.004089293 (  3.4%)
Final correlation energy                   ...     -3.025456608
E(CCSD)                                    ...  -3031.351948986
E(CCSD(T))                                 ...  -3031.470650248

----------------------------
STATISTICS FOR PAIR-ENERGIES
----------------------------
Minimum, maximum and average ratios of UMP and CCSD pair-energies ... 0.34, 1.45, 1.02


------------------------------------------------------------------------------- 
                                     TIMINGS                                   
------------------------------------------------------------------------------- 


Total execution time                   ...    51595.570 sec

Localization of occupied MO's          ...       10.258 sec (  0.0%)
Fock Matrix Formation                  ...     1468.034 sec (  2.8%)
Differential overlap integrals         ...        1.482 sec (  0.0%)
Organizing maps                        ...        1.699 sec (  0.0%)
RI 3-index integral generations        ...      278.918 sec (  0.5%)
RI-PNO integral transformation         ...     4832.905 sec (  9.4%)
Initial Guess                          ...     1836.634 sec (  3.6%)
DIIS Solver                            ...       15.317 sec (  0.0%)
State Vector Update                    ...        0.750 sec (  0.0%)
Sigma-vector construction              ...    28198.325 sec ( 54.7%)
  <0|H|D>                              ...        0.030 sec (  0.0% of sigma)
  <D|H|D>(0-ext)                       ...     5471.455 sec ( 19.4% of sigma)
  <D|H|D>(2-ext Fock)                  ...        1.246 sec (  0.0% of sigma)
  <D|H|D>(2-ext)                       ...     3808.945 sec ( 13.5% of sigma)
  <D|H|D>(4-ext)                       ...      177.948 sec (  0.6% of sigma)
  <D|H|D>(4-ext-corr)                  ...     1081.088 sec (  3.8% of sigma)
  CCSD doubles correction              ...      513.139 sec (  1.8% of sigma)
  <S|H|S>                              ...      681.311 sec (  2.4% of sigma)
  <S|H|D>(1-ext)                       ...      271.402 sec (  1.0% of sigma)
  <D|H|S>(1-ext)                       ...        0.706 sec (  0.0% of sigma)
  <S|H|D>(3-ext)                       ...       22.631 sec (  0.1% of sigma)
  CCSD singles correction              ...        0.005 sec (  0.0% of sigma)
  Fock-dressing                        ...     8007.587 sec ( 28.4% of sigma)
  Singles amplitudes                   ...      114.039 sec (  0.4% of sigma)
  (ik|jl)-dressing                     ...     6411.169 sec ( 22.7% of sigma)
  (ij|ab),(ia|jb)-dressing             ...     1420.056 sec (  5.0% of sigma)
  Pair energies                        ...        0.141 sec (  0.0% of sigma)
Total Time for computing (T)           ...    15300.685 sec ( 29.7% of ALL)


-------------------------   --------------------
FINAL SINGLE POINT ENERGY     -3031.470650247523
-------------------------   --------------------


                            ***************************************
                            *     ORCA property calculations      *
                            ***************************************

                                    ---------------------
                                    Active property flags
                                    ---------------------
   (+) Dipole Moment


------------------------------------------------------------------------------
                       ORCA ELECTRIC PROPERTIES CALCULATION
------------------------------------------------------------------------------

Dipole Moment Calculation                       ... on
Quadrupole Moment Calculation                   ... off
Polarizability Calculation                      ... off
GBWName                                         ... simple-grid-245-245-b3lyp_d3bj-631gd-gas-singlepoint-DLPNO_CCSD_T1-NormalPNO-augtz-gas.gbw
Electron density file                           ... simple-grid-245-245-b3lyp_d3bj-631gd-gas-singlepoint-DLPNO_CCSD_T1-NormalPNO-augtz-gas.scfp.tmp
The origin for moment calculation is the CENTER OF MASS  = ( 0.314300,  0.023989  0.018913)

-------------
DIPOLE MOMENT
-------------
                                X             Y             Z
Electronic contribution:     43.19562       2.59922       2.22982
Nuclear contribution   :    -46.83075      -3.57436      -2.81807
                        -----------------------------------------
Total Dipole Moment    :     -3.63513      -0.97514      -0.58825
                        -----------------------------------------
Magnitude (a.u.)       :      3.80934
Magnitude (Debye)      :      9.68258



--------------------
Rotational spectrum 
--------------------
 
Rotational constants in cm-1:     0.019327     0.010934     0.010303 
Rotational constants in MHz :   579.405753   327.794119   308.873140 

 Dipole components along the rotational axes: 
x,y,z [a.u.] :     3.630136    -0.991486    -0.591751 
x,y,z [Debye]:     9.227072    -2.520157    -1.504110 

 

Timings for individual modules:

Sum of individual times         ...    68230.234 sec (=1137.171 min)
GTO integral calculation        ...       11.776 sec (=   0.196 min)   0.0 %
SCF iterations                  ...    16606.794 sec (= 276.780 min)  24.3 %
MDCI module                     ...    51611.664 sec (= 860.194 min)  75.6 %
                             ****ORCA TERMINATED NORMALLY****
TOTAL RUN TIME: 0 days 18 hours 57 minutes 12 seconds 680 msec
