
                                 *****************
                                 * O   R   C   A *
                                 *****************

           --- An Ab Initio, DFT and Semiempirical electronic structure package ---

                  #######################################################
                  #                        -***-                        #
                  #          Department of theory and spectroscopy      #
                  #               Directorship: Frank Neese             #
                  #        Max Planck Institute fuer Kohlenforschung    #
                  #                Kaiser Wilhelm Platz 1               #
                  #                 D-45470 Muelheim/Ruhr               #
                  #                      Germany                        #
                  #                                                     #
                  #                  All rights reserved                #
                  #                        -***-                        #
                  #######################################################


                         Program Version 4.1.2  - RELEASE  -


 With contributions from (in alphabetic order):
   Daniel Aravena         : Magnetic Properties
   Michael Atanasov       : Ab Initio Ligand Field Theory
   Alexander A. Auer      : GIAO ZORA
   Ute Becker             : Parallelization
   Giovanni Bistoni       : ED, Open-shell LED
   Martin Brehm           : Molecular dynamics
   Dmytro Bykov           : SCF Hessian
   Vijay G. Chilkuri      : MRCI spin determinant printing
   Dipayan Datta          : RHF DLPNO-CCSD density
   Achintya Kumar Dutta   : EOM-CC, STEOM-CC
   Dmitry Ganyushin       : Spin-Orbit,Spin-Spin,Magnetic field MRCI
   Miquel Garcia          : C-PCM Hessian
   Yang Guo               : DLPNO-NEVPT2, CIM, IAO-localization
   Andreas Hansen         : Spin unrestricted coupled pair/coupled cluster methods
   Benjamin Helmich-Paris : CASSCF linear response (MC-RPA)
   Lee Huntington         : MR-EOM, pCC
   Robert Izsak           : Overlap fitted RIJCOSX, COSX-SCS-MP3, EOM
   Christian Kollmar      : KDIIS, OOCD, Brueckner-CCSD(T), CCSD density
   Simone Kossmann        : Meta GGA functionals, TD-DFT gradient, OOMP2, MP2 Hessian
   Martin Krupicka        : AUTO-CI
   Lucas Lang             : DCDCAS
   Dagmar Lenk            : GEPOL surface, SMD
   Dimitrios Liakos       : Extrapolation schemes; parallel MDCI
   Dimitrios Manganas     : ROCIS; embedding schemes
   Dimitrios Pantazis     : SARC Basis sets
   Taras Petrenko         : DFT Hessian,TD-DFT gradient, ASA, ECA, R-Raman, ABS, FL, XAS/XES, NRVS
   Peter Pinski           : DLPNO-MP2, DLPNO-MP2 Gradient
   Christoph Reimann      : Effective Core Potentials
   Marius Retegan         : Local ZFS, SOC
   Christoph Riplinger    : Optimizer, TS searches, QM/MM, DLPNO-CCSD(T), (RO)-DLPNO pert. Triples
   Tobias Risthaus        : Range-separated hybrids, TD-DFT gradient, RPA, STAB
   Michael Roemelt        : Restricted open shell CIS
   Masaaki Saitow         : Open-shell DLPNO
   Barbara Sandhoefer     : DKH picture change effects
   Avijit Sen             : IP-ROCIS
   Kantharuban Sivalingam : CASSCF convergence, NEVPT2, FIC-MRCI
   Bernardo de Souza      : ESD, SOC TD-DFT
   Georgi Stoychev        : AutoAux, RI-MP2 NMR
   Willem Van den Heuvel  : Paramagnetic NMR
   Boris Wezisla          : Elementary symmetry handling
   Frank Wennmohs         : Technical directorship


 We gratefully acknowledge several colleagues who have allowed us to
 interface, adapt or use parts of their codes:
   Stefan Grimme, W. Hujo, H. Kruse,             : VdW corrections, initial TS optimization,
                  C. Bannwarth                     DFT functionals, gCP, sTDA/sTD-DF
   Ed Valeev                                     : LibInt (2-el integral package), F12 methods
   Garnet Chan, S. Sharma, J. Yang, R. Olivares  : DMRG
   Ulf Ekstrom                                   : XCFun DFT Library
   Mihaly Kallay                                 : mrcc  (arbitrary order and MRCC methods)
   Andreas Klamt, Michael Diedenhofen            : otool_cosmo (COSMO solvation model)
   Jiri Pittner, Ondrej Demel                    : Mk-CCSD
   Frank Weinhold                                : gennbo (NPA and NBO analysis)
   Christopher J. Cramer and Donald G. Truhlar   : smd solvation model
   Lars Goerigk                                  : TD-DFT with DH, B97 family of functionals
   V. Asgeirsson, H. Jonsson                     : NEB implementation
   FAccTs GmbH                                   : IRC, NEB, NEB-TS, Multilevel


 Your calculation uses the libint2 library for the computation of 2-el integrals
 For citations please refer to: http://libint.valeyev.net

 This ORCA versions uses:
   CBLAS   interface :  Fast vector & matrix operations
   LAPACKE interface :  Fast linear algebra routines
   SCALAPACK package :  Parallel linear algebra routines


----- Orbital basis set information -----
Your calculation utilizes the basis: aug-cc-pVTZ 
    H, B-Ne : Obtained from the ccRepo (grant-hill.group.shef.ac.uk/ccrepo) Feb. 2017
              R. A. Kendall, T. H. Dunning, Jr., R. J. Harrison, J. Chem. Phys. 96, 6796 (1992)
         He : Obtained from the ccRepo (grant-hill.group.shef.ac.uk/ccrepo) Feb. 2017
              D. E. Woon, T. H. Dunning, Jr., J. Chem. Phys. 100, 2975 (1994)
  Li-Be, Na : Obtained from the ccRepo (grant-hill.group.shef.ac.uk/ccrepo) Feb. 2017
              B. P. Prascher, D. E. Woon, K. A. Peterson, T. H. Dunning, Jr., A. K. Wilson, Theor. Chem. Acc. 128, 69 (2011)
         Mg : Obtained from the Peterson Research Group Website (tyr0.chem.wsu.edu/~kipeters) Feb. 2017
              B. P. Prascher, D. E. Woon, K. A. Peterson, T. H. Dunning, Jr., A. K. Wilson, Theor. Chem. Acc. 128, 69 (2011)
      Al-Ar : Obtained from the ccRepo (grant-hill.group.shef.ac.uk/ccrepo) Feb. 2017
              D. E. Woon, T. H. Dunning, Jr., J. Chem. Phys. 98, 1358 (1993)
      Sc-Zn : Obtained from the ccRepo (grant-hill.group.shef.ac.uk/ccrepo) Feb. 2017
              N. B. Balabanov, K. A. Peterson, J. Chem. Phys. 123, 064107 (2005)
              N. B. Balabanov, K. A. Peterson, J. Chem. Phys. 125, 074110 (2006)
      Ga-Kr : Obtained from the ccRepo (grant-hill.group.shef.ac.uk/ccrepo) Feb. 2017
              A. K. Wilson, D. E. Woon, K. A. Peterson, T. H. Dunning, Jr., J. Chem. Phys. 110, 7667 (1999)
     Ag, Au : Obtained from the Peterson Research Group Website (tyr0.chem.wsu.edu/~kipeters) Feb. 2017
              K. A. Peterson, C. Puzzarini, Theor. Chem. Acc. 114, 283 (2005)

----- AuxJ basis set information -----
Your calculation utilizes the AutoAux generation procedure.
  G. L. Stoychev, A. A. Auer, F. Neese, J. Chem. Theory Comput. 13, 554 (2017)

----- AuxC basis set information -----
Your calculation utilizes the auxiliary basis: aug-cc-pVTZ/C 
  H-He, B-F, Al-Ar, Ga-Kr : Obtained from the EMSL Basis Set Exchange (bse.pnl.gov) Feb. 2017
                            F. Weigend, A. Kohn, C. Hattig, J. Chem. Phys. 116, 3175 (2002)
                   Be, Mg : Obtained from the TURBOMOLE 7.0 basis set library
                            C. Haettig, Phys. Chem. Chem. Phys. 7, 59 (2005)
                       Ne : Obtained from the EMSL Basis Set Exchange (bse.pnl.gov) Feb. 2017
                            C. Haettig, Phys. Chem. Chem. Phys. 7, 59 (2005)
                            F. Weigend, A. Kohn, C. Hattig, J. Chem. Phys. 116, 3175 (2002)
                    Sc-Zn : Obtained from the EMSL Basis Set Exchange (bse.pnl.gov) Feb. 2017
                            J. G. Hill, J. A. Platts, J. Chem. Phys. 128, 044104 (2008)

----- AuxJK basis set information -----
Your calculation utilizes the AutoAux generation procedure.
  G. L. Stoychev, A. A. Auer, F. Neese, J. Chem. Theory Comput. 13, 554 (2017)

================================================================================
                                        WARNINGS
                       Please study these warnings very carefully!
================================================================================


WARNING: your system is open-shell and RHF/RKS was chosen
  ===> : WILL SWITCH to UHF/UKS


WARNING: MDCI localization with Augmented Hessian Foster-Boys
  ===> : Switching off randomization!

WARNING: Post HF methods need fully converged wavefunctions
  ===> : Setting SCFConvForced true
         You can overwrite this default with %scf ConvForced false 


INFO   : the flag for use of LIBINT has been found!

================================================================================
                                       INPUT FILE
================================================================================
NAME = simple-grid-295-290-b3lyp_d3bj-631gd-gas-singlepoint-DLPNO_CCSD_T1-NormalPNO-augtz-gas.inp
|  1> ! aug-cc-pVTZ aug-cc-pVTZ/C DLPNO-CCSD(T1) TightSCF NormalPNO UNO MiniPrint AutoAux
|  2> %pal nproc 10 end
|  3> %maxcore 20000
|  4> %mdci
|  5>      density none
|  6> end
|  7> 
|  8> * xyz 0 6
|  9>  O      0.18021700      0.45597800     -0.86777700
| 10>  C      0.90224600      1.44844400     -0.63912900
| 11>  C      3.19069800      0.00705800      0.53895900
| 12>  C      2.65369300     -0.93165400     -0.26243800
| 13>  C      3.05385400     -1.04493600     -1.71046700
| 14> Fe     -1.48070400     -0.17798300      0.02479000
| 15> Cl     -2.06817600     -1.94484000     -1.09188000
| 16>  C      1.70325500     -2.00134400      0.19579600
| 17> Cl     -2.74668000      1.58457700     -0.25765900
| 18> Cl     -1.03949600     -0.53329700      2.14136600
| 19>  H      3.92512700      0.68118900      0.09485600
| 20>  H      2.19945400     -2.98033600      0.14740800
| 21>  H      1.33830600     -1.86015700      1.21288700
| 22>  H      0.83839000     -2.06824700     -0.47522200
| 23>  H      3.52683400     -2.01795200     -1.89817500
| 24>  H      2.17287200     -1.00087500     -2.36411900
| 25>  H      3.76014900     -0.26514600     -2.01135300
| 26>  C      2.99488800      0.16237800      2.02171600
| 27>  H      3.84014500     -0.27612000      2.56999200
| 28>  H      2.95495400      1.21940500      2.30950600
| 29>  H      2.08247900     -0.31813700      2.38350400
| 30>  C      0.77354200      2.23017600      0.62842100
| 31>  H      1.64369200      2.86365300      0.80639000
| 32>  H     -0.11307500      2.87179500      0.51656100
| 33>  H      0.59230300      1.57410800      1.48118400
| 34>  C      1.73627000      2.00301500     -1.74988100
| 35>  H      1.22999400      2.91273500     -2.10436700
| 36>  H      2.72576900      2.29746100     -1.39419000
| 37>  H      1.81245200      1.29804200     -2.57608600
| 38> *
| 39> 
| 40> 
| 41>                          ****END OF INPUT****
================================================================================

                       ****************************
                       * Single Point Calculation *
                       ****************************

---------------------------------
CARTESIAN COORDINATES (ANGSTROEM)
---------------------------------
  O      0.180217    0.455978   -0.867777
  C      0.902246    1.448444   -0.639129
  C      3.190698    0.007058    0.538959
  C      2.653693   -0.931654   -0.262438
  C      3.053854   -1.044936   -1.710467
  Fe    -1.480704   -0.177983    0.024790
  Cl    -2.068176   -1.944840   -1.091880
  C      1.703255   -2.001344    0.195796
  Cl    -2.746680    1.584577   -0.257659
  Cl    -1.039496   -0.533297    2.141366
  H      3.925127    0.681189    0.094856
  H      2.199454   -2.980336    0.147408
  H      1.338306   -1.860157    1.212887
  H      0.838390   -2.068247   -0.475222
  H      3.526834   -2.017952   -1.898175
  H      2.172872   -1.000875   -2.364119
  H      3.760149   -0.265146   -2.011353
  C      2.994888    0.162378    2.021716
  H      3.840145   -0.276120    2.569992
  H      2.954954    1.219405    2.309506
  H      2.082479   -0.318137    2.383504
  C      0.773542    2.230176    0.628421
  H      1.643692    2.863653    0.806390
  H     -0.113075    2.871795    0.516561
  H      0.592303    1.574108    1.481184
  C      1.736270    2.003015   -1.749881
  H      1.229994    2.912735   -2.104367
  H      2.725769    2.297461   -1.394190
  H      1.812452    1.298042   -2.576086

----------------------------
CARTESIAN COORDINATES (A.U.)
----------------------------
  NO LB      ZA    FRAG     MASS         X           Y           Z
   0 O     8.0000    0    15.999    0.340561    0.861674   -1.639861
   1 C     6.0000    0    12.011    1.704998    2.737162   -1.207779
   2 C     6.0000    0    12.011    6.029545    0.013338    1.018485
   3 C     6.0000    0    12.011    5.014753   -1.760571   -0.495936
   4 C     6.0000    0    12.011    5.770948   -1.974643   -3.232314
   5 Fe   26.0000    0    55.850   -2.798125   -0.336339    0.046846
   6 Cl   17.0000    0    35.453   -3.908286   -3.675215   -2.063354
   7 C     6.0000    0    12.011    3.218685   -3.781992    0.370001
   8 Cl   17.0000    0    35.453   -5.190473    2.994417   -0.486905
   9 Cl   17.0000    0    35.453   -1.964363   -1.007785    4.046595
  10 H     1.0000    0     1.008    7.417415    1.287261    0.179252
  11 H     1.0000    0     1.008    4.156366   -5.632019    0.278561
  12 H     1.0000    0     1.008    2.529032   -3.515187    2.292024
  13 H     1.0000    0     1.008    1.584327   -3.908420   -0.898039
  14 H     1.0000    0     1.008    6.664750   -3.813377   -3.587031
  15 H     1.0000    0     1.008    4.106133   -1.891380   -4.467537
  16 H     1.0000    0     1.008    7.105652   -0.501053   -3.800906
  17 C     6.0000    0    12.011    5.659518    0.306850    3.820490
  18 H     1.0000    0     1.008    7.256822   -0.521791    4.856581
  19 H     1.0000    0     1.008    5.584054    2.304341    4.364334
  20 H     1.0000    0     1.008    3.935315   -0.601192    4.504170
  21 C     6.0000    0    12.011    1.461783    4.214422    1.187544
  22 H     1.0000    0     1.008    3.106128    5.411520    1.523856
  23 H     1.0000    0     1.008   -0.213681    5.426906    0.976159
  24 H     1.0000    0     1.008    1.119290    2.974633    2.799032
  25 C     6.0000    0    12.011    3.281075    3.785150   -3.306796
  26 H     1.0000    0     1.008    2.324352    5.504271   -3.976677
  27 H     1.0000    0     1.008    5.150957    4.341572   -2.634637
  28 H     1.0000    0     1.008    3.425038    2.452944   -4.868097



           ************************************************************
           *        Program running with 10 parallel MPI-processes    *
           *              working on a common directory               *
           ************************************************************


           ************************************************************
           *        Program running with 10 parallel MPI-processes    *
           *              working on a common directory               *
           ************************************************************

Diagonalization of the overlap matrix:
Smallest eigenvalue                        ... 8.939e-07
Time for diagonalization                   ...    0.331 sec
Threshold for overlap eigenvalues          ... 1.000e-08
Number of eigenvalues below threshold      ... 0
Time for construction of square roots      ...    0.275 sec
Total time needed                          ...    0.611 sec

-------------------
DFT GRID GENERATION
-------------------

General Integration Accuracy     IntAcc      ...  4.340
Radial Grid Type                 RadialGrid  ... Gauss-Chebyshev
Angular Grid (max. acc.)         AngularGrid ... Lebedev-110
Angular grid pruning method      GridPruning ... 3 (G Style)
Weight generation scheme         WeightScheme... Becke
Basis function cutoff            BFCut       ...    1.0000e-11
Integration weight cutoff        WCut        ...    1.0000e-14
Grids for H and He will be reduced by one unit

# of grid points (after initial pruning)     ...  36112 (   0.0 sec)
# of grid points (after weights+screening)   ...  32469 (   0.1 sec)
nearest neighbour list constructed           ...    0.0 sec
Grid point re-assignment to atoms done       ...    0.0 sec
Grid point division into batches done        ...    0.0 sec
Reduced shell lists constructed in    0.2 sec

Total number of grid points                  ...    32469
Total number of batches                      ...      522
Average number of points per batch           ...       62
Average number of grid points per atom       ...     1120
Average number of shells per batch           ...   284.24 (82.87%)
Average number of basis functions per batch  ...   841.65 (82.11%)
Average number of large shells per batch     ...   228.70 (80.46%)
Average number of large basis fcns per batch ...   677.96 (80.55%)
Maximum spatial batch extension              ...   3.66,  5.29,  5.08 au
Average spatial batch extension              ...   0.19,  0.19,  0.19 au

Time for grid setup =    0.412 sec

Loading Hartree-Fock densities                     ... done
Calculating cut-offs                               ... done
Setting up the integral package                    ... done
Initializing the effective Hamiltonian             ... done
Starting the Coulomb interaction                   ... done (   1.1 sec)
Reading the grid                                   ... done
Mapping shells                                     ... done
Starting the XC term evaluation                    ... done (   0.7 sec)
Transforming the Hamiltonian                       ... done (   0.2 sec)
Diagonalizing the Hamiltonian                      ... done (   0.3 sec)
Back transforming the eigenvectors                 ... done (   0.1 sec)
Now organizing SCF variables                       ... done
--------------
SCF ITERATIONS
--------------
ITER       Energy         Delta-E        Max-DP      RMS-DP      [F,P]     Damp
               ***  Starting incremental Fock matrix formation  ***
  0  -3027.6017615776   0.000000000000 0.13733394  0.00080893  0.2391847 0.7000
  1  -3027.8568405192  -0.255078941558 0.10449782  0.00064275  0.1562972 0.7000
                               ***Turning on DIIS***
  2  -3028.0273188322  -0.170478313054 0.07614355  0.00047827  0.1094937 0.7000
  3  -3029.6095071052  -1.582188273020 0.23729911  0.00123058  0.0816625 0.0000
  4  -3028.3197236070   1.289783498245 0.04046687  0.00021274  0.0194371 0.0000
  5  -3028.4444701139  -0.124746506964 0.03915056  0.00016701  0.0111000 0.0000
  6  -3028.4925092899  -0.048039175998 0.01957008  0.00006888  0.0053140 0.0000
  7  -3028.5061481575  -0.013638867522 0.00859654  0.00003159  0.0029712 0.0000
  8  -3028.4951356048   0.011012552655 0.00643200  0.00001827  0.0015888 0.0000
  9  -3028.4912738519   0.003861752883 0.00225616  0.00001035  0.0006780 0.0000
 10  -3028.4787272601   0.012546591872 0.00094993  0.00000331  0.0004190 0.0000
 11  -3028.4844750582  -0.005747798165 0.00027535  0.00000165  0.0000923 0.0000
 12  -3028.4824095410   0.002065517222 0.00020560  0.00000126  0.0000215 0.0000
 13  -3028.4823384590   0.000071081967 0.00024802  0.00000142  0.0000095 0.0000
 14  -3028.4823459364  -0.000007477405 0.00032896  0.00000144  0.0000063 0.0000
 15  -3028.4823057359   0.000040200567 0.00022369  0.00000137  0.0000041 0.0000
 16  -3028.4823059364  -0.000000200575 0.00029110  0.00000163  0.0000035 0.0000
 17  -3028.4823212599  -0.000015323445 0.00025756  0.00000158  0.0000023 0.0000
 18  -3028.4823033195   0.000017940376 0.00047415  0.00000236  0.0000017 0.0000
                            ***DIIS convergence achieved***

               *****************************************************
               *                     SUCCESS                       *
               *           SCF CONVERGED AFTER  19 CYCLES          *
               *****************************************************

Total Energy       :        -3028.48230838 Eh          -82409.19321 eV
  Last Energy change         ...   -5.0615e-06  Tolerance :   1.0000e-08
  Last MAX-Density change    ...    4.5515e-04  Tolerance :   1.0000e-07
             **** THE GBW FILE WAS UPDATED (simple-grid-295-290-b3lyp_d3bj-631gd-gas-singlepoint-DLPNO_CCSD_T1-NormalPNO-augtz-gas.gbw) ****
             **** DENSITY FILE WAS UPDATED (simple-grid-295-290-b3lyp_d3bj-631gd-gas-singlepoint-DLPNO_CCSD_T1-NormalPNO-augtz-gas.scfp.tmp) ****
             **** ENERGY FILE WAS UPDATED (simple-grid-295-290-b3lyp_d3bj-631gd-gas-singlepoint-DLPNO_CCSD_T1-NormalPNO-augtz-gas.en.tmp) ****
----------------------
UHF SPIN CONTAMINATION
----------------------

Expectation value of <S**2>     :     8.765142
Ideal value S*(S+1) for S=2.5   :     8.750000
Deviation                       :     0.015142

----------------
ORBITAL ENERGIES
----------------
                 SPIN UP ORBITALS
  NO   OCC          E(Eh)            E(eV) 
   0   1.0000    -261.579603     -7117.9429 
   1   1.0000    -104.796208     -2851.6498 
   2   1.0000    -104.793273     -2851.5699 
   3   1.0000    -104.791377     -2851.5183 
   4   1.0000     -32.247243      -877.4921 
   5   1.0000     -27.723805      -754.4031 
   6   1.0000     -27.722537      -754.3686 
   7   1.0000     -27.722344      -754.3633 
   8   1.0000     -20.629034      -561.3445 
   9   1.0000     -11.422453      -310.8208 
  10   1.0000     -11.280196      -306.9497 
  11   1.0000     -11.274180      -306.7860 
  12   1.0000     -11.256809      -306.3134 
  13   1.0000     -11.238627      -305.8186 
  14   1.0000     -11.237483      -305.7875 
  15   1.0000     -11.233925      -305.6906 
  16   1.0000     -11.224918      -305.4456 
  17   1.0000     -10.522949      -286.3440 
  18   1.0000     -10.519983      -286.2633 
  19   1.0000     -10.518034      -286.2103 
  20   1.0000      -7.989767      -217.4126 
  21   1.0000      -7.989042      -217.3929 
  22   1.0000      -7.988980      -217.3912 
  23   1.0000      -7.986878      -217.3340 
  24   1.0000      -7.986074      -217.3121 
  25   1.0000      -7.986021      -217.3107 
  26   1.0000      -7.984812      -217.2778 
  27   1.0000      -7.984165      -217.2602 
  28   1.0000      -7.984125      -217.2591 
  29   1.0000      -4.601971      -125.2260 
  30   1.0000      -3.215147       -87.4886 
  31   1.0000      -3.213286       -87.4379 
  32   1.0000      -3.213183       -87.4351 
  33   1.0000      -1.472648       -40.0728 
  34   1.0000      -1.117905       -30.4197 
  35   1.0000      -1.104169       -30.0460 
  36   1.0000      -1.069852       -29.1121 
  37   1.0000      -1.064035       -28.9539 
  38   1.0000      -1.061346       -28.8807 
  39   1.0000      -1.020767       -27.7765 
  40   1.0000      -1.008353       -27.4387 
  41   1.0000      -0.952824       -25.9277 
  42   1.0000      -0.945449       -25.7270 
  43   1.0000      -0.930794       -25.3282 
  44   1.0000      -0.930649       -25.3242 
  45   1.0000      -0.919654       -25.0251 
  46   1.0000      -0.919038       -25.0083 
  47   1.0000      -0.890343       -24.2275 
  48   1.0000      -0.818183       -22.2639 
  49   1.0000      -0.722906       -19.6713 
  50   1.0000      -0.716976       -19.5099 
  51   1.0000      -0.706949       -19.2371 
  52   1.0000      -0.684950       -18.6384 
  53   1.0000      -0.648828       -17.6555 
  54   1.0000      -0.621678       -16.9167 
  55   1.0000      -0.615525       -16.7493 
  56   1.0000      -0.603672       -16.4268 
  57   1.0000      -0.599996       -16.3267 
  58   1.0000      -0.586691       -15.9647 
  59   1.0000      -0.580279       -15.7902 
  60   1.0000      -0.561286       -15.2734 
  61   1.0000      -0.547707       -14.9039 
  62   1.0000      -0.546638       -14.8748 
  63   1.0000      -0.537718       -14.6321 
  64   1.0000      -0.535178       -14.5629 
  65   1.0000      -0.521893       -14.2014 
  66   1.0000      -0.507198       -13.8016 
  67   1.0000      -0.487398       -13.2628 
  68   1.0000      -0.479513       -13.0482 
  69   1.0000      -0.478413       -13.0183 
  70   1.0000      -0.449531       -12.2323 
  71   1.0000      -0.442982       -12.0542 
  72   1.0000      -0.441192       -12.0055 
  73   1.0000      -0.432620       -11.7722 
  74   1.0000      -0.431580       -11.7439 
  75   1.0000      -0.430372       -11.7110 
  76   1.0000      -0.354481        -9.6459 
  77   0.0000       0.012726         0.3463 
  78   0.0000       0.024011         0.6534 
  79   0.0000       0.024923         0.6782 
  80   0.0000       0.030982         0.8431 
  81   0.0000       0.039572         1.0768 
  82   0.0000       0.041513         1.1296 
  83   0.0000       0.042561         1.1581 
  84   0.0000       0.043025         1.1708 
  85   0.0000       0.044315         1.2059 
  86   0.0000       0.056219         1.5298 
  87   0.0000       0.057822         1.5734 
  88   0.0000       0.061865         1.6834 
  89   0.0000       0.064238         1.7480 
  90   0.0000       0.065236         1.7752 
  91   0.0000       0.069221         1.8836 
  92   0.0000       0.073891         2.0107 
  93   0.0000       0.077585         2.1112 
  94   0.0000       0.082520         2.2455 
  95   0.0000       0.089971         2.4482 
  96   0.0000       0.091983         2.5030 
  97   0.0000       0.093978         2.5573 
  98   0.0000       0.096298         2.6204 
  99   0.0000       0.102555         2.7907 
 100   0.0000       0.106058         2.8860 
 101   0.0000       0.108319         2.9475 
 102   0.0000       0.117927         3.2090 
 103   0.0000       0.120110         3.2684 
 104   0.0000       0.123737         3.3670 
 105   0.0000       0.124048         3.3755 
 106   0.0000       0.125228         3.4076 
 107   0.0000       0.127065         3.4576 
 108   0.0000       0.130728         3.5573 
 109   0.0000       0.132568         3.6073 
 110   0.0000       0.136173         3.7055 
 111   0.0000       0.137809         3.7500 
 112   0.0000       0.142887         3.8881 
 113   0.0000       0.144630         3.9356 
 114   0.0000       0.147618         4.0169 
 115   0.0000       0.151225         4.1150 
 116   0.0000       0.156890         4.2692 
 117   0.0000       0.161129         4.3845 
 118   0.0000       0.162914         4.4331 
 119   0.0000       0.163666         4.4536 
 120   0.0000       0.168434         4.5833 
 121   0.0000       0.169923         4.6238 
 122   0.0000       0.175078         4.7641 
 123   0.0000       0.179718         4.8904 
 124   0.0000       0.182808         4.9745 
 125   0.0000       0.185878         5.0580 
 126   0.0000       0.187195         5.0938 
 127   0.0000       0.191148         5.2014 
 128   0.0000       0.191715         5.2168 
 129   0.0000       0.196369         5.3435 
 130   0.0000       0.197045         5.3619 
 131   0.0000       0.200423         5.4538 
 132   0.0000       0.202735         5.5167 
 133   0.0000       0.205861         5.6018 
 134   0.0000       0.210478         5.7274 
 135   0.0000       0.214278         5.8308 
 136   0.0000       0.216187         5.8828 
 137   0.0000       0.223063         6.0698 
 138   0.0000       0.224815         6.1175 
 139   0.0000       0.230181         6.2635 
 140   0.0000       0.233162         6.3447 
 141   0.0000       0.234424         6.3790 
 142   0.0000       0.238462         6.4889 
 143   0.0000       0.239466         6.5162 
 144   0.0000       0.242767         6.6060 
 145   0.0000       0.246744         6.7142 
 146   0.0000       0.251772         6.8511 
 147   0.0000       0.253449         6.8967 
 148   0.0000       0.256396         6.9769 
 149   0.0000       0.258538         7.0352 
 150   0.0000       0.260852         7.0981 
 151   0.0000       0.267432         7.2772 
 152   0.0000       0.272864         7.4250 
 153   0.0000       0.276444         7.5224 
 154   0.0000       0.279568         7.6074 
 155   0.0000       0.286138         7.7862 
 156   0.0000       0.290653         7.9091 
 157   0.0000       0.293569         7.9884 
 158   0.0000       0.297248         8.0885 
 159   0.0000       0.306401         8.3376 
 160   0.0000       0.307114         8.3570 
 161   0.0000       0.308031         8.3820 
 162   0.0000       0.316127         8.6023 
 163   0.0000       0.317979         8.6526 
 164   0.0000       0.324343         8.8258 
 165   0.0000       0.329020         8.9531 
 166   0.0000       0.332569         9.0497 
 167   0.0000       0.335943         9.1415 
 168   0.0000       0.337214         9.1761 
 169   0.0000       0.340451         9.2641 
 170   0.0000       0.346344         9.4245 
 171   0.0000       0.350937         9.5495 
 172   0.0000       0.354165         9.6373 
 173   0.0000       0.357640         9.7319 
 174   0.0000       0.358003         9.7418 
 175   0.0000       0.362447         9.8627 
 176   0.0000       0.366450         9.9716 
 177   0.0000       0.371312        10.1039 
 178   0.0000       0.373589        10.1659 
 179   0.0000       0.374765        10.1979 
 180   0.0000       0.376490        10.2448 
 181   0.0000       0.378357        10.2956 
 182   0.0000       0.381356        10.3772 
 183   0.0000       0.383974        10.4485 
 184   0.0000       0.388889        10.5822 
 185   0.0000       0.393959        10.7202 
 186   0.0000       0.395269        10.7558 
 187   0.0000       0.397851        10.8261 
 188   0.0000       0.398563        10.8455 
 189   0.0000       0.403929        10.9915 
 190   0.0000       0.407293        11.0830 
 191   0.0000       0.409847        11.1525 
 192   0.0000       0.413067        11.2401 
 193   0.0000       0.417732        11.3671 
 194   0.0000       0.420842        11.4517 
 195   0.0000       0.431482        11.7412 
 196   0.0000       0.433993        11.8095 
 197   0.0000       0.436487        11.8774 
 198   0.0000       0.436883        11.8882 
 199   0.0000       0.443756        12.0752 
 200   0.0000       0.448157        12.1950 
 201   0.0000       0.452049        12.3009 
 202   0.0000       0.455957        12.4072 
 203   0.0000       0.457186        12.4407 
 204   0.0000       0.458975        12.4893 
 205   0.0000       0.462068        12.5735 
 206   0.0000       0.463578        12.6146 
 207   0.0000       0.471587        12.8325 
 208   0.0000       0.475626        12.9424 
 209   0.0000       0.479095        13.0368 
 210   0.0000       0.481257        13.0957 
 211   0.0000       0.487227        13.2581 
 212   0.0000       0.490419        13.3450 
 213   0.0000       0.494614        13.4591 
 214   0.0000       0.496816        13.5190 
 215   0.0000       0.499798        13.6002 
 216   0.0000       0.503835        13.7101 
 217   0.0000       0.508366        13.8333 
 218   0.0000       0.508846        13.8464 
 219   0.0000       0.512902        13.9568 
 220   0.0000       0.515200        14.0193 
 221   0.0000       0.517809        14.0903 
 222   0.0000       0.522247        14.2111 
 223   0.0000       0.524092        14.2613 
 224   0.0000       0.525213        14.2918 
 225   0.0000       0.528385        14.3781 
 226   0.0000       0.532200        14.4819 
 227   0.0000       0.535165        14.5626 
 228   0.0000       0.538326        14.6486 
 229   0.0000       0.541252        14.7282 
 230   0.0000       0.543143        14.7797 
 231   0.0000       0.548564        14.9272 
 232   0.0000       0.550322        14.9750 
 233   0.0000       0.555604        15.1187 
 234   0.0000       0.558219        15.1899 
 235   0.0000       0.567616        15.4456 
 236   0.0000       0.569275        15.4908 
 237   0.0000       0.570491        15.5239 
 238   0.0000       0.572840        15.5878 
 239   0.0000       0.575706        15.6658 
 240   0.0000       0.582253        15.8439 
 241   0.0000       0.585221        15.9247 
 242   0.0000       0.586540        15.9606 
 243   0.0000       0.590801        16.0765 
 244   0.0000       0.596619        16.2348 
 245   0.0000       0.597551        16.2602 
 246   0.0000       0.602605        16.3977 
 247   0.0000       0.607405        16.5283 
 248   0.0000       0.610847        16.6220 
 249   0.0000       0.613268        16.6879 
 250   0.0000       0.615378        16.7453 
 251   0.0000       0.623002        16.9527 
 252   0.0000       0.627254        17.0684 
 253   0.0000       0.630279        17.1508 
 254   0.0000       0.634249        17.2588 
 255   0.0000       0.635465        17.2919 
 256   0.0000       0.641348        17.4520 
 257   0.0000       0.647109        17.6087 
 258   0.0000       0.649068        17.6620 
 259   0.0000       0.655186        17.8285 
 260   0.0000       0.657417        17.8892 
 261   0.0000       0.660489        17.9728 
 262   0.0000       0.663371        18.0513 
 263   0.0000       0.668223        18.1833 
 264   0.0000       0.672693        18.3049 
 265   0.0000       0.674354        18.3501 
 266   0.0000       0.677458        18.4346 
 267   0.0000       0.686758        18.6876 
 268   0.0000       0.689177        18.7535 
 269   0.0000       0.694503        18.8984 
 270   0.0000       0.696131        18.9427 
 271   0.0000       0.699815        19.0429 
 272   0.0000       0.703419        19.1410 
 273   0.0000       0.708204        19.2712 
 274   0.0000       0.714895        19.4533 
 275   0.0000       0.718603        19.5542 
 276   0.0000       0.721399        19.6303 
 277   0.0000       0.728644        19.8274 
 278   0.0000       0.731908        19.9162 
 279   0.0000       0.734604        19.9896 
 280   0.0000       0.742317        20.1995 
 281   0.0000       0.745727        20.2923 
 282   0.0000       0.752337        20.4721 
 283   0.0000       0.761081        20.7101 
 284   0.0000       0.768485        20.9115 
 285   0.0000       0.769175        20.9303 
 286   0.0000       0.773020        21.0350 
 287   0.0000       0.775017        21.0893 
 288   0.0000       0.784212        21.3395 
 289   0.0000       0.796653        21.6780 
 290   0.0000       0.802802        21.8453 
 291   0.0000       0.811034        22.0694 
 292   0.0000       0.817814        22.2538 
 293   0.0000       0.821546        22.3554 
 294   0.0000       0.826479        22.4896 
 295   0.0000       0.832865        22.6634 
 296   0.0000       0.836774        22.7698 
 297   0.0000       0.842134        22.9156 
 298   0.0000       0.847549        23.0630 
 299   0.0000       0.854865        23.2621 
 300   0.0000       0.855884        23.2898 
 301   0.0000       0.864749        23.5310 
 302   0.0000       0.867919        23.6173 
 303   0.0000       0.872463        23.7409 
 304   0.0000       0.879175        23.9236 
 305   0.0000       0.880027        23.9467 
 306   0.0000       0.881847        23.9963 
 307   0.0000       0.887020        24.1370 
 308   0.0000       0.889905        24.2156 
 309   0.0000       0.902894        24.5690 
 310   0.0000       0.906456        24.6659 
 311   0.0000       0.907790        24.7022 
 312   0.0000       0.910047        24.7636 
 313   0.0000       0.913914        24.8689 
 314   0.0000       0.918994        25.0071 
 315   0.0000       0.921918        25.0867 
 316   0.0000       0.925209        25.1762 
 317   0.0000       0.927621        25.2419 
 318   0.0000       0.935640        25.4601 
 319   0.0000       0.939039        25.5525 
 320   0.0000       0.942255        25.6400 
 321   0.0000       0.945808        25.7367 
 322   0.0000       0.949228        25.8298 
 323   0.0000       0.949927        25.8488 
 324   0.0000       0.953504        25.9462 
 325   0.0000       0.955152        25.9910 
 326   0.0000       0.962351        26.1869 
 327   0.0000       0.963528        26.2189 
 328   0.0000       0.966958        26.3123 
 329   0.0000       0.969746        26.3881 
 330   0.0000       0.971245        26.4289 
 331   0.0000       0.977825        26.6080 
 332   0.0000       0.981527        26.7087 
 333   0.0000       0.983730        26.7687 
 334   0.0000       0.989546        26.9269 
 335   0.0000       0.995467        27.0880 
 336   0.0000       0.998681        27.1755 
 337   0.0000       1.004290        27.3281 
 338   0.0000       1.005487        27.3607 
 339   0.0000       1.007993        27.4289 
 340   0.0000       1.009785        27.4776 
 341   0.0000       1.014109        27.5953 
 342   0.0000       1.019532        27.7429 
 343   0.0000       1.024734        27.8844 
 344   0.0000       1.027645        27.9636 
 345   0.0000       1.031858        28.0783 
 346   0.0000       1.034688        28.1553 
 347   0.0000       1.035561        28.1790 
 348   0.0000       1.043806        28.4034 
 349   0.0000       1.046251        28.4699 
 350   0.0000       1.050234        28.5783 
 351   0.0000       1.052406        28.6374 
 352   0.0000       1.054500        28.6944 
 353   0.0000       1.056673        28.7535 
 354   0.0000       1.061838        28.8941 
 355   0.0000       1.065251        28.9870 
 356   0.0000       1.070461        29.1287 
 357   0.0000       1.073372        29.2079 
 358   0.0000       1.077856        29.3300 
 359   0.0000       1.079174        29.3658 
 360   0.0000       1.087207        29.5844 
 361   0.0000       1.088712        29.6254 
 362   0.0000       1.096007        29.8239 
 363   0.0000       1.100082        29.9347 
 364   0.0000       1.101747        29.9801 
 365   0.0000       1.105185        30.0736 
 366   0.0000       1.109873        30.2012 
 367   0.0000       1.116171        30.3726 
 368   0.0000       1.119658        30.4674 
 369   0.0000       1.126234        30.6464 
 370   0.0000       1.127608        30.6838 
 371   0.0000       1.131123        30.7794 
 372   0.0000       1.134933        30.8831 
 373   0.0000       1.141507        31.0620 
 374   0.0000       1.144236        31.1362 
 375   0.0000       1.146994        31.2113 
 376   0.0000       1.149917        31.2908 
 377   0.0000       1.159464        31.5506 
 378   0.0000       1.162910        31.6444 
 379   0.0000       1.166936        31.7539 
 380   0.0000       1.169572        31.8257 
 381   0.0000       1.170545        31.8522 
 382   0.0000       1.180278        32.1170 
 383   0.0000       1.184434        32.2301 
 384   0.0000       1.187134        32.3036 
 385   0.0000       1.188512        32.3411 
 386   0.0000       1.197164        32.5765 
 387   0.0000       1.200934        32.6791 
 388   0.0000       1.204798        32.7842 
 389   0.0000       1.210697        32.9447 
 390   0.0000       1.215962        33.0880 
 391   0.0000       1.222990        33.2792 
 392   0.0000       1.227994        33.4154 
 393   0.0000       1.229337        33.4520 
 394   0.0000       1.234164        33.5833 
 395   0.0000       1.242026        33.7972 
 396   0.0000       1.246165        33.9099 
 397   0.0000       1.252887        34.0928 
 398   0.0000       1.254578        34.1388 
 399   0.0000       1.261177        34.3184 
 400   0.0000       1.264321        34.4039 
 401   0.0000       1.267600        34.4931 
 402   0.0000       1.272699        34.6319 
 403   0.0000       1.273937        34.6656 
 404   0.0000       1.276589        34.7378 
 405   0.0000       1.285121        34.9699 
 406   0.0000       1.290740        35.1228 
 407   0.0000       1.293852        35.2075 
 408   0.0000       1.298943        35.3460 
 409   0.0000       1.304317        35.4923 
 410   0.0000       1.309039        35.6208 
 411   0.0000       1.309442        35.6317 
 412   0.0000       1.314773        35.7768 
 413   0.0000       1.321966        35.9725 
 414   0.0000       1.326997        36.1094 
 415   0.0000       1.335519        36.3413 
 416   0.0000       1.337503        36.3953 
 417   0.0000       1.340589        36.4793 
 418   0.0000       1.344293        36.5801 
 419   0.0000       1.355691        36.8902 
 420   0.0000       1.358808        36.9751 
 421   0.0000       1.365163        37.1480 
 422   0.0000       1.369517        37.2665 
 423   0.0000       1.374430        37.4001 
 424   0.0000       1.380091        37.5542 
 425   0.0000       1.383483        37.6465 
 426   0.0000       1.388390        37.7800 
 427   0.0000       1.388949        37.7952 
 428   0.0000       1.401758        38.1438 
 429   0.0000       1.406294        38.2672 
 430   0.0000       1.409228        38.3471 
 431   0.0000       1.417808        38.5805 
 432   0.0000       1.429382        38.8955 
 433   0.0000       1.430978        38.9389 
 434   0.0000       1.434419        39.0325 
 435   0.0000       1.440722        39.2040 
 436   0.0000       1.449279        39.4369 
 437   0.0000       1.450865        39.4800 
 438   0.0000       1.456804        39.6417 
 439   0.0000       1.459400        39.7123 
 440   0.0000       1.460349        39.7381 
 441   0.0000       1.466701        39.9110 
 442   0.0000       1.467978        39.9457 
 443   0.0000       1.477519        40.2053 
 444   0.0000       1.479217        40.2515 
 445   0.0000       1.482004        40.3274 
 446   0.0000       1.488164        40.4950 
 447   0.0000       1.496800        40.7300 
 448   0.0000       1.497445        40.7476 
 449   0.0000       1.503703        40.9178 
 450   0.0000       1.516492        41.2658 
 451   0.0000       1.516835        41.2752 
 452   0.0000       1.523780        41.4642 
 453   0.0000       1.529333        41.6153 
 454   0.0000       1.531604        41.6771 
 455   0.0000       1.535702        41.7886 
 456   0.0000       1.541155        41.9370 
 457   0.0000       1.549373        42.1606 
 458   0.0000       1.553145        42.2632 
 459   0.0000       1.564321        42.5673 
 460   0.0000       1.565160        42.5902 
 461   0.0000       1.571804        42.7710 
 462   0.0000       1.579007        42.9670 
 463   0.0000       1.583683        43.0942 
 464   0.0000       1.587842        43.2074 
 465   0.0000       1.599737        43.5310 
 466   0.0000       1.606181        43.7064 
 467   0.0000       1.607581        43.7445 
 468   0.0000       1.615409        43.9575 
 469   0.0000       1.618977        44.0546 
 470   0.0000       1.625913        44.2433 
 471   0.0000       1.630359        44.3643 
 472   0.0000       1.634484        44.4766 
 473   0.0000       1.643245        44.7150 
 474   0.0000       1.646412        44.8012 
 475   0.0000       1.648950        44.8702 
 476   0.0000       1.656984        45.0888 
 477   0.0000       1.658709        45.1358 
 478   0.0000       1.666056        45.3357 
 479   0.0000       1.674155        45.5561 
 480   0.0000       1.676890        45.6305 
 481   0.0000       1.679674        45.7063 
 482   0.0000       1.694150        46.1002 
 483   0.0000       1.697411        46.1889 
 484   0.0000       1.699352        46.2417 
 485   0.0000       1.701191        46.2918 
 486   0.0000       1.707848        46.4729 
 487   0.0000       1.717316        46.7305 
 488   0.0000       1.721012        46.8311 
 489   0.0000       1.727111        46.9971 
 490   0.0000       1.727577        47.0098 
 491   0.0000       1.737729        47.2860 
 492   0.0000       1.745284        47.4916 
 493   0.0000       1.747766        47.5591 
 494   0.0000       1.756695        47.8021 
 495   0.0000       1.759007        47.8650 
 496   0.0000       1.760560        47.9073 
 497   0.0000       1.766968        48.0816 
 498   0.0000       1.779823        48.4314 
 499   0.0000       1.782841        48.5136 
 500   0.0000       1.785636        48.5896 
 501   0.0000       1.791310        48.7440 
 502   0.0000       1.794063        48.8189 
 503   0.0000       1.799270        48.9606 
 504   0.0000       1.805262        49.1237 
 505   0.0000       1.809575        49.2410 
 506   0.0000       1.810283        49.2603 
 507   0.0000       1.815293        49.3966 
 508   0.0000       1.817106        49.4460 
 509   0.0000       1.820994        49.5518 
 510   0.0000       1.828214        49.7482 
 511   0.0000       1.832703        49.8704 
 512   0.0000       1.838324        50.0233 
 513   0.0000       1.843336        50.1597 
 514   0.0000       1.850316        50.3497 
 515   0.0000       1.853008        50.4229 
 516   0.0000       1.857542        50.5463 
 517   0.0000       1.865998        50.7764 
 518   0.0000       1.871323        50.9213 
 519   0.0000       1.878836        51.1257 
 520   0.0000       1.886022        51.3213 
 521   0.0000       1.891555        51.4718 
 522   0.0000       1.895929        51.5908 
 523   0.0000       1.900146        51.7056 
 524   0.0000       1.902537        51.7707 
 525   0.0000       1.912107        52.0311 
 526   0.0000       1.916483        52.1502 
 527   0.0000       1.923403        52.3385 
 528   0.0000       1.928727        52.4833 
 529   0.0000       1.932395        52.5832 
 530   0.0000       1.939688        52.7816 
 531   0.0000       1.940401        52.8010 
 532   0.0000       1.948074        53.0098 
 533   0.0000       1.959029        53.3079 
 534   0.0000       1.960904        53.3589 
 535   0.0000       1.967371        53.5349 
 536   0.0000       1.976092        53.7722 
 537   0.0000       1.978992        53.8511 
 538   0.0000       1.986257        54.0488 
 539   0.0000       1.987326        54.0779 
 540   0.0000       1.997263        54.3483 
 541   0.0000       1.998653        54.3861 
 542   0.0000       2.008930        54.6658 
 543   0.0000       2.012891        54.7736 
 544   0.0000       2.016837        54.8809 
 545   0.0000       2.030398        55.2499 
 546   0.0000       2.034894        55.3723 
 547   0.0000       2.044380        55.6304 
 548   0.0000       2.049814        55.7783 
 549   0.0000       2.053834        55.8877 
 550   0.0000       2.064462        56.1769 
 551   0.0000       2.066961        56.2449 
 552   0.0000       2.075183        56.4686 
 553   0.0000       2.077779        56.5392 
 554   0.0000       2.081406        56.6379 
 555   0.0000       2.093885        56.9775 
 556   0.0000       2.100190        57.1491 
 557   0.0000       2.101478        57.1841 
 558   0.0000       2.109415        57.4001 
 559   0.0000       2.120877        57.7120 
 560   0.0000       2.125784        57.8455 
 561   0.0000       2.130716        57.9797 
 562   0.0000       2.141729        58.2794 
 563   0.0000       2.149410        58.4884 
 564   0.0000       2.153773        58.6071 
 565   0.0000       2.164054        58.8869 
 566   0.0000       2.172085        59.1054 
 567   0.0000       2.177803        59.2610 
 568   0.0000       2.184806        59.4516 
 569   0.0000       2.188059        59.5401 
 570   0.0000       2.193458        59.6870 
 571   0.0000       2.202036        59.9205 
 572   0.0000       2.211607        60.1809 
 573   0.0000       2.217906        60.3523 
 574   0.0000       2.227986        60.6266 
 575   0.0000       2.233610        60.7796 
 576   0.0000       2.234374        60.8004 
 577   0.0000       2.241849        61.0038 
 578   0.0000       2.246052        61.1182 
 579   0.0000       2.261759        61.5456 
 580   0.0000       2.263748        61.5997 
 581   0.0000       2.270691        61.7886 
 582   0.0000       2.281752        62.0896 
 583   0.0000       2.286009        62.2055 
 584   0.0000       2.297830        62.5271 
 585   0.0000       2.301493        62.6268 
 586   0.0000       2.312855        62.9360 
 587   0.0000       2.323623        63.2290 
 588   0.0000       2.329750        63.3957 
 589   0.0000       2.338106        63.6231 
 590   0.0000       2.346977        63.8645 
 591   0.0000       2.350131        63.9503 
 592   0.0000       2.357966        64.1635 
 593   0.0000       2.364248        64.3344 
 594   0.0000       2.371980        64.5449 
 595   0.0000       2.383828        64.8672 
 596   0.0000       2.385846        64.9222 
 597   0.0000       2.390434        65.0470 
 598   0.0000       2.398177        65.2577 
 599   0.0000       2.403354        65.3986 
 600   0.0000       2.421782        65.9000 
 601   0.0000       2.427431        66.0537 
 602   0.0000       2.431879        66.1748 
 603   0.0000       2.434593        66.2486 
 604   0.0000       2.450626        66.6849 
 605   0.0000       2.459052        66.9142 
 606   0.0000       2.479254        67.4639 
 607   0.0000       2.483408        67.5770 
 608   0.0000       2.495925        67.9176 
 609   0.0000       2.499938        68.0268 
 610   0.0000       2.509058        68.2749 
 611   0.0000       2.512026        68.3557 
 612   0.0000       2.531381        68.8824 
 613   0.0000       2.551855        69.4395 
 614   0.0000       2.556366        69.5622 
 615   0.0000       2.565686        69.8159 
 616   0.0000       2.577570        70.1392 
 617   0.0000       2.593391        70.5698 
 618   0.0000       2.619313        71.2751 
 619   0.0000       2.629438        71.5507 
 620   0.0000       2.639053        71.8123 
 621   0.0000       2.651722        72.1570 
 622   0.0000       2.654042        72.2202 
 623   0.0000       2.671923        72.7067 
 624   0.0000       2.673263        72.7432 
 625   0.0000       2.683778        73.0293 
 626   0.0000       2.691223        73.2319 
 627   0.0000       2.696044        73.3631 
 628   0.0000       2.702738        73.5452 
 629   0.0000       2.706796        73.6557 
 630   0.0000       2.712709        73.8166 
 631   0.0000       2.731919        74.3393 
 632   0.0000       2.745893        74.7195 
 633   0.0000       2.749861        74.8275 
 634   0.0000       2.758909        75.0737 
 635   0.0000       2.764927        75.2375 
 636   0.0000       2.776549        75.5537 
 637   0.0000       2.779939        75.6460 
 638   0.0000       2.790108        75.9227 
 639   0.0000       2.803372        76.2836 
 640   0.0000       2.821353        76.7729 
 641   0.0000       2.832446        77.0748 
 642   0.0000       2.841894        77.3319 
 643   0.0000       2.855820        77.7108 
 644   0.0000       2.868897        78.0667 
 645   0.0000       2.879233        78.3479 
 646   0.0000       2.889349        78.6232 
 647   0.0000       2.892951        78.7212 
 648   0.0000       2.905854        79.0723 
 649   0.0000       2.922418        79.5230 
 650   0.0000       2.935695        79.8843 
 651   0.0000       2.950697        80.2925 
 652   0.0000       2.964325        80.6634 
 653   0.0000       2.972826        80.8947 
 654   0.0000       2.986836        81.2759 
 655   0.0000       3.001354        81.6710 
 656   0.0000       3.031281        82.4853 
 657   0.0000       3.042705        82.7962 
 658   0.0000       3.069014        83.5121 
 659   0.0000       3.074235        83.6542 
 660   0.0000       3.079782        83.8051 
 661   0.0000       3.097999        84.3008 
 662   0.0000       3.111882        84.6786 
 663   0.0000       3.119671        84.8906 
 664   0.0000       3.130827        85.1941 
 665   0.0000       3.145736        85.5998 
 666   0.0000       3.167261        86.1855 
 667   0.0000       3.176683        86.4419 
 668   0.0000       3.193184        86.8909 
 669   0.0000       3.196690        86.9864 
 670   0.0000       3.209193        87.3266 
 671   0.0000       3.212123        87.4063 
 672   0.0000       3.227113        87.8142 
 673   0.0000       3.241468        88.2048 
 674   0.0000       3.249260        88.4169 
 675   0.0000       3.252132        88.4950 
 676   0.0000       3.262030        88.7643 
 677   0.0000       3.267898        88.9240 
 678   0.0000       3.271452        89.0207 
 679   0.0000       3.291078        89.5548 
 680   0.0000       3.292156        89.5841 
 681   0.0000       3.309998        90.0696 
 682   0.0000       3.326770        90.5260 
 683   0.0000       3.331269        90.6484 
 684   0.0000       3.335531        90.7644 
 685   0.0000       3.353481        91.2529 
 686   0.0000       3.355599        91.3105 
 687   0.0000       3.370111        91.7054 
 688   0.0000       3.388990        92.2191 
 689   0.0000       3.401807        92.5679 
 690   0.0000       3.407192        92.7144 
 691   0.0000       3.409193        92.7689 
 692   0.0000       3.417191        92.9865 
 693   0.0000       3.434916        93.4688 
 694   0.0000       3.442613        93.6783 
 695   0.0000       3.445382        93.7536 
 696   0.0000       3.446935        93.7959 
 697   0.0000       3.453627        93.9780 
 698   0.0000       3.463463        94.2456 
 699   0.0000       3.475993        94.5866 
 700   0.0000       3.483419        94.7886 
 701   0.0000       3.490657        94.9856 
 702   0.0000       3.504986        95.3755 
 703   0.0000       3.507788        95.4518 
 704   0.0000       3.511368        95.5492 
 705   0.0000       3.521680        95.8298 
 706   0.0000       3.529760        96.0497 
 707   0.0000       3.539939        96.3266 
 708   0.0000       3.542086        96.3851 
 709   0.0000       3.553371        96.6921 
 710   0.0000       3.564227        96.9875 
 711   0.0000       3.573355        97.2359 
 712   0.0000       3.583349        97.5079 
 713   0.0000       3.588069        97.6363 
 714   0.0000       3.595502        97.8386 
 715   0.0000       3.601984        98.0150 
 716   0.0000       3.615340        98.3784 
 717   0.0000       3.628878        98.7468 
 718   0.0000       3.641069        99.0785 
 719   0.0000       3.643051        99.1325 
 720   0.0000       3.654080        99.4326 
 721   0.0000       3.661330        99.6299 
 722   0.0000       3.671144        99.8969 
 723   0.0000       3.675191       100.0070 
 724   0.0000       3.681911       100.1899 
 725   0.0000       3.689395       100.3935 
 726   0.0000       3.695906       100.5707 
 727   0.0000       3.703750       100.7842 
 728   0.0000       3.706751       100.8658 
 729   0.0000       3.708578       100.9155 
 730   0.0000       3.712333       101.0177 
 731   0.0000       3.715657       101.1082 
 732   0.0000       3.730702       101.5176 
 733   0.0000       3.736301       101.6699 
 734   0.0000       3.750942       102.0683 
 735   0.0000       3.760877       102.3387 
 736   0.0000       3.762556       102.3843 
 737   0.0000       3.766864       102.5016 
 738   0.0000       3.769078       102.5618 
 739   0.0000       3.780984       102.8858 
 740   0.0000       3.786398       103.0331 
 741   0.0000       3.788441       103.0887 
 742   0.0000       3.798362       103.3587 
 743   0.0000       3.804490       103.5254 
 744   0.0000       3.819682       103.9388 
 745   0.0000       3.839518       104.4786 
 746   0.0000       3.842902       104.5707 
 747   0.0000       3.849310       104.7450 
 748   0.0000       3.859044       105.0099 
 749   0.0000       3.860436       105.0478 
 750   0.0000       3.865991       105.1990 
 751   0.0000       3.877932       105.5239 
 752   0.0000       3.884816       105.7112 
 753   0.0000       3.888991       105.8248 
 754   0.0000       3.899544       106.1120 
 755   0.0000       3.907538       106.3295 
 756   0.0000       3.917147       106.5910 
 757   0.0000       3.927082       106.8613 
 758   0.0000       3.932165       106.9997 
 759   0.0000       3.934293       107.0576 
 760   0.0000       3.937828       107.1537 
 761   0.0000       3.942855       107.2905 
 762   0.0000       3.949242       107.4643 
 763   0.0000       3.955913       107.6459 
 764   0.0000       3.959521       107.7441 
 765   0.0000       3.974997       108.1652 
 766   0.0000       3.980729       108.3212 
 767   0.0000       3.984381       108.4205 
 768   0.0000       3.994832       108.7049 
 769   0.0000       4.000746       108.8658 
 770   0.0000       4.009827       109.1129 
 771   0.0000       4.018169       109.3399 
 772   0.0000       4.023448       109.4836 
 773   0.0000       4.030961       109.6880 
 774   0.0000       4.034267       109.7780 
 775   0.0000       4.046382       110.1077 
 776   0.0000       4.051401       110.2442 
 777   0.0000       4.060585       110.4941 
 778   0.0000       4.070536       110.7649 
 779   0.0000       4.079014       110.9956 
 780   0.0000       4.083183       111.1091 
 781   0.0000       4.089672       111.2856 
 782   0.0000       4.096268       111.4651 
 783   0.0000       4.100568       111.5821 
 784   0.0000       4.115652       111.9926 
 785   0.0000       4.121494       112.1516 
 786   0.0000       4.127991       112.3284 
 787   0.0000       4.132757       112.4580 
 788   0.0000       4.142037       112.7106 
 789   0.0000       4.155644       113.0808 
 790   0.0000       4.162280       113.2614 
 791   0.0000       4.166343       113.3720 
 792   0.0000       4.173285       113.5609 
 793   0.0000       4.183305       113.8335 
 794   0.0000       4.194825       114.1470 
 795   0.0000       4.198706       114.2526 
 796   0.0000       4.204876       114.4205 
 797   0.0000       4.208110       114.5085 
 798   0.0000       4.213201       114.6470 
 799   0.0000       4.217510       114.7643 
 800   0.0000       4.232252       115.1654 
 801   0.0000       4.245236       115.5187 
 802   0.0000       4.249795       115.6428 
 803   0.0000       4.264930       116.0546 
 804   0.0000       4.272139       116.2508 
 805   0.0000       4.282705       116.5383 
 806   0.0000       4.289386       116.7201 
 807   0.0000       4.294465       116.8583 
 808   0.0000       4.308835       117.2494 
 809   0.0000       4.311553       117.3233 
 810   0.0000       4.328517       117.7849 
 811   0.0000       4.346846       118.2837 
 812   0.0000       4.350647       118.3871 
 813   0.0000       4.356411       118.5440 
 814   0.0000       4.372389       118.9787 
 815   0.0000       4.377882       119.1282 
 816   0.0000       4.393333       119.5487 
 817   0.0000       4.403378       119.8220 
 818   0.0000       4.409090       119.9774 
 819   0.0000       4.423911       120.3808 
 820   0.0000       4.431278       120.5812 
 821   0.0000       4.438500       120.7777 
 822   0.0000       4.442742       120.8931 
 823   0.0000       4.452882       121.1691 
 824   0.0000       4.465511       121.5127 
 825   0.0000       4.473258       121.7235 
 826   0.0000       4.485702       122.0622 
 827   0.0000       4.501678       122.4969 
 828   0.0000       4.508969       122.6953 
 829   0.0000       4.513678       122.8234 
 830   0.0000       4.520223       123.0015 
 831   0.0000       4.533511       123.3631 
 832   0.0000       4.536051       123.4322 
 833   0.0000       4.539918       123.5375 
 834   0.0000       4.557812       124.0244 
 835   0.0000       4.560986       124.1107 
 836   0.0000       4.574377       124.4751 
 837   0.0000       4.585191       124.7694 
 838   0.0000       4.597930       125.1160 
 839   0.0000       4.607589       125.3789 
 840   0.0000       4.622075       125.7731 
 841   0.0000       4.632698       126.0621 
 842   0.0000       4.646542       126.4388 
 843   0.0000       4.650512       126.5469 
 844   0.0000       4.660700       126.8241 
 845   0.0000       4.671181       127.1093 
 846   0.0000       4.684929       127.4834 
 847   0.0000       4.689644       127.6117 
 848   0.0000       4.702572       127.9635 
 849   0.0000       4.713514       128.2612 
 850   0.0000       4.721537       128.4795 
 851   0.0000       4.736404       128.8841 
 852   0.0000       4.743213       129.0694 
 853   0.0000       4.770943       129.8240 
 854   0.0000       4.782737       130.1449 
 855   0.0000       4.794253       130.4583 
 856   0.0000       4.795884       130.5026 
 857   0.0000       4.816426       131.0616 
 858   0.0000       4.821169       131.1907 
 859   0.0000       4.826256       131.3291 
 860   0.0000       4.837186       131.6265 
 861   0.0000       4.859225       132.2262 
 862   0.0000       4.865925       132.4086 
 863   0.0000       4.881253       132.8256 
 864   0.0000       4.889354       133.0461 
 865   0.0000       4.892392       133.1288 
 866   0.0000       4.907709       133.5456 
 867   0.0000       4.921158       133.9115 
 868   0.0000       4.931638       134.1967 
 869   0.0000       4.939019       134.3975 
 870   0.0000       4.958010       134.9143 
 871   0.0000       4.965122       135.1078 
 872   0.0000       4.980633       135.5299 
 873   0.0000       4.991549       135.8269 
 874   0.0000       5.000953       136.0828 
 875   0.0000       5.015131       136.4687 
 876   0.0000       5.019094       136.5765 
 877   0.0000       5.029547       136.8609 
 878   0.0000       5.033487       136.9681 
 879   0.0000       5.046016       137.3091 
 880   0.0000       5.074846       138.0936 
 881   0.0000       5.088464       138.4641 
 882   0.0000       5.094929       138.6401 
 883   0.0000       5.106177       138.9461 
 884   0.0000       5.124238       139.4376 
 885   0.0000       5.129410       139.5783 
 886   0.0000       5.142512       139.9349 
 887   0.0000       5.160330       140.4197 
 888   0.0000       5.166257       140.5810 
 889   0.0000       5.185401       141.1019 
 890   0.0000       5.187370       141.1555 
 891   0.0000       5.208890       141.7411 
 892   0.0000       5.214337       141.8893 
 893   0.0000       5.228130       142.2646 
 894   0.0000       5.235596       142.4678 
 895   0.0000       5.256399       143.0339 
 896   0.0000       5.261533       143.1736 
 897   0.0000       5.274983       143.5396 
 898   0.0000       5.295993       144.1113 
 899   0.0000       5.307585       144.4267 
 900   0.0000       5.314427       144.6129 
 901   0.0000       5.331877       145.0877 
 902   0.0000       5.343961       145.4166 
 903   0.0000       5.346720       145.4917 
 904   0.0000       5.364005       145.9620 
 905   0.0000       5.375490       146.2745 
 906   0.0000       5.393610       146.7676 
 907   0.0000       5.412583       147.2839 
 908   0.0000       5.420530       147.5001 
 909   0.0000       5.425648       147.6394 
 910   0.0000       5.445701       148.1851 
 911   0.0000       5.451445       148.3414 
 912   0.0000       5.459158       148.5512 
 913   0.0000       5.481846       149.1686 
 914   0.0000       5.488930       149.3614 
 915   0.0000       5.495295       149.5346 
 916   0.0000       5.518664       150.1705 
 917   0.0000       5.524549       150.3306 
 918   0.0000       5.538347       150.7061 
 919   0.0000       5.547880       150.9655 
 920   0.0000       5.557216       151.2195 
 921   0.0000       5.578117       151.7883 
 922   0.0000       5.590080       152.1138 
 923   0.0000       5.607049       152.5756 
 924   0.0000       5.616629       152.8362 
 925   0.0000       5.620327       152.9369 
 926   0.0000       5.630510       153.2140 
 927   0.0000       5.640539       153.4869 
 928   0.0000       5.653508       153.8398 
 929   0.0000       5.664298       154.1334 
 930   0.0000       5.676726       154.4716 
 931   0.0000       5.695557       154.9840 
 932   0.0000       5.705622       155.2579 
 933   0.0000       5.715913       155.5379 
 934   0.0000       5.728651       155.8845 
 935   0.0000       5.739419       156.1775 
 936   0.0000       5.744579       156.3179 
 937   0.0000       5.759252       156.7172 
 938   0.0000       5.779823       157.2770 
 939   0.0000       5.787879       157.4962 
 940   0.0000       5.816623       158.2784 
 941   0.0000       5.861146       159.4899 
 942   0.0000       5.873388       159.8230 
 943   0.0000       5.889675       160.2662 
 944   0.0000       5.938301       161.5894 
 945   0.0000       5.958176       162.1302 
 946   0.0000       6.047457       164.5597 
 947   0.0000       6.073078       165.2569 
 948   0.0000       6.080016       165.4457 
 949   0.0000       6.101846       166.0397 
 950   0.0000       6.135590       166.9579 
 951   0.0000       6.156379       167.5236 
 952   0.0000       6.160936       167.6476 
 953   0.0000       6.175244       168.0369 
 954   0.0000       6.198754       168.6767 
 955   0.0000       6.213704       169.0835 
 956   0.0000       6.224726       169.3834 
 957   0.0000       6.233461       169.6211 
 958   0.0000       6.247836       170.0123 
 959   0.0000       6.274028       170.7250 
 960   0.0000       6.289391       171.1430 
 961   0.0000       6.295618       171.3125 
 962   0.0000       6.317548       171.9092 
 963   0.0000       6.328176       172.1984 
 964   0.0000       6.335556       172.3992 
 965   0.0000       6.346553       172.6985 
 966   0.0000       6.384666       173.7356 
 967   0.0000       6.403777       174.2556 
 968   0.0000       6.455606       175.6660 
 969   0.0000       6.538034       177.9089 
 970   0.0000       6.593307       179.4130 
 971   0.0000       6.634113       180.5234 
 972   0.0000       6.778254       184.4457 
 973   0.0000       6.810160       185.3139 
 974   0.0000       6.831999       185.9081 
 975   0.0000       6.862423       186.7360 
 976   0.0000       6.892781       187.5621 
 977   0.0000       6.906501       187.9354 
 978   0.0000       6.935435       188.7228 
 979   0.0000       6.957096       189.3122 
 980   0.0000       6.979487       189.9215 
 981   0.0000       6.985498       190.0851 
 982   0.0000       7.022604       191.0948 
 983   0.0000       7.035480       191.4452 
 984   0.0000       7.067094       192.3054 
 985   0.0000       7.090079       192.9309 
 986   0.0000       7.217650       196.4022 
 987   0.0000       7.235585       196.8903 
 988   0.0000       7.308649       198.8784 
 989   0.0000       7.330591       199.4755 
 990   0.0000       7.487064       203.7334 
 991   0.0000       7.560009       205.7183 
 992   0.0000       7.579251       206.2419 
 993   0.0000       7.673208       208.7986 
 994   0.0000       7.723449       210.1657 
 995   0.0000       7.811457       212.5605 
 996   0.0000       7.878270       214.3786 
 997   0.0000       7.965350       216.7482 
 998   0.0000       8.220780       223.6988 
 999   0.0000       9.391716       255.5616 
 1000   0.0000       9.395929       255.6762 
 1001   0.0000       9.427220       256.5277 
 1002   0.0000       9.441085       256.9050 
 1003   0.0000       9.446426       257.0503 
 1004   0.0000       9.472701       257.7653 
 1005   0.0000       9.614158       261.6145 
 1006   0.0000      10.053668       273.5742 
 1007   0.0000      10.080718       274.3103 
 1008   0.0000      10.092110       274.6203 
 1009   0.0000      10.166525       276.6452 
 1010   0.0000      10.194916       277.4178 
 1011   0.0000      10.220041       278.1015 
 1012   0.0000      10.233014       278.4545 
 1013   0.0000      10.321475       280.8616 
 1014   0.0000      10.367511       282.1143 
 1015   0.0000      10.492361       285.5117 
 1016   0.0000      16.303383       443.6376 
 1017   0.0000      17.384511       473.0566 
 1018   0.0000      18.013971       490.1851 
 1019   0.0000      18.285817       497.5824 
 1020   0.0000      18.477983       502.8115 
 1021   0.0000      18.594165       505.9730 
 1022   0.0000      20.365720       554.1794 
 1023   0.0000      21.320360       580.1565 
 1024   0.0000      21.570513       586.9635 

                 SPIN DOWN ORBITALS
  NO   OCC          E(Eh)            E(eV) 
   0   1.0000    -261.576014     -7117.8452 
   1   1.0000    -104.794700     -2851.6087 
   2   1.0000    -104.791705     -2851.5273 
   3   1.0000    -104.789792     -2851.4752 
   4   1.0000     -32.085283      -873.0849 
   5   1.0000     -27.563249      -750.0341 
   6   1.0000     -27.563094      -750.0299 
   7   1.0000     -27.563030      -750.0282 
   8   1.0000     -20.625752      -561.2552 
   9   1.0000     -11.422391      -310.8190 
  10   1.0000     -11.280094      -306.9470 
  11   1.0000     -11.274174      -306.7859 
  12   1.0000     -11.256857      -306.3147 
  13   1.0000     -11.238565      -305.8169 
  14   1.0000     -11.237476      -305.7873 
  15   1.0000     -11.233931      -305.6908 
  16   1.0000     -11.224925      -305.4457 
  17   1.0000     -10.521340      -286.3002 
  18   1.0000     -10.518310      -286.2178 
  19   1.0000     -10.516352      -286.1645 
  20   1.0000      -7.987274      -217.3448 
  21   1.0000      -7.986489      -217.3234 
  22   1.0000      -7.986453      -217.3224 
  23   1.0000      -7.984172      -217.2604 
  24   1.0000      -7.983504      -217.2422 
  25   1.0000      -7.983410      -217.2396 
  26   1.0000      -7.982352      -217.2108 
  27   1.0000      -7.981417      -217.1854 
  28   1.0000      -7.981337      -217.1832 
  29   1.0000      -4.159977      -113.1987 
  30   1.0000      -2.681516       -72.9677 
  31   1.0000      -2.681454       -72.9661 
  32   1.0000      -2.681061       -72.9554 
  33   1.0000      -1.464705       -39.8566 
  34   1.0000      -1.117604       -30.4116 
  35   1.0000      -1.102057       -29.9885 
  36   1.0000      -1.054005       -28.6809 
  37   1.0000      -1.041354       -28.3367 
  38   1.0000      -1.038299       -28.2536 
  39   1.0000      -1.019750       -27.7488 
  40   1.0000      -1.008185       -27.4341 
  41   1.0000      -0.952645       -25.9228 
  42   1.0000      -0.890409       -24.2293 
  43   1.0000      -0.830150       -22.5895 
  44   1.0000      -0.723055       -19.6753 
  45   1.0000      -0.718339       -19.5470 
  46   1.0000      -0.706241       -19.2178 
  47   1.0000      -0.684421       -18.6240 
  48   1.0000      -0.648789       -17.6545 
  49   1.0000      -0.621083       -16.9005 
  50   1.0000      -0.615442       -16.7470 
  51   1.0000      -0.603565       -16.4239 
  52   1.0000      -0.599923       -16.3247 
  53   1.0000      -0.586407       -15.9569 
  54   1.0000      -0.578886       -15.7523 
  55   1.0000      -0.560386       -15.2489 
  56   1.0000      -0.546643       -14.8749 
  57   1.0000      -0.544801       -14.8248 
  58   1.0000      -0.535293       -14.5661 
  59   1.0000      -0.527367       -14.3504 
  60   1.0000      -0.521663       -14.1952 
  61   1.0000      -0.508978       -13.8500 
  62   1.0000      -0.488715       -13.2986 
  63   1.0000      -0.486393       -13.2354 
  64   1.0000      -0.485054       -13.1990 
  65   1.0000      -0.456352       -12.4180 
  66   1.0000      -0.453393       -12.3374 
  67   1.0000      -0.450210       -12.2508 
  68   1.0000      -0.433623       -11.7995 
  69   1.0000      -0.431945       -11.7538 
  70   1.0000      -0.415548       -11.3076 
  71   1.0000      -0.354157        -9.6371 
  72   0.0000       0.012709         0.3458 
  73   0.0000       0.023987         0.6527 
  74   0.0000       0.024881         0.6770 
  75   0.0000       0.030931         0.8417 
  76   0.0000       0.039499         1.0748 
  77   0.0000       0.041327         1.1246 
  78   0.0000       0.042546         1.1577 
  79   0.0000       0.042981         1.1696 
  80   0.0000       0.044142         1.2012 
  81   0.0000       0.054295         1.4774 
  82   0.0000       0.056539         1.5385 
  83   0.0000       0.061480         1.6730 
  84   0.0000       0.062565         1.7025 
  85   0.0000       0.064592         1.7576 
  86   0.0000       0.065264         1.7759 
  87   0.0000       0.071508         1.9458 
  88   0.0000       0.077378         2.1056 
  89   0.0000       0.082089         2.2338 
  90   0.0000       0.089060         2.4234 
  91   0.0000       0.091087         2.4786 
  92   0.0000       0.093407         2.5417 
  93   0.0000       0.094457         2.5703 
  94   0.0000       0.099397         2.7047 
  95   0.0000       0.102452         2.7879 
  96   0.0000       0.103661         2.8208 
  97   0.0000       0.104361         2.8398 
  98   0.0000       0.105252         2.8641 
  99   0.0000       0.107990         2.9386 
 100   0.0000       0.110599         3.0095 
 101   0.0000       0.115770         3.1503 
 102   0.0000       0.119672         3.2564 
 103   0.0000       0.121758         3.3132 
 104   0.0000       0.124542         3.3890 
 105   0.0000       0.125807         3.4234 
 106   0.0000       0.126178         3.4335 
 107   0.0000       0.129152         3.5144 
 108   0.0000       0.131855         3.5880 
 109   0.0000       0.133293         3.6271 
 110   0.0000       0.137312         3.7364 
 111   0.0000       0.138813         3.7773 
 112   0.0000       0.144393         3.9291 
 113   0.0000       0.145710         3.9650 
 114   0.0000       0.149533         4.0690 
 115   0.0000       0.152017         4.1366 
 116   0.0000       0.157382         4.2826 
 117   0.0000       0.162212         4.4140 
 118   0.0000       0.163159         4.4398 
 119   0.0000       0.166085         4.5194 
 120   0.0000       0.169945         4.6244 
 121   0.0000       0.171557         4.6683 
 122   0.0000       0.176502         4.8029 
 123   0.0000       0.180302         4.9063 
 124   0.0000       0.183747         5.0000 
 125   0.0000       0.187169         5.0931 
 126   0.0000       0.188073         5.1177 
 127   0.0000       0.192413         5.2358 
 128   0.0000       0.196088         5.3358 
 129   0.0000       0.197875         5.3844 
 130   0.0000       0.199149         5.4191 
 131   0.0000       0.201970         5.4959 
 132   0.0000       0.204293         5.5591 
 133   0.0000       0.208895         5.6843 
 134   0.0000       0.214948         5.8490 
 135   0.0000       0.217226         5.9110 
 136   0.0000       0.222040         6.0420 
 137   0.0000       0.225547         6.1374 
 138   0.0000       0.227963         6.2032 
 139   0.0000       0.233490         6.3536 
 140   0.0000       0.236528         6.4363 
 141   0.0000       0.240704         6.5499 
 142   0.0000       0.240988         6.5576 
 143   0.0000       0.246647         6.7116 
 144   0.0000       0.248942         6.7741 
 145   0.0000       0.253017         6.8849 
 146   0.0000       0.255199         6.9443 
 147   0.0000       0.257670         7.0116 
 148   0.0000       0.259518         7.0618 
 149   0.0000       0.264837         7.2066 
 150   0.0000       0.268865         7.3162 
 151   0.0000       0.273432         7.4405 
 152   0.0000       0.278045         7.5660 
 153   0.0000       0.282232         7.6799 
 154   0.0000       0.284669         7.7462 
 155   0.0000       0.289717         7.8836 
 156   0.0000       0.295709         8.0467 
 157   0.0000       0.297243         8.0884 
 158   0.0000       0.300362         8.1733 
 159   0.0000       0.308162         8.3855 
 160   0.0000       0.309936         8.4338 
 161   0.0000       0.316441         8.6108 
 162   0.0000       0.320113         8.7107 
 163   0.0000       0.321302         8.7431 
 164   0.0000       0.329912         8.9774 
 165   0.0000       0.333481         9.0745 
 166   0.0000       0.335490         9.1292 
 167   0.0000       0.338789         9.2189 
 168   0.0000       0.341362         9.2889 
 169   0.0000       0.344215         9.3666 
 170   0.0000       0.350070         9.5259 
 171   0.0000       0.352863         9.6019 
 172   0.0000       0.358083         9.7439 
 173   0.0000       0.359745         9.7892 
 174   0.0000       0.361713         9.8427 
 175   0.0000       0.363599         9.8940 
 176   0.0000       0.368505        10.0275 
 177   0.0000       0.374839        10.1999 
 178   0.0000       0.376439        10.2434 
 179   0.0000       0.379754        10.3336 
 180   0.0000       0.382978        10.4214 
 181   0.0000       0.385301        10.4846 
 182   0.0000       0.387166        10.5353 
 183   0.0000       0.391861        10.6631 
 184   0.0000       0.393690        10.7128 
 185   0.0000       0.396491        10.7891 
 186   0.0000       0.398259        10.8372 
 187   0.0000       0.399719        10.8769 
 188   0.0000       0.402925        10.9641 
 189   0.0000       0.407475        11.0880 
 190   0.0000       0.408294        11.1103 
 191   0.0000       0.414993        11.2925 
 192   0.0000       0.415573        11.3083 
 193   0.0000       0.421256        11.4629 
 194   0.0000       0.425355        11.5745 
 195   0.0000       0.432902        11.7799 
 196   0.0000       0.435758        11.8576 
 197   0.0000       0.442225        12.0336 
 198   0.0000       0.445480        12.1221 
 199   0.0000       0.449253        12.2248 
 200   0.0000       0.451510        12.2862 
 201   0.0000       0.456260        12.4155 
 202   0.0000       0.459005        12.4902 
 203   0.0000       0.460044        12.5184 
 204   0.0000       0.461228        12.5506 
 205   0.0000       0.466064        12.6822 
 206   0.0000       0.473358        12.8807 
 207   0.0000       0.475239        12.9319 
 208   0.0000       0.479675        13.0526 
 209   0.0000       0.480619        13.0783 
 210   0.0000       0.487021        13.2525 
 211   0.0000       0.492280        13.3956 
 212   0.0000       0.493514        13.4292 
 213   0.0000       0.497356        13.5337 
 214   0.0000       0.500546        13.6206 
 215   0.0000       0.503381        13.6977 
 216   0.0000       0.508272        13.8308 
 217   0.0000       0.511822        13.9274 
 218   0.0000       0.512776        13.9533 
 219   0.0000       0.518699        14.1145 
 220   0.0000       0.519929        14.1480 
 221   0.0000       0.520247        14.1566 
 222   0.0000       0.524194        14.2641 
 223   0.0000       0.525879        14.3099 
 224   0.0000       0.528897        14.3920 
 225   0.0000       0.530806        14.4440 
 226   0.0000       0.533596        14.5199 
 227   0.0000       0.538507        14.6535 
 228   0.0000       0.540768        14.7150 
 229   0.0000       0.543839        14.7986 
 230   0.0000       0.544885        14.8271 
 231   0.0000       0.550375        14.9765 
 232   0.0000       0.551640        15.0109 
 233   0.0000       0.558463        15.1966 
 234   0.0000       0.559290        15.2191 
 235   0.0000       0.568959        15.4822 
 236   0.0000       0.570625        15.5275 
 237   0.0000       0.571493        15.5511 
 238   0.0000       0.574645        15.6369 
 239   0.0000       0.578115        15.7313 
 240   0.0000       0.584167        15.8960 
 241   0.0000       0.587383        15.9835 
 242   0.0000       0.587837        15.9959 
 243   0.0000       0.592871        16.1328 
 244   0.0000       0.597919        16.2702 
 245   0.0000       0.601470        16.3668 
 246   0.0000       0.604489        16.4490 
 247   0.0000       0.608033        16.5454 
 248   0.0000       0.613935        16.7060 
 249   0.0000       0.615267        16.7423 
 250   0.0000       0.619226        16.8500 
 251   0.0000       0.625600        17.0234 
 252   0.0000       0.629113        17.1190 
 253   0.0000       0.632327        17.2065 
 254   0.0000       0.636737        17.3265 
 255   0.0000       0.640685        17.4339 
 256   0.0000       0.644596        17.5404 
 257   0.0000       0.648470        17.6458 
 258   0.0000       0.651898        17.7390 
 259   0.0000       0.657110        17.8809 
 260   0.0000       0.660235        17.9659 
 261   0.0000       0.663530        18.0556 
 262   0.0000       0.667557        18.1652 
 263   0.0000       0.671132        18.2624 
 264   0.0000       0.676045        18.3961 
 265   0.0000       0.676372        18.4050 
 266   0.0000       0.681201        18.5364 
 267   0.0000       0.689348        18.7581 
 268   0.0000       0.691646        18.8206 
 269   0.0000       0.696638        18.9565 
 270   0.0000       0.697663        18.9844 
 271   0.0000       0.703352        19.1392 
 272   0.0000       0.709570        19.3084 
 273   0.0000       0.712720        19.3941 
 274   0.0000       0.719523        19.5792 
 275   0.0000       0.722519        19.6607 
 276   0.0000       0.723451        19.6861 
 277   0.0000       0.734864        19.9967 
 278   0.0000       0.735774        20.0214 
 279   0.0000       0.739641        20.1267 
 280   0.0000       0.745744        20.2927 
 281   0.0000       0.747979        20.3536 
 282   0.0000       0.755539        20.5593 
 283   0.0000       0.763084        20.7646 
[...]
  | sigma^2 in % of trace(Dpq) retained ...   1.39e-01
  | Av. % of trace(Di) retained         ...  99.998596514346
  | Av. % of trace(Dp) retained         ...  99.999998374211
  | sigma^2 in % of trace(Di) retained  ...   6.51e-07
  | sigma^2 in % of trace(Dp) retained  ...   3.42e-12
 Distributions of % trace(Dij) recovered:
  |       >= 99.9  ...   105 ( 22.5 % of all IJ-pairs)
  |   [80.0, 90.0) ...    20 (  4.3 % of all IJ-pairs)
  |   [90.0, 99.0) ...   259 ( 55.6 % of all IJ-pairs)
  |   [99.0, 99.9) ...    82 ( 17.6 % of all IJ-pairs)
 Distributions of % trace(Dip) recovered:
  |   [70.0, 80.0) ...     1 (  0.9 % of all IP-pairs)
  |   [80.0, 90.0) ...    11 (  9.7 % of all IP-pairs)
  |   [90.0, 99.0) ...    53 ( 46.9 % of all IP-pairs)
  |   [99.0, 99.9) ...    48 ( 42.5 % of all IP-pairs)
 Distributions of % trace(Dpq) recovered:
  |       >= 99.9  ...     5 ( 33.3 % of all PQ-pairs)
  |   [99.0, 99.9) ...    10 ( 66.7 % of all PQ-pairs)
 Distributions of % trace(Di) recovered :
  |       >= 99.9  ...    43 (100.0 % of all I-pairs )
 Distributions of % trace(Dp) recovered :
  |       >= 99.9  ...     5 (100.0 % of all P-pairs )

                       ===========================
                       1027 OF 1663 PAIRS ARE KEPT
                       ===========================

 Initial PAO correlation energy (all pairs)    ...  -2.6779056045 Eh
 Energy constituents in PAO basis (Eh):
  | Vijab(+0) ...  -2.2506726849
  | Viab (-1) ...  -0.1739762300
  | Vab  (-2) ...  -0.0573207457
  | Va   (-1) ...  -0.0000463041
  | Vija (+1) ...  -0.0714223393
  | Vij  (+2) ...  -0.0155661590
  | Via  (+0) ...  -0.1087345177
  | Vi   (+1) ...  -0.0001666238
 Initial PNO correlation energy                ...  -2.6439456497 Eh
 Energy constituents in PNO basis (Eh):
  | Vijab(+0) ...  -2.2320736330 (err=  0.0185990519)
  | Viab (-1) ...  -0.1601296141 (err=  0.0138466159)
  | Vab  (-2) ...  -0.0568629602 (err=  0.0004577856)
  | Va   (-1) ...  -0.0000268114 (err=  0.0000194927)
  | Vija (+1) ...  -0.0705339625 (err=  0.0008883768)
  | Vij  (+2) ...  -0.0155204933 (err=  0.0000456657)
  | Via  (+0) ...  -0.1086319447 (err=  0.0001025730)
  | Vi   (+1) ...  -0.0001662306 (err=  0.0000003933)
 Sum of total truncation errors ...   0.0339599548 Eh
  | Pair screening ...   0.0120724205 Eh
  | PNO truncation ...   0.0218875342 Eh

 UMP2 correlation energy (PAO) ...  -2.6727139712
  | alpha-alpha ...  -0.3826992457 (NP_aa=  893)
  | alpha-beta  ...  -1.9867542318 (NP_ab= 1638)
  | beta -beta  ...  -0.3032604937 (NP_bb=  712)
 UMP2 correlation energy (PNO) ...  -2.6383982800
  | alpha-alpha ...  -0.3707098099 (err=  0.0119894358, NP_aa=  546)
  | alpha-beta  ...  -1.9685281797 (err=  0.0182260520, NP_ab= 1002)
  | beta -beta  ...  -0.2991602903 (err=  0.0041002034, NP_bb=  423)
 Sum of total UMP2 truncation errors ...   0.0343156912 Eh
  | Pair screening ...   0.0120786777 Eh
  | PNO truncation ...   0.0222370135 Eh
 Timing for NEV-PNO construction (sec.)
  | Intermediate construction  ..           47.378
  | Amplitude construction     ..           59.980
  | Total time                 ..          107.358
 Making pair pair interaction lists ...      ok
 Total size for 2-ext PNO integrals ...     10.4 MB
Checking the number of SOMO/SOMO doubles PNOs ... 
 #Truncate: (72, 72)[172] -> [86] .. 
 #Truncate: (73, 73)[172] -> [86] .. 
 #Truncate: (74, 74)[173] -> [86] .. 
 #Truncate: (75, 75)[174] -> [86] .. 
 #Truncate: (76, 76)[172] -> [86] .. 

--------------------------------
LOCAL RI TRANSFORMATION (VABPAO)
--------------------------------

Number of PAOs:    1030
Basis functions:   1025 (343 shells)
Aux. functions:    2424 (644 shells)

Processing maps (0.0 sec)
Average map sizes:
   Aux shells -> PAOs           1030.0
   PAOs       -> AO shells       343.0

Calculating integrals (216.8 sec, 37370.165 MB)
Finished
-----------------------------
LOCAL RI TRANSFORMATION (IJV)
-----------------------------

Orbital window:      29 to 76
Basis functions:   1025 (343 shells)
Aux. functions:    2424 (644 shells)

Processing maps (0.0 sec)
Average map sizes:
   Aux shells -> MOs(i)           46.3
   Aux shells -> MOs(j)           48.0
   MOs        -> AO shells       341.1

Calculating integrals (23.5 sec, 41.189 MB)
Sorting integrals (0.4 sec, 41.162 MB)
Total time for the integral transformation: 24.0 sec


-------------------------------------
Pair Pair Term precalculation with     
RI-(ij|mn) and (im|jn) transformation  
ON THE FLY                             
-------------------------------------

   IBatch   1 (of   2)              ... done ( 1424.206 sec)
   IBatch   2 (of   2)              ... done (  754.764 sec)
Total EXT                           ...        2178.970 sec

---------------------
RI-PNO TRANSFORMATION
---------------------

Total Number of PNOs                   ... 32175
Total Number of IJ-PNOs                ... 28091
Total Number of IP-PNOs                ...  3126
Total Number of PQ-PNOs                ...   958
Total Number of IJ-pairs               ...   889
Total Number of PI-pairs               ...   113
Total Number of PQ-pairs               ...    25
Average number of PNOs per pair        ...    31
Maximal number of PNOs per pair        ...    86
>> Statistics for ij-pairs..
   #pairs with  1 -  5 PNOs   :    0
   #pairs with  6 - 10 PNOs   :    0
   #pairs with 11 - 15 PNOs   :   90
   #pairs with 16 - 20 PNOs   :  164
   #pairs with 21 - 25 PNOs   :  178
   #pairs with 26 - 30 PNOs   :  114
   #pairs with 31 - 35 PNOs   :   58
   #pairs with 36 - 40 PNOs   :   54
   #pairs with 41 - 45 PNOs   :   44
   #pairs with 46 - 50 PNOs   :   18
   #pairs with 51 - 55 PNOs   :   35
   #pairs with 56 - 60 PNOs   :   54
   #pairs with 61 - 65 PNOs   :   75
   #pairs with 66 - 70 PNOs   :    3
   #pairs with 76 - 80 PNOs   :    2
>> Statistics for ip-pairs..
   #pairs with  1 -  5 PNOs   :    0
   #pairs with  6 - 10 PNOs   :    2
   #pairs with 11 - 15 PNOs   :   11
   #pairs with 16 - 20 PNOs   :   13
   #pairs with 21 - 25 PNOs   :   19
   #pairs with 26 - 30 PNOs   :    8
   #pairs with 31 - 35 PNOs   :   47
   #pairs with 36 - 40 PNOs   :   11
   #pairs with 41 - 45 PNOs   :    2
   #pairs with 46 - 50 PNOs   :    0
>> Statistics for pq-pairs..
   #pairs with  1 -  5 PNOs   :    0
   #pairs with  6 - 10 PNOs   :    0
   #pairs with 11 - 15 PNOs   :    0
   #pairs with 16 - 20 PNOs   :    0
   #pairs with 21 - 25 PNOs   :   10
   #pairs with 26 - 30 PNOs   :   10
   #pairs with 31 - 35 PNOs   :    0
   #pairs with 36 - 40 PNOs   :    0
   #pairs with 41 - 45 PNOs   :    0
   #pairs with 46 - 50 PNOs   :    0
   #pairs with 86 - 90 PNOs   :    5

Generation of (ij|ab)[P] integrals            ... on
Generation of (ia|bc)[P],(ja|bc)[P] integrals ... on
Storage of 3 and 4 external integrals         ... on
Generation of ALL (ka|bc)[P] integrals        ... on
Keep RI integrals in memory                   ... off

Ibatch:  1 (of  1)
Starting 2-4 index PNO integral generation ... done

Timings:
Total PNO integral transformation time     ...       2047.691 sec
Size of the 3-external file                ...       277 MB
Size of the 4-external file                ...      1896 MB
Size of the IKJL file                      ...        16 MB
Size of the all 3-external file            ...      6652 MB
Size of the 1-external file                ...        20 MB

Size of the PAO/PNO coefficient matrices   ...     202.3 MB

Making pair/pair overlap matrices          ... done (  342.154 sec)
Size of the pair overlap file              ...    2208.0 MB
Total # unrestricted pairs ...       1971
  # of alpha-alpha pairs   ...        546
  # of alpha-beta pairs    ...       1002
  # of beta-beta pairs     ...        423
Constructing the guess amplitudes          ... done (    0.550 sec)

-------------------------
FINAL STARTUP INFORMATION
-------------------------

E(0)                                       ...  -3028.474164438
E(SL-UMP2 in NEV-PNO space)                ...     -2.673667837
Initial E(tot)                             ...  -3031.147832275
<T|T>                                      ...      0.531823311
Number of unrestricted pairs included      ... 1971
Total number of pairs                      ... 4095
----------------------------------------------------------
                     OPEN-SHELL COUPLED CLUSTER ITERATIONS
----------------------------------------------------------

Number of PNO amplitudes to be optimized        ...          1993964
Number of canonical amplitudes for strong pairs ...       1780202162
Untruncated number of canonical amplitudes      ...       3698645738

Iter       E(tot)           E(Corr)          Delta-E          Residual     Time
  0  -3031.155112349     -2.645678353      0.027989484      0.021094233 1569.78
                           *** Turning on DIIS ***
  1  -3031.272210737     -2.762776741     -0.117098388      0.011211740 1493.97
  2  -3031.337329987     -2.827895992     -0.065119250      0.008441419 1308.63
  3  -3031.359587766     -2.850153771     -0.022257779      0.003448433 1312.27
  4  -3031.367398010     -2.857964015     -0.007810244      0.002650340 1315.71
  5  -3031.371708427     -2.862274432     -0.004310417      0.001501308 1311.99
  6  -3031.373298466     -2.863864471     -0.001590039      0.000758338 1313.45
  7  -3031.373956611     -2.864522616     -0.000658145      0.000468239 1310.41
  8  -3031.374105007     -2.864671012     -0.000148396      0.000219973 1337.08
  9  -3031.374164553     -2.864730558     -0.000059546      0.000147417 1345.14
 10  -3031.374168146     -2.864734151     -0.000003593      0.000081190 1353.34
 11  -3031.374180784     -2.864746788     -0.000012637      0.000065100 1359.07
 12  -3031.374185827     -2.864751831     -0.000005043      0.000039355 1254.41
 13  -3031.374187992     -2.864753996     -0.000002165      0.000017532 1253.99
 14  -3031.374189586     -2.864755591     -0.000001595      0.000012377 1226.74
 15  -3031.374188820     -2.864754825      0.000000766      0.000005238 1232.81
               --- The CCSD iterations have converged ---

E(0)                                       ...  -3028.474164438
E(CORR)(strong-pairs)                      ...     -2.864754825
E(CORR)(weak-pairs)                        ...     -0.035269557
E(CORR)(corrected)                         ...     -2.900024382
E(TOT)                                     ...  -3031.374188820
Singles norm <S|S>**1/2                    ...      0.196642222 ( 0.064488705, 0.132153517)  
T1 diagnostic                              ...      0.020613706                              
<S**2>(linearized)                         ...      8.7508714 (ideal value:      8.7500000)

----------------------
LARGEST PNO AMPLITUDES
----------------------
  47a-> 77a  47b-> 77b       0.056770
  49b-> 72b  -1b-> -1b       0.055146
  52b-> 73b  -1b-> -1b       0.054566
  46a-> 77a  46b-> 77b       0.054328
  51b-> 73b  -1b-> -1b       0.053028
  44a-> 77a  44b-> 77b       0.047671
  49b-> 76b  -1b-> -1b       0.047168
  49b-> 75b  -1b-> -1b       0.046498
  42b-> 74b  -1b-> -1b       0.045776
  56a-> 77a  56b-> 77b       0.045585
  35b-> 72b  -1b-> -1b       0.045094
  43a-> 77a  43b-> 77b       0.044791
  38b-> 74b  -1b-> -1b       0.044532
  55a-> 77a  55b-> 77b       0.043977
  47a-> 77a  46b-> 77b       0.043818
  46a-> 77a  47b-> 77b       0.043817

Total # unrestricted pairs ...       1272
  # of alpha-alpha pairs   ...        347
  # of alpha-beta pairs    ...        636
  # of beta-beta pairs     ...        289

-------------------------------------------
DLPNO BASED TRIPLES CORRECTION
-------------------------------------------

Singles multiplier          ...  1.000000
Fragment selection                          .... not used
TCutTNO                     ... 1.000e-09
TCutMP2Pairs                ... 1.000e-05
TCutDOStrong                ... 2.000e-02
TCutMKNStrong               ... 1.000e-02
TCutDOWeak                  ... 4.000e-02
TCutMKNWeak                 ... 1.000e-01
NTCutTNO                    ... 1

Number of Triples that are to be computed         ...     29928

 . . . . . . . . .
10% done  
20% done  
30% done  
40% done  
50% done  
60% done  
70% done  
80% done  
90% done  
          Batch   1   done (  11384.356 sec)

Triples-Correction TCutTNO=   1.000e-09 (NWeakPairs = 0  1  2  3)  -0.115752057192   -0.001690827846    0.000000000000    0.000000000000
Triples-Correction  -0.117442885037

Triples timings:
Total time                      ... 11862.284 sec

Triples List generation         ...     0.000 sec
TNO generation                  ...   477.686 sec
Pair density generation         ...     0.085 sec
Look up tables                  ...     0.097 sec
Generating 3-index integrals    ...  6870.195 sec
Make 4-ind.int. from 3-ind.int  ...     2.803 sec
Projecting amplitudes (D + S)   ...  4309.903 sec
Sorting integrals for spin cases...    42.027 sec
Calculate W0/W1                 ...   128.957 sec
Energy contr. (sum over a,b,c)  ...    30.358 sec

Everything after 3-index        ...  4613.951 sec

Energy contribution AAA         ...    19.629 sec
Energy contribution AAB         ...    89.719 sec
Energy contribution ABB         ...    81.473 sec
Energy contribution BBB         ...    10.552 sec
prep                ...     2.556 sec
makeTTNO            ...  4265.142 sec
copyij              ...     0.106 sec
copyil              ...     3.343 sec
transposeij         ...     0.064 sec
newMatInDoubleProj  ...    41.895 sec
BlasInDoubleProj    ...  2285.998 sec
ProjSingles         ...    36.702 sec
ProjDoubles         ...  4273.200 sec
overall Doubles for projection      ... 2643786
used Doubles for projection         ... 2643786


Number of Triples   (0, 1, 2, 3 weak pairs; overall):  13917   10815       0       0  ( 24732)
Number of Atoms     (0, 1, 2, 3 weak pairs; overall):   18.4    13.5     0.0     0.0  (    29)
Number of PAOs      (0, 1, 2, 3 weak pairs; overall):  727.3   546.4     0.0     0.0  (  1025)
Number of AuxFcns   (0, 1, 2, 3 weak pairs; overall):  856.4   571.0     0.0     0.0  (  2424)
Number of TNOs (0, 1, 2, 3 weak pairs         ):   78.0    55.8     0.0     0.0
Aver. Number of NTNO, Atoms, PAOs, AuxFcns / Triples:  24732    68.3    16.2   648.2   731.6

Triples Correction (T)                     ...     -0.117442885
    alpha-alpha-alpha ... -0.003717137 (  3.2%)
    alpha-alpha-beta  ... -0.055181118 ( 47.0%)
    alpha-beta -beta  ... -0.054547669 ( 46.4%)
    beta -beta -beta  ... -0.003996961 (  3.4%)
Final correlation energy                   ...     -3.017467267
E(CCSD)                                    ...  -3031.374188820
E(CCSD(T))                                 ...  -3031.491631705

----------------------------
STATISTICS FOR PAIR-ENERGIES
----------------------------
Minimum, maximum and average ratios of UMP and CCSD pair-energies ... 0.45, 1.46, 1.03


------------------------------------------------------------------------------- 
                                     TIMINGS                                   
------------------------------------------------------------------------------- 


Total execution time                   ...    41675.605 sec

Localization of occupied MO's          ...       12.439 sec (  0.0%)
Fock Matrix Formation                  ...     1606.197 sec (  3.9%)
Differential overlap integrals         ...        1.496 sec (  0.0%)
Organizing maps                        ...        1.749 sec (  0.0%)
RI 3-index integral generations        ...      316.085 sec (  0.8%)
RI-PNO integral transformation         ...     4643.828 sec ( 11.1%)
Initial Guess                          ...     1979.783 sec (  4.8%)
DIIS Solver                            ...       16.391 sec (  0.0%)
State Vector Update                    ...        0.752 sec (  0.0%)
Sigma-vector construction              ...    21298.774 sec ( 51.1%)
  <0|H|D>                              ...        0.029 sec (  0.0% of sigma)
  <D|H|D>(0-ext)                       ...     3857.547 sec ( 18.1% of sigma)
  <D|H|D>(2-ext Fock)                  ...        1.052 sec (  0.0% of sigma)
  <D|H|D>(2-ext)                       ...     3097.781 sec ( 14.5% of sigma)
  <D|H|D>(4-ext)                       ...      144.460 sec (  0.7% of sigma)
  <D|H|D>(4-ext-corr)                  ...      890.934 sec (  4.2% of sigma)
  CCSD doubles correction              ...      369.434 sec (  1.7% of sigma)
  <S|H|S>                              ...      625.789 sec (  2.9% of sigma)
  <S|H|D>(1-ext)                       ...      229.662 sec (  1.1% of sigma)
  <D|H|S>(1-ext)                       ...        0.695 sec (  0.0% of sigma)
  <S|H|D>(3-ext)                       ...       18.143 sec (  0.1% of sigma)
  CCSD singles correction              ...        0.004 sec (  0.0% of sigma)
  Fock-dressing                        ...     5951.323 sec ( 27.9% of sigma)
  Singles amplitudes                   ...       91.393 sec (  0.4% of sigma)
  (ik|jl)-dressing                     ...     4720.974 sec ( 22.2% of sigma)
  (ij|ab),(ia|jb)-dressing             ...     1119.634 sec (  5.3% of sigma)
  Pair energies                        ...        0.111 sec (  0.0% of sigma)
Total Time for computing (T)           ...    12173.793 sec ( 29.2% of ALL)


-------------------------   --------------------
FINAL SINGLE POINT ENERGY     -3031.491631705369
-------------------------   --------------------


                            ***************************************
                            *     ORCA property calculations      *
                            ***************************************

                                    ---------------------
                                    Active property flags
                                    ---------------------
   (+) Dipole Moment


------------------------------------------------------------------------------
                       ORCA ELECTRIC PROPERTIES CALCULATION
------------------------------------------------------------------------------

Dipole Moment Calculation                       ... on
Quadrupole Moment Calculation                   ... off
Polarizability Calculation                      ... off
GBWName                                         ... simple-grid-295-290-b3lyp_d3bj-631gd-gas-singlepoint-DLPNO_CCSD_T1-NormalPNO-augtz-gas.gbw
Electron density file                           ... simple-grid-295-290-b3lyp_d3bj-631gd-gas-singlepoint-DLPNO_CCSD_T1-NormalPNO-augtz-gas.scfp.tmp
The origin for moment calculation is the CENTER OF MASS  = (-0.314107, -0.044607  0.016442)

-------------
DIPOLE MOMENT
-------------
                                X             Y             Z
Electronic contribution:    -43.75605      -4.98353       1.85497
Nuclear contribution   :     46.80195       6.64638      -2.44986
                        -----------------------------------------
Total Dipole Moment    :      3.04590       1.66285      -0.59489
                        -----------------------------------------
Magnitude (a.u.)       :      3.52086
Magnitude (Debye)      :      8.94932



--------------------
Rotational spectrum 
--------------------
 
Rotational constants in cm-1:     0.018613     0.010611     0.009993 
Rotational constants in MHz :   558.004244   318.111712   299.585844 

 Dipole components along the rotational axes: 
x,y,z [a.u.] :     3.039250    -1.660109    -0.635186 
x,y,z [Debye]:     7.725159    -4.219661    -1.614514 

 

Timings for individual modules:

Sum of individual times         ...    59057.744 sec (= 984.296 min)
GTO integral calculation        ...       11.910 sec (=   0.199 min)   0.0 %
SCF iterations                  ...    17353.966 sec (= 289.233 min)  29.4 %
MDCI module                     ...    41691.867 sec (= 694.864 min)  70.6 %
                             ****ORCA TERMINATED NORMALLY****
TOTAL RUN TIME: 0 days 16 hours 24 minutes 20 seconds 208 msec
