
                                 *****************
                                 * O   R   C   A *
                                 *****************

           --- An Ab Initio, DFT and Semiempirical electronic structure package ---

                  #######################################################
                  #                        -***-                        #
                  #          Department of theory and spectroscopy      #
                  #               Directorship: Frank Neese             #
                  #        Max Planck Institute fuer Kohlenforschung    #
                  #                Kaiser Wilhelm Platz 1               #
                  #                 D-45470 Muelheim/Ruhr               #
                  #                      Germany                        #
                  #                                                     #
                  #                  All rights reserved                #
                  #                        -***-                        #
                  #######################################################


                         Program Version 4.1.2  - RELEASE  -


 With contributions from (in alphabetic order):
   Daniel Aravena         : Magnetic Properties
   Michael Atanasov       : Ab Initio Ligand Field Theory
   Alexander A. Auer      : GIAO ZORA
   Ute Becker             : Parallelization
   Giovanni Bistoni       : ED, Open-shell LED
   Martin Brehm           : Molecular dynamics
   Dmytro Bykov           : SCF Hessian
   Vijay G. Chilkuri      : MRCI spin determinant printing
   Dipayan Datta          : RHF DLPNO-CCSD density
   Achintya Kumar Dutta   : EOM-CC, STEOM-CC
   Dmitry Ganyushin       : Spin-Orbit,Spin-Spin,Magnetic field MRCI
   Miquel Garcia          : C-PCM Hessian
   Yang Guo               : DLPNO-NEVPT2, CIM, IAO-localization
   Andreas Hansen         : Spin unrestricted coupled pair/coupled cluster methods
   Benjamin Helmich-Paris : CASSCF linear response (MC-RPA)
   Lee Huntington         : MR-EOM, pCC
   Robert Izsak           : Overlap fitted RIJCOSX, COSX-SCS-MP3, EOM
   Christian Kollmar      : KDIIS, OOCD, Brueckner-CCSD(T), CCSD density
   Simone Kossmann        : Meta GGA functionals, TD-DFT gradient, OOMP2, MP2 Hessian
   Martin Krupicka        : AUTO-CI
   Lucas Lang             : DCDCAS
   Dagmar Lenk            : GEPOL surface, SMD
   Dimitrios Liakos       : Extrapolation schemes; parallel MDCI
   Dimitrios Manganas     : ROCIS; embedding schemes
   Dimitrios Pantazis     : SARC Basis sets
   Taras Petrenko         : DFT Hessian,TD-DFT gradient, ASA, ECA, R-Raman, ABS, FL, XAS/XES, NRVS
   Peter Pinski           : DLPNO-MP2, DLPNO-MP2 Gradient
   Christoph Reimann      : Effective Core Potentials
   Marius Retegan         : Local ZFS, SOC
   Christoph Riplinger    : Optimizer, TS searches, QM/MM, DLPNO-CCSD(T), (RO)-DLPNO pert. Triples
   Tobias Risthaus        : Range-separated hybrids, TD-DFT gradient, RPA, STAB
   Michael Roemelt        : Restricted open shell CIS
   Masaaki Saitow         : Open-shell DLPNO
   Barbara Sandhoefer     : DKH picture change effects
   Avijit Sen             : IP-ROCIS
   Kantharuban Sivalingam : CASSCF convergence, NEVPT2, FIC-MRCI
   Bernardo de Souza      : ESD, SOC TD-DFT
   Georgi Stoychev        : AutoAux, RI-MP2 NMR
   Willem Van den Heuvel  : Paramagnetic NMR
   Boris Wezisla          : Elementary symmetry handling
   Frank Wennmohs         : Technical directorship


 We gratefully acknowledge several colleagues who have allowed us to
 interface, adapt or use parts of their codes:
   Stefan Grimme, W. Hujo, H. Kruse,             : VdW corrections, initial TS optimization,
                  C. Bannwarth                     DFT functionals, gCP, sTDA/sTD-DF
   Ed Valeev                                     : LibInt (2-el integral package), F12 methods
   Garnet Chan, S. Sharma, J. Yang, R. Olivares  : DMRG
   Ulf Ekstrom                                   : XCFun DFT Library
   Mihaly Kallay                                 : mrcc  (arbitrary order and MRCC methods)
   Andreas Klamt, Michael Diedenhofen            : otool_cosmo (COSMO solvation model)
   Jiri Pittner, Ondrej Demel                    : Mk-CCSD
   Frank Weinhold                                : gennbo (NPA and NBO analysis)
   Christopher J. Cramer and Donald G. Truhlar   : smd solvation model
   Lars Goerigk                                  : TD-DFT with DH, B97 family of functionals
   V. Asgeirsson, H. Jonsson                     : NEB implementation
   FAccTs GmbH                                   : IRC, NEB, NEB-TS, Multilevel


 Your calculation uses the libint2 library for the computation of 2-el integrals
 For citations please refer to: http://libint.valeyev.net

 This ORCA versions uses:
   CBLAS   interface :  Fast vector & matrix operations
   LAPACKE interface :  Fast linear algebra routines
   SCALAPACK package :  Parallel linear algebra routines


----- Orbital basis set information -----
Your calculation utilizes the basis: aug-cc-pVTZ 
    H, B-Ne : Obtained from the ccRepo (grant-hill.group.shef.ac.uk/ccrepo) Feb. 2017
              R. A. Kendall, T. H. Dunning, Jr., R. J. Harrison, J. Chem. Phys. 96, 6796 (1992)
         He : Obtained from the ccRepo (grant-hill.group.shef.ac.uk/ccrepo) Feb. 2017
              D. E. Woon, T. H. Dunning, Jr., J. Chem. Phys. 100, 2975 (1994)
  Li-Be, Na : Obtained from the ccRepo (grant-hill.group.shef.ac.uk/ccrepo) Feb. 2017
              B. P. Prascher, D. E. Woon, K. A. Peterson, T. H. Dunning, Jr., A. K. Wilson, Theor. Chem. Acc. 128, 69 (2011)
         Mg : Obtained from the Peterson Research Group Website (tyr0.chem.wsu.edu/~kipeters) Feb. 2017
              B. P. Prascher, D. E. Woon, K. A. Peterson, T. H. Dunning, Jr., A. K. Wilson, Theor. Chem. Acc. 128, 69 (2011)
      Al-Ar : Obtained from the ccRepo (grant-hill.group.shef.ac.uk/ccrepo) Feb. 2017
              D. E. Woon, T. H. Dunning, Jr., J. Chem. Phys. 98, 1358 (1993)
      Sc-Zn : Obtained from the ccRepo (grant-hill.group.shef.ac.uk/ccrepo) Feb. 2017
              N. B. Balabanov, K. A. Peterson, J. Chem. Phys. 123, 064107 (2005)
              N. B. Balabanov, K. A. Peterson, J. Chem. Phys. 125, 074110 (2006)
      Ga-Kr : Obtained from the ccRepo (grant-hill.group.shef.ac.uk/ccrepo) Feb. 2017
              A. K. Wilson, D. E. Woon, K. A. Peterson, T. H. Dunning, Jr., J. Chem. Phys. 110, 7667 (1999)
     Ag, Au : Obtained from the Peterson Research Group Website (tyr0.chem.wsu.edu/~kipeters) Feb. 2017
              K. A. Peterson, C. Puzzarini, Theor. Chem. Acc. 114, 283 (2005)

----- AuxJ basis set information -----
Your calculation utilizes the AutoAux generation procedure.
  G. L. Stoychev, A. A. Auer, F. Neese, J. Chem. Theory Comput. 13, 554 (2017)

----- AuxC basis set information -----
Your calculation utilizes the auxiliary basis: aug-cc-pVTZ/C 
  H-He, B-F, Al-Ar, Ga-Kr : Obtained from the EMSL Basis Set Exchange (bse.pnl.gov) Feb. 2017
                            F. Weigend, A. Kohn, C. Hattig, J. Chem. Phys. 116, 3175 (2002)
                   Be, Mg : Obtained from the TURBOMOLE 7.0 basis set library
                            C. Haettig, Phys. Chem. Chem. Phys. 7, 59 (2005)
                       Ne : Obtained from the EMSL Basis Set Exchange (bse.pnl.gov) Feb. 2017
                            C. Haettig, Phys. Chem. Chem. Phys. 7, 59 (2005)
                            F. Weigend, A. Kohn, C. Hattig, J. Chem. Phys. 116, 3175 (2002)
                    Sc-Zn : Obtained from the EMSL Basis Set Exchange (bse.pnl.gov) Feb. 2017
                            J. G. Hill, J. A. Platts, J. Chem. Phys. 128, 044104 (2008)

----- AuxJK basis set information -----
Your calculation utilizes the AutoAux generation procedure.
  G. L. Stoychev, A. A. Auer, F. Neese, J. Chem. Theory Comput. 13, 554 (2017)

================================================================================
                                        WARNINGS
                       Please study these warnings very carefully!
================================================================================


WARNING: your system is open-shell and RHF/RKS was chosen
  ===> : WILL SWITCH to UHF/UKS


WARNING: MDCI localization with Augmented Hessian Foster-Boys
  ===> : Switching off randomization!

WARNING: Post HF methods need fully converged wavefunctions
  ===> : Setting SCFConvForced true
         You can overwrite this default with %scf ConvForced false 


INFO   : the flag for use of LIBINT has been found!

================================================================================
                                       INPUT FILE
================================================================================
NAME = simple-grid-280-285-b3lyp_d3bj-631gd-gas-singlepoint-DLPNO_CCSD_T1-NormalPNO-augtz-gas.inp
|  1> ! aug-cc-pVTZ aug-cc-pVTZ/C DLPNO-CCSD(T1) TightSCF NormalPNO UNO MiniPrint AutoAux
|  2> %pal nproc 10 end
|  3> %maxcore 20000
|  4> %mdci
|  5>      density none
|  6> end
|  7> 
|  8> * xyz 0 6
|  9>  O      0.20190000      0.39591900     -0.86472900
| 10>  C      0.95940000      1.37098400     -0.66062700
| 11>  C      3.13058200      0.05759800      0.52300500
| 12>  C      2.62965600     -0.94973300     -0.21841000
| 13>  C      3.04423100     -1.15041300     -1.65152000
| 14> Fe     -1.47787700     -0.16363700      0.02194700
| 15> Cl     -2.07574600     -1.97018400     -1.02704900
| 16>  C      1.69031200     -1.99923200      0.30128700
| 17> Cl     -2.71295300      1.60485200     -0.34830600
| 18> Cl     -1.07431700     -0.44485100      2.15950400
| 19>  H      3.85922100      0.71392400      0.04526800
| 20>  H      2.19923100     -2.97260900      0.31987900
| 21>  H      1.31434600     -1.79639900      1.30368200
| 22>  H      0.83250700     -2.11878000     -0.37179800
| 23>  H      3.52223500     -2.13153600     -1.77103100
| 24>  H      2.16871800     -1.15260800     -2.31422600
| 25>  H      3.75102300     -0.38894200     -1.99413200
| 26>  C      2.94506400      0.27242600      2.00067500
| 27>  H      3.77486200     -0.18313400      2.55843100
| 28>  H      2.94898500      1.33798900      2.25412000
| 29>  H      2.01686900     -0.16064400      2.38187000
| 30>  C      0.81631100      2.22162200      0.56087600
| 31>  H      1.70027200      2.83551200      0.73769600
| 32>  H     -0.04109700      2.88597000      0.37565500
| 33>  H      0.57783300      1.62377700      1.44116600
| 34>  C      1.78170200      1.88447500     -1.80152500
| 35>  H      1.21709900      2.72384600     -2.23400400
| 36>  H      2.74532500      2.27248200     -1.46756200
| 37>  H      1.90989600      1.12511100     -2.57090000
| 38> *
| 39> 
| 40> 
| 41>                          ****END OF INPUT****
================================================================================

                       ****************************
                       * Single Point Calculation *
                       ****************************

---------------------------------
CARTESIAN COORDINATES (ANGSTROEM)
---------------------------------
  O      0.201900    0.395919   -0.864729
  C      0.959400    1.370984   -0.660627
  C      3.130582    0.057598    0.523005
  C      2.629656   -0.949733   -0.218410
  C      3.044231   -1.150413   -1.651520
  Fe    -1.477877   -0.163637    0.021947
  Cl    -2.075746   -1.970184   -1.027049
  C      1.690312   -1.999232    0.301287
  Cl    -2.712953    1.604852   -0.348306
  Cl    -1.074317   -0.444851    2.159504
  H      3.859221    0.713924    0.045268
  H      2.199231   -2.972609    0.319879
  H      1.314346   -1.796399    1.303682
  H      0.832507   -2.118780   -0.371798
  H      3.522235   -2.131536   -1.771031
  H      2.168718   -1.152608   -2.314226
  H      3.751023   -0.388942   -1.994132
  C      2.945064    0.272426    2.000675
  H      3.774862   -0.183134    2.558431
  H      2.948985    1.337989    2.254120
  H      2.016869   -0.160644    2.381870
  C      0.816311    2.221622    0.560876
  H      1.700272    2.835512    0.737696
  H     -0.041097    2.885970    0.375655
  H      0.577833    1.623777    1.441166
  C      1.781702    1.884475   -1.801525
  H      1.217099    2.723846   -2.234004
  H      2.745325    2.272482   -1.467562
  H      1.909896    1.125111   -2.570900

----------------------------
CARTESIAN COORDINATES (A.U.)
----------------------------
  NO LB      ZA    FRAG     MASS         X           Y           Z
   0 O     8.0000    0    15.999    0.381536    0.748178   -1.634101
   1 C     6.0000    0    12.011    1.813003    2.590784   -1.248404
   2 C     6.0000    0    12.011    5.915943    0.108844    0.988336
   3 C     6.0000    0    12.011    4.969330   -1.794735   -0.412735
   4 C     6.0000    0    12.011    5.752763   -2.173966   -3.120921
   5 Fe   26.0000    0    55.850   -2.792783   -0.309229    0.041474
   6 Cl   17.0000    0    35.453   -3.922591   -3.723108   -1.940841
   7 C     6.0000    0    12.011    3.194227   -3.778001    0.569350
   8 Cl   17.0000    0    35.453   -5.126738    3.032731   -0.658203
   9 Cl   17.0000    0    35.453   -2.030165   -0.840647    4.080871
  10 H     1.0000    0     1.008    7.292871    1.349121    0.085544
  11 H     1.0000    0     1.008    4.155944   -5.617417    0.604484
  12 H     1.0000    0     1.008    2.483754   -3.394702    2.463602
  13 H     1.0000    0     1.008    1.573210   -4.003914   -0.702596
  14 H     1.0000    0     1.008    6.656060   -4.028019   -3.346764
  15 H     1.0000    0     1.008    4.098283   -2.178113   -4.373253
  16 H     1.0000    0     1.008    7.088406   -0.734994   -3.768363
  17 C     6.0000    0    12.011    5.565364    0.514811    3.780728
  18 H     1.0000    0     1.008    7.133455   -0.346073    4.834734
  19 H     1.0000    0     1.008    5.572774    2.528433    4.259669
  20 H     1.0000    0     1.008    3.811330   -0.303573    4.501082
  21 C     6.0000    0    12.011    1.542604    4.198257    1.059902
  22 H     1.0000    0     1.008    3.213048    5.358341    1.394043
  23 H     1.0000    0     1.008   -0.077662    5.453693    0.709885
  24 H     1.0000    0     1.008    1.091946    3.068494    2.723409
  25 C     6.0000    0    12.011    3.366929    3.561142   -3.404389
  26 H     1.0000    0     1.008    2.299984    5.147323   -4.221656
  27 H     1.0000    0     1.008    5.187912    4.294369   -2.773290
  28 H     1.0000    0     1.008    3.609180    2.126152   -4.858297



           ************************************************************
           *        Program running with 10 parallel MPI-processes    *
           *              working on a common directory               *
           ************************************************************


           ************************************************************
           *        Program running with 10 parallel MPI-processes    *
           *              working on a common directory               *
           ************************************************************

Diagonalization of the overlap matrix:
Smallest eigenvalue                        ... 8.744e-07
Time for diagonalization                   ...    0.345 sec
Threshold for overlap eigenvalues          ... 1.000e-08
Number of eigenvalues below threshold      ... 0
Time for construction of square roots      ...    0.281 sec
Total time needed                          ...    0.633 sec

-------------------
DFT GRID GENERATION
-------------------

General Integration Accuracy     IntAcc      ...  4.340
Radial Grid Type                 RadialGrid  ... Gauss-Chebyshev
Angular Grid (max. acc.)         AngularGrid ... Lebedev-110
Angular grid pruning method      GridPruning ... 3 (G Style)
Weight generation scheme         WeightScheme... Becke
Basis function cutoff            BFCut       ...    1.0000e-11
Integration weight cutoff        WCut        ...    1.0000e-14
Grids for H and He will be reduced by one unit

# of grid points (after initial pruning)     ...  36112 (   0.0 sec)
# of grid points (after weights+screening)   ...  32456 (   0.1 sec)
nearest neighbour list constructed           ...    0.0 sec
Grid point re-assignment to atoms done       ...    0.0 sec
Grid point division into batches done        ...    0.0 sec
Reduced shell lists constructed in    0.3 sec

Total number of grid points                  ...    32456
Total number of batches                      ...      521
Average number of points per batch           ...       62
Average number of grid points per atom       ...     1119
Average number of shells per batch           ...   285.57 (83.26%)
Average number of basis functions per batch  ...   845.87 (82.52%)
Average number of large shells per batch     ...   230.61 (80.75%)
Average number of large basis fcns per batch ...   683.91 (80.85%)
Maximum spatial batch extension              ...   4.26,  4.23,  4.62 au
Average spatial batch extension              ...   0.19,  0.20,  0.18 au

Time for grid setup =    0.429 sec

Loading Hartree-Fock densities                     ... done
Calculating cut-offs                               ... done
Setting up the integral package                    ... done
Initializing the effective Hamiltonian             ... done
Starting the Coulomb interaction                   ... done (   1.1 sec)
Reading the grid                                   ... done
Mapping shells                                     ... done
Starting the XC term evaluation                    ... done (   0.9 sec)
Transforming the Hamiltonian                       ... done (   0.2 sec)
Diagonalizing the Hamiltonian                      ... done (   0.4 sec)
Back transforming the eigenvectors                 ... done (   0.1 sec)
Now organizing SCF variables                       ... done
--------------
SCF ITERATIONS
--------------
ITER       Energy         Delta-E        Max-DP      RMS-DP      [F,P]     Damp
               ***  Starting incremental Fock matrix formation  ***
  0  -3027.5989955608   0.000000000000 0.15029822  0.00084629  0.2410148 0.7000
  1  -3027.8534301882  -0.254434627416 0.11402437  0.00066970  0.1548926 0.7000
                               ***Turning on DIIS***
  2  -3028.0235604592  -0.170130270976 0.08168056  0.00049720  0.1094600 0.7000
  3  -3029.6087125313  -1.585152072101 0.23897103  0.00127346  0.0816735 0.0000
  4  -3028.3165628789   1.292149652407 0.04125970  0.00021459  0.0195391 0.0000
  5  -3028.4405046395  -0.123941760603 0.03924945  0.00016873  0.0110377 0.0000
  6  -3028.4882684038  -0.047763764334 0.01953164  0.00006931  0.0053004 0.0000
  7  -3028.5019315422  -0.013663138398 0.00859630  0.00003193  0.0030964 0.0000
  8  -3028.4909575621   0.010973980114 0.00641298  0.00001838  0.0015797 0.0000
  9  -3028.4869756595   0.003981902675 0.00226910  0.00001052  0.0006789 0.0000
 10  -3028.4745112158   0.012464443666 0.00094545  0.00000330  0.0004172 0.0000
 11  -3028.4802323363  -0.005721120471 0.00027888  0.00000168  0.0000884 0.0000
 12  -3028.4781819085   0.002050427787 0.00020997  0.00000125  0.0000226 0.0000
 13  -3028.4781208134   0.000061095065 0.00030329  0.00000152  0.0000092 0.0000
 14  -3028.4781304963  -0.000009682875 0.00042888  0.00000161  0.0000061 0.0000
 15  -3028.4780897210   0.000040775260 0.00024206  0.00000140  0.0000039 0.0000
 16  -3028.4780908161  -0.000001095063 0.00047809  0.00000206  0.0000033 0.0000
 17  -3028.4781062744  -0.000015458332 0.00052225  0.00000152  0.0000022 0.0000
 18  -3028.4780889415   0.000017332898 0.00085883  0.00000271  0.0000016 0.0000
                            ***DIIS convergence achieved***

               *****************************************************
               *                     SUCCESS                       *
               *           SCF CONVERGED AFTER  19 CYCLES          *
               *****************************************************

Total Energy       :        -3028.47809445 Eh          -82409.07855 eV
  Last Energy change         ...   -5.5053e-06  Tolerance :   1.0000e-08
  Last MAX-Density change    ...    1.9286e-04  Tolerance :   1.0000e-07
             **** THE GBW FILE WAS UPDATED (simple-grid-280-285-b3lyp_d3bj-631gd-gas-singlepoint-DLPNO_CCSD_T1-NormalPNO-augtz-gas.gbw) ****
             **** DENSITY FILE WAS UPDATED (simple-grid-280-285-b3lyp_d3bj-631gd-gas-singlepoint-DLPNO_CCSD_T1-NormalPNO-augtz-gas.scfp.tmp) ****
             **** ENERGY FILE WAS UPDATED (simple-grid-280-285-b3lyp_d3bj-631gd-gas-singlepoint-DLPNO_CCSD_T1-NormalPNO-augtz-gas.en.tmp) ****
----------------------
UHF SPIN CONTAMINATION
----------------------

Expectation value of <S**2>     :     8.765063
Ideal value S*(S+1) for S=2.5   :     8.750000
Deviation                       :     0.015063

----------------
ORBITAL ENERGIES
----------------
                 SPIN UP ORBITALS
  NO   OCC          E(Eh)            E(eV) 
   0   1.0000    -261.578051     -7117.9006 
   1   1.0000    -104.795238     -2851.6234 
   2   1.0000    -104.792206     -2851.5409 
   3   1.0000    -104.790297     -2851.4890 
   4   1.0000     -32.245719      -877.4506 
   5   1.0000     -27.722244      -754.3606 
   6   1.0000     -27.721034      -754.3277 
   7   1.0000     -27.720842      -754.3225 
   8   1.0000     -20.624960      -561.2337 
   9   1.0000     -11.422259      -310.8155 
  10   1.0000     -11.279073      -306.9192 
  11   1.0000     -11.273241      -306.7605 
  12   1.0000     -11.261328      -306.4363 
  13   1.0000     -11.240892      -305.8802 
  14   1.0000     -11.239833      -305.8514 
  15   1.0000     -11.235560      -305.7351 
  16   1.0000     -11.226813      -305.4971 
  17   1.0000     -10.521967      -286.3173 
  18   1.0000     -10.518907      -286.2340 
  19   1.0000     -10.516947      -286.1807 
  20   1.0000      -7.988791      -217.3860 
  21   1.0000      -7.988054      -217.3660 
  22   1.0000      -7.987996      -217.3644 
  23   1.0000      -7.985796      -217.3046 
  24   1.0000      -7.984999      -217.2829 
  25   1.0000      -7.984945      -217.2814 
  26   1.0000      -7.983729      -217.2483 
  27   1.0000      -7.983076      -217.2306 
  28   1.0000      -7.983034      -217.2294 
  29   1.0000      -4.600502      -125.1860 
  30   1.0000      -3.213661       -87.4482 
  31   1.0000      -3.211854       -87.3990 
  32   1.0000      -3.211732       -87.3957 
  33   1.0000      -1.469073       -39.9755 
  34   1.0000      -1.121774       -30.5250 
  35   1.0000      -1.102841       -30.0098 
  36   1.0000      -1.068643       -29.0792 
  37   1.0000      -1.062855       -28.9218 
  38   1.0000      -1.060097       -28.8467 
  39   1.0000      -1.021079       -27.7850 
  40   1.0000      -1.009288       -27.4641 
  41   1.0000      -0.955337       -25.9960 
  42   1.0000      -0.944350       -25.6971 
  43   1.0000      -0.929357       -25.2891 
  44   1.0000      -0.929228       -25.2856 
  45   1.0000      -0.918363       -24.9899 
  46   1.0000      -0.917745       -24.9731 
  47   1.0000      -0.893154       -24.3040 
  48   1.0000      -0.816341       -22.2138 
  49   1.0000      -0.725710       -19.7476 
  50   1.0000      -0.715113       -19.4592 
  51   1.0000      -0.705115       -19.1872 
  52   1.0000      -0.685200       -18.6453 
  53   1.0000      -0.651766       -17.7355 
  54   1.0000      -0.621704       -16.9174 
  55   1.0000      -0.618126       -16.8201 
  56   1.0000      -0.604016       -16.4361 
  57   1.0000      -0.599846       -16.3227 
  58   1.0000      -0.586367       -15.9559 
  59   1.0000      -0.579876       -15.7792 
  60   1.0000      -0.561004       -15.2657 
  61   1.0000      -0.548968       -14.9382 
  62   1.0000      -0.547549       -14.8996 
  63   1.0000      -0.537482       -14.6256 
  64   1.0000      -0.537211       -14.6183 
  65   1.0000      -0.523839       -14.2544 
  66   1.0000      -0.505648       -13.7594 
  67   1.0000      -0.489797       -13.3280 
  68   1.0000      -0.478188       -13.0122 
  69   1.0000      -0.477977       -13.0064 
  70   1.0000      -0.448395       -12.2015 
  71   1.0000      -0.442027       -12.0282 
  72   1.0000      -0.440223       -11.9791 
  73   1.0000      -0.431615       -11.7448 
  74   1.0000      -0.430620       -11.7178 
  75   1.0000      -0.429396       -11.6845 
  76   1.0000      -0.356793        -9.7088 
  77   0.0000       0.012748         0.3469 
  78   0.0000       0.023855         0.6491 
  79   0.0000       0.024645         0.6706 
  80   0.0000       0.030807         0.8383 
  81   0.0000       0.039471         1.0741 
  82   0.0000       0.041457         1.1281 
  83   0.0000       0.042733         1.1628 
  84   0.0000       0.043027         1.1708 
  85   0.0000       0.044334         1.2064 
  86   0.0000       0.056417         1.5352 
  87   0.0000       0.057625         1.5681 
  88   0.0000       0.061645         1.6775 
  89   0.0000       0.064035         1.7425 
  90   0.0000       0.065029         1.7695 
  91   0.0000       0.069171         1.8822 
  92   0.0000       0.074174         2.0184 
  93   0.0000       0.077478         2.1083 
  94   0.0000       0.082352         2.2409 
  95   0.0000       0.090507         2.4628 
  96   0.0000       0.092259         2.5105 
  97   0.0000       0.094296         2.5659 
  98   0.0000       0.096452         2.6246 
  99   0.0000       0.102441         2.7876 
 100   0.0000       0.105404         2.8682 
 101   0.0000       0.108027         2.9396 
 102   0.0000       0.117649         3.2014 
 103   0.0000       0.120494         3.2788 
 104   0.0000       0.123518         3.3611 
 105   0.0000       0.123983         3.3737 
 106   0.0000       0.125334         3.4105 
 107   0.0000       0.127053         3.4573 
 108   0.0000       0.130631         3.5546 
 109   0.0000       0.133006         3.6193 
 110   0.0000       0.135657         3.6914 
 111   0.0000       0.138088         3.7576 
 112   0.0000       0.142245         3.8707 
 113   0.0000       0.145225         3.9518 
 114   0.0000       0.148092         4.0298 
 115   0.0000       0.151176         4.1137 
 116   0.0000       0.156192         4.2502 
 117   0.0000       0.161708         4.4003 
 118   0.0000       0.162840         4.4311 
 119   0.0000       0.164064         4.4644 
 120   0.0000       0.168558         4.5867 
 121   0.0000       0.169792         4.6203 
 122   0.0000       0.174698         4.7538 
 123   0.0000       0.180045         4.8993 
 124   0.0000       0.183102         4.9824 
 125   0.0000       0.185519         5.0482 
 126   0.0000       0.187314         5.0971 
 127   0.0000       0.191172         5.2021 
 128   0.0000       0.193081         5.2540 
 129   0.0000       0.196226         5.3396 
 130   0.0000       0.197536         5.3752 
 131   0.0000       0.200687         5.4610 
 132   0.0000       0.202723         5.5164 
 133   0.0000       0.206330         5.6145 
 134   0.0000       0.210754         5.7349 
 135   0.0000       0.214856         5.8465 
 136   0.0000       0.216746         5.8980 
 137   0.0000       0.223818         6.0904 
 138   0.0000       0.225565         6.1379 
 139   0.0000       0.231281         6.2935 
 140   0.0000       0.233435         6.3521 
 141   0.0000       0.234699         6.3865 
 142   0.0000       0.238417         6.4877 
 143   0.0000       0.240940         6.5563 
 144   0.0000       0.243059         6.6140 
 145   0.0000       0.246275         6.7015 
 146   0.0000       0.251994         6.8571 
 147   0.0000       0.253247         6.8912 
 148   0.0000       0.256811         6.9882 
 149   0.0000       0.259165         7.0522 
 150   0.0000       0.260743         7.0952 
 151   0.0000       0.267438         7.2773 
 152   0.0000       0.273674         7.4470 
 153   0.0000       0.276932         7.5357 
 154   0.0000       0.280088         7.6216 
 155   0.0000       0.286053         7.7839 
 156   0.0000       0.291093         7.9210 
 157   0.0000       0.292477         7.9587 
 158   0.0000       0.296726         8.0743 
 159   0.0000       0.305794         8.3211 
 160   0.0000       0.308524         8.3954 
 161   0.0000       0.308965         8.4074 
 162   0.0000       0.316727         8.6186 
 163   0.0000       0.318418         8.6646 
 164   0.0000       0.324318         8.8252 
 165   0.0000       0.330271         8.9871 
 166   0.0000       0.331922         9.0321 
 167   0.0000       0.335180         9.1207 
 168   0.0000       0.338205         9.2030 
 169   0.0000       0.341455         9.2915 
 170   0.0000       0.346070         9.4170 
 171   0.0000       0.352523         9.5926 
 172   0.0000       0.354471         9.6456 
 173   0.0000       0.358354         9.7513 
 174   0.0000       0.358561         9.7570 
 175   0.0000       0.363795         9.8994 
 176   0.0000       0.366987         9.9862 
 177   0.0000       0.372601        10.1390 
 178   0.0000       0.375301        10.2125 
 179   0.0000       0.375469        10.2170 
 180   0.0000       0.377816        10.2809 
 181   0.0000       0.379440        10.3251 
 182   0.0000       0.382079        10.3969 
 183   0.0000       0.383573        10.4376 
 184   0.0000       0.390354        10.6221 
 185   0.0000       0.395011        10.7488 
 186   0.0000       0.396198        10.7811 
 187   0.0000       0.399003        10.8574 
 188   0.0000       0.401738        10.9318 
 189   0.0000       0.404063        10.9951 
 190   0.0000       0.407547        11.0899 
 191   0.0000       0.410627        11.1737 
 192   0.0000       0.413878        11.2622 
 193   0.0000       0.419030        11.4024 
 194   0.0000       0.422950        11.5091 
 195   0.0000       0.432930        11.7806 
 196   0.0000       0.434928        11.8350 
 197   0.0000       0.437602        11.9078 
 198   0.0000       0.439296        11.9539 
 199   0.0000       0.444470        12.0946 
 200   0.0000       0.448848        12.2138 
 201   0.0000       0.451853        12.2956 
 202   0.0000       0.456154        12.4126 
 203   0.0000       0.456757        12.4290 
 204   0.0000       0.459979        12.5167 
 205   0.0000       0.463905        12.6235 
 206   0.0000       0.464037        12.6271 
 207   0.0000       0.471984        12.8433 
 208   0.0000       0.476489        12.9659 
 209   0.0000       0.479213        13.0401 
 210   0.0000       0.483838        13.1659 
 211   0.0000       0.487218        13.2579 
 212   0.0000       0.492498        13.4015 
 213   0.0000       0.495142        13.4735 
 214   0.0000       0.498205        13.5568 
 215   0.0000       0.499673        13.5968 
 216   0.0000       0.504410        13.7257 
 217   0.0000       0.508538        13.8380 
 218   0.0000       0.508936        13.8489 
 219   0.0000       0.513098        13.9621 
 220   0.0000       0.515204        14.0194 
 221   0.0000       0.519869        14.1464 
 222   0.0000       0.522191        14.2095 
 223   0.0000       0.523152        14.2357 
 224   0.0000       0.525556        14.3011 
 225   0.0000       0.529280        14.4024 
 226   0.0000       0.534236        14.5373 
 227   0.0000       0.535180        14.5630 
 228   0.0000       0.539815        14.6891 
 229   0.0000       0.542681        14.7671 
 230   0.0000       0.543952        14.8017 
 231   0.0000       0.548832        14.9345 
 232   0.0000       0.553504        15.0616 
 233   0.0000       0.557242        15.1633 
 234   0.0000       0.560498        15.2519 
 235   0.0000       0.565673        15.3928 
 236   0.0000       0.570827        15.5330 
 237   0.0000       0.572250        15.5717 
 238   0.0000       0.574402        15.6303 
 239   0.0000       0.579231        15.7617 
 240   0.0000       0.582814        15.8592 
 241   0.0000       0.585509        15.9325 
 242   0.0000       0.587611        15.9897 
 243   0.0000       0.591926        16.1071 
 244   0.0000       0.598014        16.2728 
 245   0.0000       0.601575        16.3697 
 246   0.0000       0.604825        16.4581 
 247   0.0000       0.610525        16.6132 
 248   0.0000       0.612585        16.6693 
 249   0.0000       0.613661        16.6986 
 250   0.0000       0.615900        16.7595 
 251   0.0000       0.623945        16.9784 
 252   0.0000       0.628906        17.1134 
 253   0.0000       0.631855        17.1937 
 254   0.0000       0.636834        17.3291 
 255   0.0000       0.637123        17.3370 
 256   0.0000       0.641516        17.4565 
 257   0.0000       0.648893        17.6573 
 258   0.0000       0.650878        17.7113 
 259   0.0000       0.653784        17.7904 
 260   0.0000       0.658659        17.9230 
 261   0.0000       0.660451        17.9718 
 262   0.0000       0.664814        18.0905 
 263   0.0000       0.671059        18.2605 
 264   0.0000       0.673075        18.3153 
 265   0.0000       0.675858        18.3910 
 266   0.0000       0.680696        18.5227 
 267   0.0000       0.686946        18.6928 
 268   0.0000       0.690476        18.7888 
 269   0.0000       0.694952        18.9106 
 270   0.0000       0.700625        19.0650 
 271   0.0000       0.701579        19.0909 
 272   0.0000       0.706785        19.2326 
 273   0.0000       0.709691        19.3117 
 274   0.0000       0.714828        19.4514 
 275   0.0000       0.720970        19.6186 
 276   0.0000       0.724753        19.7215 
 277   0.0000       0.730590        19.8804 
 278   0.0000       0.733034        19.9469 
 279   0.0000       0.735167        20.0049 
 280   0.0000       0.744167        20.2498 
 281   0.0000       0.747914        20.3518 
 282   0.0000       0.755023        20.5452 
 283   0.0000       0.760567        20.6961 
 284   0.0000       0.765859        20.8401 
 285   0.0000       0.773300        21.0426 
 286   0.0000       0.775888        21.1130 
 287   0.0000       0.779994        21.2247 
 288   0.0000       0.789318        21.4784 
 289   0.0000       0.800538        21.7838 
 290   0.0000       0.807308        21.9680 
 291   0.0000       0.813233        22.1292 
 292   0.0000       0.818642        22.2764 
 293   0.0000       0.822731        22.3876 
 294   0.0000       0.830382        22.5958 
 295   0.0000       0.833104        22.6699 
 296   0.0000       0.839477        22.8433 
 297   0.0000       0.843287        22.9470 
 298   0.0000       0.848963        23.1015 
 299   0.0000       0.856422        23.3044 
 300   0.0000       0.856947        23.3187 
 301   0.0000       0.861953        23.4549 
 302   0.0000       0.866373        23.5752 
 303   0.0000       0.875255        23.8169 
 304   0.0000       0.879853        23.9420 
 305   0.0000       0.880910        23.9708 
 306   0.0000       0.883997        24.0548 
 307   0.0000       0.890539        24.2328 
 308   0.0000       0.891855        24.2686 
 309   0.0000       0.905178        24.6311 
 310   0.0000       0.907170        24.6854 
 311   0.0000       0.909465        24.7478 
 312   0.0000       0.912293        24.8247 
 313   0.0000       0.914046        24.8725 
 314   0.0000       0.920437        25.0464 
 315   0.0000       0.924245        25.1500 
 316   0.0000       0.926902        25.2223 
 317   0.0000       0.929761        25.3001 
 318   0.0000       0.939409        25.5626 
 319   0.0000       0.941047        25.6072 
 320   0.0000       0.942938        25.6586 
 321   0.0000       0.946840        25.7648 
 322   0.0000       0.948664        25.8144 
 323   0.0000       0.953157        25.9367 
 324   0.0000       0.955387        25.9974 
 325   0.0000       0.955622        26.0038 
 326   0.0000       0.963279        26.2121 
 327   0.0000       0.968732        26.3605 
 328   0.0000       0.969793        26.3894 
 329   0.0000       0.971669        26.4405 
 330   0.0000       0.973414        26.4879 
 331   0.0000       0.979518        26.6540 
 332   0.0000       0.981944        26.7201 
 333   0.0000       0.986722        26.8501 
 334   0.0000       0.989438        26.9240 
 335   0.0000       0.996236        27.1089 
 336   0.0000       1.002170        27.2704 
 337   0.0000       1.005919        27.3724 
 338   0.0000       1.007969        27.4282 
 339   0.0000       1.009254        27.4632 
 340   0.0000       1.012625        27.5549 
 341   0.0000       1.017883        27.6980 
 342   0.0000       1.020987        27.7825 
 343   0.0000       1.026154        27.9231 
 344   0.0000       1.030515        28.0418 
 345   0.0000       1.032220        28.0881 
 346   0.0000       1.034760        28.1573 
 347   0.0000       1.037460        28.2307 
 348   0.0000       1.044830        28.4313 
 349   0.0000       1.049114        28.5478 
 350   0.0000       1.050361        28.5818 
 351   0.0000       1.052574        28.6420 
 352   0.0000       1.053539        28.6683 
 353   0.0000       1.059228        28.8231 
 354   0.0000       1.064357        28.9626 
 355   0.0000       1.068200        29.0672 
 356   0.0000       1.071506        29.1572 
 357   0.0000       1.077119        29.3099 
 358   0.0000       1.080664        29.4064 
 359   0.0000       1.082343        29.4520 
 360   0.0000       1.087219        29.5847 
 361   0.0000       1.088800        29.6277 
 362   0.0000       1.096180        29.8286 
 363   0.0000       1.101979        29.9864 
 364   0.0000       1.103108        30.0171 
 365   0.0000       1.106007        30.0960 
 366   0.0000       1.112772        30.2801 
 367   0.0000       1.119111        30.4525 
 368   0.0000       1.122218        30.5371 
 369   0.0000       1.127122        30.6705 
 370   0.0000       1.130144        30.7528 
 371   0.0000       1.135049        30.8862 
 372   0.0000       1.138227        30.9727 
 373   0.0000       1.142768        31.0963 
 374   0.0000       1.144016        31.1303 
 375   0.0000       1.147405        31.2225 
 376   0.0000       1.153318        31.3834 
 377   0.0000       1.164693        31.6929 
 378   0.0000       1.166485        31.7417 
 379   0.0000       1.168736        31.8029 
 380   0.0000       1.173436        31.9308 
 381   0.0000       1.175128        31.9769 
 382   0.0000       1.181568        32.1521 
 383   0.0000       1.187135        32.3036 
 384   0.0000       1.191746        32.4291 
 385   0.0000       1.192814        32.4581 
 386   0.0000       1.202852        32.7313 
 387   0.0000       1.203507        32.7491 
 388   0.0000       1.209167        32.9031 
 389   0.0000       1.211496        32.9665 
 390   0.0000       1.217580        33.1320 
 391   0.0000       1.225831        33.3566 
 392   0.0000       1.230770        33.4910 
 393   0.0000       1.234458        33.5913 
 394   0.0000       1.237840        33.6833 
 395   0.0000       1.245326        33.8870 
 396   0.0000       1.251142        34.0453 
 397   0.0000       1.253239        34.1024 
 398   0.0000       1.259943        34.2848 
 399   0.0000       1.263820        34.3903 
 400   0.0000       1.267206        34.4824 
 401   0.0000       1.271624        34.6026 
 402   0.0000       1.274753        34.6878 
 403   0.0000       1.277366        34.7589 
 404   0.0000       1.281308        34.8662 
 405   0.0000       1.291519        35.1440 
 406   0.0000       1.298032        35.3213 
 407   0.0000       1.299187        35.3527 
 408   0.0000       1.304588        35.4996 
 409   0.0000       1.306912        35.5629 
 410   0.0000       1.310952        35.6728 
 411   0.0000       1.312393        35.7120 
 412   0.0000       1.314319        35.7644 
 413   0.0000       1.323764        36.0215 
 414   0.0000       1.331699        36.2374 
 415   0.0000       1.337089        36.3841 
 416   0.0000       1.342551        36.5327 
 417   0.0000       1.347745        36.6740 
 418   0.0000       1.350728        36.7552 
 419   0.0000       1.358770        36.9740 
 420   0.0000       1.365629        37.1607 
 421   0.0000       1.372729        37.3539 
 422   0.0000       1.373818        37.3835 
 423   0.0000       1.379940        37.5501 
 424   0.0000       1.382971        37.6326 
 425   0.0000       1.385308        37.6961 
 426   0.0000       1.392069        37.8801 
 427   0.0000       1.395980        37.9865 
 428   0.0000       1.407842        38.3093 
 429   0.0000       1.412154        38.4267 
 430   0.0000       1.415651        38.5218 
 431   0.0000       1.423106        38.7247 
 432   0.0000       1.433250        39.0007 
 433   0.0000       1.436555        39.0906 
 434   0.0000       1.441798        39.2333 
 435   0.0000       1.444583        39.3091 
 436   0.0000       1.450794        39.4781 
 437   0.0000       1.458756        39.6948 
 438   0.0000       1.461302        39.7641 
 439   0.0000       1.465940        39.8903 
 440   0.0000       1.468109        39.9493 
 441   0.0000       1.471349        40.0374 
 442   0.0000       1.471792        40.0495 
 443   0.0000       1.482846        40.3503 
 444   0.0000       1.485127        40.4124 
 445   0.0000       1.490708        40.5642 
 446   0.0000       1.492850        40.6225 
 447   0.0000       1.499357        40.7996 
 448   0.0000       1.503485        40.9119 
 449   0.0000       1.509021        41.0626 
 450   0.0000       1.520124        41.3647 
 451   0.0000       1.525948        41.5232 
 452   0.0000       1.527024        41.5524 
 453   0.0000       1.536906        41.8213 
 454   0.0000       1.541973        41.9592 
 455   0.0000       1.545037        42.0426 
 456   0.0000       1.545982        42.0683 
 457   0.0000       1.555638        42.3311 
 458   0.0000       1.558607        42.4119 
 459   0.0000       1.567267        42.6475 
 460   0.0000       1.569569        42.7102 
 461   0.0000       1.578799        42.9613 
 462   0.0000       1.581844        43.0442 
 463   0.0000       1.585608        43.1466 
 464   0.0000       1.594349        43.3845 
 465   0.0000       1.600386        43.5487 
 466   0.0000       1.606612        43.7181 
 467   0.0000       1.609508        43.7969 
 468   0.0000       1.618640        44.0454 
 469   0.0000       1.622263        44.1440 
 470   0.0000       1.627371        44.2830 
 471   0.0000       1.635261        44.4977 
 472   0.0000       1.637076        44.5471 
 473   0.0000       1.645604        44.7792 
 474   0.0000       1.649807        44.8935 
 475   0.0000       1.653801        45.0022 
 476   0.0000       1.661017        45.1986 
 477   0.0000       1.664091        45.2822 
 478   0.0000       1.672364        45.5073 
 479   0.0000       1.677576        45.6492 
 480   0.0000       1.682057        45.7711 
 481   0.0000       1.689695        45.9789 
 482   0.0000       1.700001        46.2594 
 483   0.0000       1.702727        46.3336 
 484   0.0000       1.705409        46.4066 
 485   0.0000       1.708433        46.4888 
 486   0.0000       1.713055        46.6146 
 487   0.0000       1.722722        46.8777 
 488   0.0000       1.728604        47.0377 
 489   0.0000       1.729099        47.0512 
 490   0.0000       1.732068        47.1320 
 491   0.0000       1.737705        47.2854 
 492   0.0000       1.748464        47.5781 
 493   0.0000       1.750801        47.6417 
 494   0.0000       1.761260        47.9263 
 495   0.0000       1.762743        47.9667 
 496   0.0000       1.765666        48.0462 
 497   0.0000       1.767533        48.0970 
 498   0.0000       1.775104        48.3030 
 499   0.0000       1.785557        48.5875 
 500   0.0000       1.789438        48.6931 
 501   0.0000       1.792305        48.7711 
 502   0.0000       1.795622        48.8613 
 503   0.0000       1.804931        49.1147 
 504   0.0000       1.807437        49.1829 
 505   0.0000       1.815200        49.3941 
 506   0.0000       1.821074        49.5539 
 507   0.0000       1.822105        49.5820 
 508   0.0000       1.824313        49.6421 
 509   0.0000       1.829309        49.7780 
 510   0.0000       1.835864        49.9564 
 511   0.0000       1.840525        50.0832 
 512   0.0000       1.843636        50.1679 
 513   0.0000       1.848350        50.2962 
 514   0.0000       1.858750        50.5791 
 515   0.0000       1.860459        50.6257 
 516   0.0000       1.866385        50.7869 
 517   0.0000       1.870724        50.9050 
 518   0.0000       1.874962        51.0203 
 519   0.0000       1.884650        51.2839 
 520   0.0000       1.890688        51.4482 
 521   0.0000       1.895283        51.5733 
 522   0.0000       1.903176        51.7880 
 523   0.0000       1.907786        51.9135 
 524   0.0000       1.911479        52.0140 
 525   0.0000       1.917235        52.1706 
 526   0.0000       1.922716        52.3198 
 527   0.0000       1.929001        52.4908 
 528   0.0000       1.933437        52.6115 
 529   0.0000       1.935839        52.6769 
 530   0.0000       1.943679        52.8902 
 531   0.0000       1.944198        52.9043 
 532   0.0000       1.954094        53.1736 
 533   0.0000       1.960163        53.3388 
 534   0.0000       1.963556        53.4311 
 535   0.0000       1.967692        53.5436 
 536   0.0000       1.978596        53.8403 
 537   0.0000       1.981904        53.9304 
 538   0.0000       1.991871        54.2016 
 539   0.0000       1.998050        54.3697 
 540   0.0000       2.000354        54.4324 
 541   0.0000       2.006390        54.5966 
 542   0.0000       2.009933        54.6930 
 543   0.0000       2.020262        54.9741 
 544   0.0000       2.023124        55.0520 
 545   0.0000       2.033968        55.3471 
 546   0.0000       2.042830        55.5882 
 547   0.0000       2.048237        55.7354 
 548   0.0000       2.051325        55.8194 
 549   0.0000       2.057267        55.9811 
 550   0.0000       2.067687        56.2646 
 551   0.0000       2.071449        56.3670 
 552   0.0000       2.082440        56.6661 
 553   0.0000       2.085411        56.7469 
 554   0.0000       2.086637        56.7803 
 555   0.0000       2.099314        57.1252 
 556   0.0000       2.107619        57.3512 
 557   0.0000       2.111675        57.4616 
 558   0.0000       2.114380        57.5352 
 559   0.0000       2.127217        57.8845 
 560   0.0000       2.131096        57.9901 
 561   0.0000       2.139849        58.2282 
 562   0.0000       2.146056        58.3972 
 563   0.0000       2.148803        58.4719 
 564   0.0000       2.156036        58.6687 
 565   0.0000       2.166768        58.9608 
 566   0.0000       2.176073        59.2139 
 567   0.0000       2.181859        59.3714 
 568   0.0000       2.191210        59.6258 
 569   0.0000       2.194172        59.7065 
 570   0.0000       2.200066        59.8669 
 571   0.0000       2.210791        60.1587 
 572   0.0000       2.215232        60.2795 
 573   0.0000       2.225297        60.5534 
 574   0.0000       2.231955        60.7346 
 575   0.0000       2.238592        60.9152 
 576   0.0000       2.241709        61.0000 
 577   0.0000       2.246735        61.1368 
 578   0.0000       2.251419        61.2642 
 579   0.0000       2.264202        61.6121 
 580   0.0000       2.268619        61.7323 
 581   0.0000       2.274993        61.9057 
 582   0.0000       2.285757        62.1986 
 583   0.0000       2.292033        62.3694 
 584   0.0000       2.305446        62.7344 
 585   0.0000       2.306431        62.7612 
 586   0.0000       2.318623        63.0929 
 587   0.0000       2.324685        63.2579 
 588   0.0000       2.331848        63.4528 
 589   0.0000       2.344965        63.8097 
 590   0.0000       2.352224        64.0073 
 591   0.0000       2.358274        64.1719 
 592   0.0000       2.370088        64.4934 
 593   0.0000       2.373991        64.5996 
 594   0.0000       2.380795        64.7847 
 595   0.0000       2.391917        65.0874 
 596   0.0000       2.394823        65.1665 
 597   0.0000       2.398029        65.2537 
 598   0.0000       2.401375        65.3447 
 599   0.0000       2.408342        65.5343 
 600   0.0000       2.423045        65.9344 
 601   0.0000       2.434596        66.2487 
 602   0.0000       2.438544        66.3562 
 603   0.0000       2.446077        66.5612 
 604   0.0000       2.453779        66.7707 
 605   0.0000       2.466630        67.1204 
 606   0.0000       2.484890        67.6173 
 607   0.0000       2.495772        67.9134 
 608   0.0000       2.502162        68.0873 
 609   0.0000       2.505731        68.1844 
 610   0.0000       2.517250        68.4979 
 611   0.0000       2.526446        68.7481 
 612   0.0000       2.539713        69.1091 
 613   0.0000       2.556372        69.5624 
 614   0.0000       2.563110        69.7458 
 615   0.0000       2.574081        70.0443 
 616   0.0000       2.584750        70.3346 
 617   0.0000       2.593174        70.5639 
 618   0.0000       2.628063        71.5132 
 619   0.0000       2.637167        71.7610 
 620   0.0000       2.644691        71.9657 
 621   0.0000       2.653900        72.2163 
 622   0.0000       2.658133        72.3315 
 623   0.0000       2.672340        72.7181 
 624   0.0000       2.677695        72.8638 
 625   0.0000       2.687147        73.1210 
 626   0.0000       2.693529        73.2946 
 627   0.0000       2.701162        73.5024 
 628   0.0000       2.709664        73.7337 
 629   0.0000       2.712693        73.8161 
 630   0.0000       2.718617        73.9773 
 631   0.0000       2.737566        74.4929 
 632   0.0000       2.748723        74.7966 
 633   0.0000       2.753132        74.9165 
 634   0.0000       2.763044        75.1863 
 635   0.0000       2.772229        75.4362 
 636   0.0000       2.779479        75.6335 
 637   0.0000       2.783582        75.7451 
 638   0.0000       2.794121        76.0319 
 639   0.0000       2.807847        76.4054 
 640   0.0000       2.819976        76.7355 
 641   0.0000       2.840065        77.2821 
 642   0.0000       2.850172        77.5571 
 643   0.0000       2.859604        77.8138 
 644   0.0000       2.883862        78.4739 
 645   0.0000       2.886876        78.5559 
 646   0.0000       2.892670        78.7135 
 647   0.0000       2.896907        78.8289 
 648   0.0000       2.914904        79.3186 
 649   0.0000       2.925161        79.5977 
 650   0.0000       2.938273        79.9545 
 651   0.0000       2.954272        80.3898 
 652   0.0000       2.975524        80.9681 
 653   0.0000       2.984312        81.2073 
 654   0.0000       3.001168        81.6659 
 655   0.0000       3.010831        81.9289 
 656   0.0000       3.030807        82.4724 
 657   0.0000       3.051225        83.0281 
 658   0.0000       3.070525        83.5532 
 659   0.0000       3.074929        83.6731 
 660   0.0000       3.081847        83.8613 
 661   0.0000       3.099135        84.3318 
 662   0.0000       3.116138        84.7944 
 663   0.0000       3.125148        85.0396 
 664   0.0000       3.140939        85.4693 
 665   0.0000       3.153948        85.8233 
 666   0.0000       3.169674        86.2512 
 667   0.0000       3.180260        86.5393 
 668   0.0000       3.196146        86.9715 
 669   0.0000       3.200118        87.0796 
 670   0.0000       3.214320        87.4661 
 671   0.0000       3.216117        87.5150 
 672   0.0000       3.228859        87.8617 
 673   0.0000       3.245897        88.3253 
 674   0.0000       3.251618        88.4810 
 675   0.0000       3.255078        88.5752 
 676   0.0000       3.264978        88.8446 
 677   0.0000       3.271153        89.0126 
 678   0.0000       3.277672        89.1900 
 679   0.0000       3.292845        89.6029 
 680   0.0000       3.294801        89.6561 
 681   0.0000       3.312938        90.1496 
 682   0.0000       3.329004        90.5868 
 683   0.0000       3.333551        90.7105 
 684   0.0000       3.336174        90.7819 
 685   0.0000       3.355587        91.3102 
 686   0.0000       3.360382        91.4407 
 687   0.0000       3.381101        92.0044 
 688   0.0000       3.390135        92.2503 
 689   0.0000       3.397129        92.4406 
 690   0.0000       3.412748        92.8656 
 691   0.0000       3.417494        92.9948 
 692   0.0000       3.424215        93.1776 
 693   0.0000       3.439433        93.5917 
 694   0.0000       3.441328        93.6433 
 695   0.0000       3.454133        93.9917 
 696   0.0000       3.456375        94.0527 
 697   0.0000       3.465153        94.2916 
 698   0.0000       3.475409        94.5707 
 699   0.0000       3.481381        94.7332 
 700   0.0000       3.487663        94.9041 
 701   0.0000       3.496886        95.1551 
 702   0.0000       3.509557        95.4999 
 703   0.0000       3.514745        95.6411 
 704   0.0000       3.520576        95.7997 
 705   0.0000       3.526068        95.9492 
 706   0.0000       3.539702        96.3202 
 707   0.0000       3.542855        96.4060 
 708   0.0000       3.548940        96.5716 
 709   0.0000       3.560500        96.8861 
 710   0.0000       3.569464        97.1301 
 711   0.0000       3.584408        97.5367 
 712   0.0000       3.586848        97.6031 
 713   0.0000       3.592887        97.7674 
 714   0.0000       3.603863        98.0661 
 715   0.0000       3.610983        98.2598 
 716   0.0000       3.628186        98.7280 
 717   0.0000       3.637080        98.9700 
 718   0.0000       3.643906        99.1557 
 719   0.0000       3.648573        99.2827 
 720   0.0000       3.661330        99.6299 
 721   0.0000       3.672784        99.9415 
 722   0.0000       3.674808        99.9966 
 723   0.0000       3.679941       100.1363 
 724   0.0000       3.690839       100.4328 
 725   0.0000       3.696933       100.5987 
 726   0.0000       3.701627       100.7264 
 727   0.0000       3.708220       100.9058 
 728   0.0000       3.714058       101.0646 
 729   0.0000       3.719472       101.2120 
 730   0.0000       3.725623       101.3794 
 731   0.0000       3.731760       101.5463 
 732   0.0000       3.738319       101.7248 
 733   0.0000       3.743548       101.8671 
 734   0.0000       3.760869       102.3384 
 735   0.0000       3.765178       102.4557 
 736   0.0000       3.769400       102.5706 
 737   0.0000       3.776351       102.7597 
 738   0.0000       3.783064       102.9424 
 739   0.0000       3.784999       102.9951 
 740   0.0000       3.799948       103.4019 
 741   0.0000       3.803356       103.4946 
 742   0.0000       3.807494       103.6072 
 743   0.0000       3.820795       103.9691 
 744   0.0000       3.827994       104.1650 
 745   0.0000       3.838446       104.4494 
 746   0.0000       3.845952       104.6537 
 747   0.0000       3.853570       104.8610 
 748   0.0000       3.861824       105.0856 
 749   0.0000       3.871495       105.3487 
 750   0.0000       3.875248       105.4509 
 751   0.0000       3.883956       105.6878 
 752   0.0000       3.890989       105.8792 
 753   0.0000       3.894421       105.9726 
 754   0.0000       3.902326       106.1877 
 755   0.0000       3.908946       106.3678 
 756   0.0000       3.922636       106.7403 
 757   0.0000       3.928994       106.9134 
 758   0.0000       3.935241       107.0833 
 759   0.0000       3.937675       107.1496 
 760   0.0000       3.946927       107.4014 
 761   0.0000       3.950418       107.4963 
 762   0.0000       3.952881       107.5634 
 763   0.0000       3.961865       107.8078 
 764   0.0000       3.967489       107.9609 
 765   0.0000       3.973116       108.1140 
 766   0.0000       3.989275       108.5537 
 767   0.0000       3.990246       108.5801 
 768   0.0000       3.999609       108.8349 
 769   0.0000       4.003484       108.9403 
 770   0.0000       4.010974       109.1442 
 771   0.0000       4.020132       109.3934 
 772   0.0000       4.028192       109.6127 
 773   0.0000       4.036229       109.8314 
 774   0.0000       4.038314       109.8881 
 775   0.0000       4.047960       110.1506 
 776   0.0000       4.057196       110.4019 
 777   0.0000       4.065797       110.6360 
 778   0.0000       4.078987       110.9949 
 779   0.0000       4.081470       111.0624 
 780   0.0000       4.090599       111.3109 
 781   0.0000       4.099206       111.5451 
 782   0.0000       4.102031       111.6220 
 783   0.0000       4.110658       111.8567 
 784   0.0000       4.124607       112.2363 
 785   0.0000       4.131407       112.4213 
 786   0.0000       4.135150       112.5231 
 787   0.0000       4.143173       112.7415 
 788   0.0000       4.149330       112.9090 
 789   0.0000       4.160076       113.2014 
 790   0.0000       4.166412       113.3738 
 791   0.0000       4.177695       113.6808 
 792   0.0000       4.179634       113.7336 
 793   0.0000       4.191270       114.0503 
 794   0.0000       4.196809       114.2010 
 795   0.0000       4.207574       114.4939 
 796   0.0000       4.212117       114.6175 
 797   0.0000       4.222039       114.8875 
 798   0.0000       4.223818       114.9359 
 799   0.0000       4.230755       115.1247 
 800   0.0000       4.250318       115.6570 
 801   0.0000       4.256002       115.8117 
 802   0.0000       4.260185       115.9255 
 803   0.0000       4.270894       116.2169 
 804   0.0000       4.280237       116.4712 
 805   0.0000       4.288978       116.7090 
 806   0.0000       4.299944       117.0074 
 807   0.0000       4.306058       117.1738 
 808   0.0000       4.313711       117.3820 
 809   0.0000       4.331865       117.8761 
 810   0.0000       4.334281       117.9418 
 811   0.0000       4.352205       118.4295 
 812   0.0000       4.363971       118.7497 
 813   0.0000       4.371367       118.9509 
 814   0.0000       4.374821       119.0449 
 815   0.0000       4.389155       119.4350 
 816   0.0000       4.397596       119.6647 
 817   0.0000       4.414883       120.1351 
 818   0.0000       4.421142       120.3054 
 819   0.0000       4.429751       120.5397 
 820   0.0000       4.439689       120.8101 
 821   0.0000       4.449667       121.0816 
 822   0.0000       4.456475       121.2668 
 823   0.0000       4.461487       121.4032 
 824   0.0000       4.471500       121.6757 
 825   0.0000       4.487131       122.1010 
 826   0.0000       4.498300       122.4050 
 827   0.0000       4.501551       122.4934 
 828   0.0000       4.513244       122.8116 
 829   0.0000       4.521416       123.0340 
 830   0.0000       4.529139       123.2441 
 831   0.0000       4.534662       123.3944 
 832   0.0000       4.539980       123.5391 
 833   0.0000       4.542987       123.6209 
 834   0.0000       4.559502       124.0704 
 835   0.0000       4.566793       124.2688 
 836   0.0000       4.586210       124.7971 
 837   0.0000       4.591804       124.9493 
 838   0.0000       4.612392       125.5096 
 839   0.0000       4.621484       125.7570 
 840   0.0000       4.631245       126.0226 
 841   0.0000       4.642585       126.3312 
 842   0.0000       4.648488       126.4918 
 843   0.0000       4.665468       126.9538 
 844   0.0000       4.673922       127.1839 
 845   0.0000       4.682122       127.4070 
 846   0.0000       4.692384       127.6863 
 847   0.0000       4.699108       127.8692 
 848   0.0000       4.713204       128.2528 
 849   0.0000       4.721158       128.4692 
 850   0.0000       4.731316       128.7456 
 851   0.0000       4.748020       129.2002 
 852   0.0000       4.757140       129.4484 
 853   0.0000       4.775138       129.9381 
 854   0.0000       4.797623       130.5500 
 855   0.0000       4.806676       130.7963 
 856   0.0000       4.810720       130.9064 
 857   0.0000       4.824449       131.2799 
 858   0.0000       4.828501       131.3902 
 859   0.0000       4.842322       131.7663 
 860   0.0000       4.853289       132.0647 
 861   0.0000       4.875405       132.6665 
 862   0.0000       4.884297       132.9085 
 863   0.0000       4.891806       133.1128 
 864   0.0000       4.900045       133.3370 
 865   0.0000       4.906434       133.5109 
 866   0.0000       4.912383       133.6727 
 867   0.0000       4.931913       134.2042 
 868   0.0000       4.952632       134.7680 
 869   0.0000       4.955480       134.8455 
 870   0.0000       4.962343       135.0322 
 871   0.0000       4.969407       135.2244 
 872   0.0000       4.985078       135.6509 
 873   0.0000       4.996376       135.9583 
 874   0.0000       5.003973       136.1650 
 875   0.0000       5.023251       136.6896 
 876   0.0000       5.029247       136.8528 
 877   0.0000       5.037660       137.0817 
 878   0.0000       5.038341       137.1002 
 879   0.0000       5.057108       137.6109 
 880   0.0000       5.076607       138.1415 
 881   0.0000       5.093397       138.5984 
 882   0.0000       5.099306       138.7592 
 883   0.0000       5.110800       139.0719 
 884   0.0000       5.126653       139.5033 
 885   0.0000       5.145033       140.0035 
 886   0.0000       5.157778       140.3503 
 887   0.0000       5.174746       140.8120 
 888   0.0000       5.176221       140.8521 
 889   0.0000       5.188787       141.1941 
 890   0.0000       5.202037       141.5546 
 891   0.0000       5.215175       141.9121 
 892   0.0000       5.223087       142.1274 
 893   0.0000       5.240160       142.5920 
 894   0.0000       5.246463       142.7635 
 895   0.0000       5.265465       143.2806 
 896   0.0000       5.266937       143.3206 
 897   0.0000       5.285441       143.8242 
 898   0.0000       5.302740       144.2949 
 899   0.0000       5.313354       144.5837 
 900   0.0000       5.321451       144.8040 
 901   0.0000       5.338475       145.2673 
 902   0.0000       5.350373       145.5911 
 903   0.0000       5.356883       145.7682 
 904   0.0000       5.370668       146.1433 
 905   0.0000       5.383669       146.4971 
 906   0.0000       5.399996       146.9414 
 907   0.0000       5.425363       147.6316 
 908   0.0000       5.427571       147.6917 
 909   0.0000       5.431272       147.7924 
 910   0.0000       5.449271       148.2822 
 911   0.0000       5.459342       148.5563 
 912   0.0000       5.464404       148.6940 
 913   0.0000       5.487162       149.3133 
 914   0.0000       5.498764       149.6290 
 915   0.0000       5.505425       149.8102 
 916   0.0000       5.527966       150.4236 
 917   0.0000       5.533943       150.5862 
 918   0.0000       5.550358       151.0329 
 919   0.0000       5.556640       151.2039 
 920   0.0000       5.566542       151.4733 
 921   0.0000       5.581804       151.8886 
 922   0.0000       5.598115       152.3324 
 923   0.0000       5.615740       152.8121 
 924   0.0000       5.622967       153.0087 
 925   0.0000       5.623561       153.0249 
 926   0.0000       5.635758       153.3568 
 927   0.0000       5.646097       153.6381 
 928   0.0000       5.656367       153.9176 
 929   0.0000       5.669978       154.2879 
 930   0.0000       5.688102       154.7811 
 931   0.0000       5.706035       155.2691 
 932   0.0000       5.709159       155.3541 
 933   0.0000       5.721586       155.6923 
 934   0.0000       5.744425       156.3138 
 935   0.0000       5.749488       156.4515 
 936   0.0000       5.753348       156.5565 
 937   0.0000       5.761652       156.7825 
 938   0.0000       5.784326       157.3995 
 939   0.0000       5.796049       157.7185 
 940   0.0000       5.819595       158.3592 
 941   0.0000       5.864489       159.5808 
 942   0.0000       5.873190       159.8176 
 943   0.0000       5.899059       160.5215 
 944   0.0000       5.951796       161.9566 
 945   0.0000       5.961235       162.2134 
 946   0.0000       6.050027       164.6296 
 947   0.0000       6.075746       165.3295 
 948   0.0000       6.089796       165.7118 
 949   0.0000       6.099879       165.9861 
 950   0.0000       6.141961       167.1313 
 951   0.0000       6.156872       167.5370 
 952   0.0000       6.173482       167.9890 
 953   0.0000       6.181956       168.2196 
 954   0.0000       6.199895       168.7077 
 955   0.0000       6.219653       169.2454 
 956   0.0000       6.236503       169.7039 
 957   0.0000       6.245779       169.9563 
 958   0.0000       6.254336       170.1891 
 959   0.0000       6.273287       170.7048 
 960   0.0000       6.287338       171.0872 
 961   0.0000       6.298415       171.3886 
 962   0.0000       6.322896       172.0547 
 963   0.0000       6.336663       172.4294 
 964   0.0000       6.343035       172.6028 
 965   0.0000       6.351910       172.8443 
 966   0.0000       6.388954       173.8523 
 967   0.0000       6.408899       174.3950 
 968   0.0000       6.460882       175.8096 
 969   0.0000       6.531759       177.7382 
 970   0.0000       6.597906       179.5382 
 971   0.0000       6.634334       180.5294 
 972   0.0000       6.793897       184.8713 
 973   0.0000       6.823508       185.6771 
 974   0.0000       6.837997       186.0713 
 975   0.0000       6.867696       186.8795 
 976   0.0000       6.900467       187.7713 
 977   0.0000       6.922449       188.3694 
 978   0.0000       6.941814       188.8964 
 979   0.0000       6.971475       189.7035 
 980   0.0000       6.987926       190.1511 
 981   0.0000       7.004072       190.5905 
 982   0.0000       7.031990       191.3502 
 983   0.0000       7.042719       191.6421 
 984   0.0000       7.069931       192.3826 
 985   0.0000       7.097428       193.1308 
 986   0.0000       7.227898       196.6811 
 987   0.0000       7.260388       197.5652 
 988   0.0000       7.321306       199.2229 
 989   0.0000       7.350916       200.0286 
 990   0.0000       7.498917       204.0559 
 991   0.0000       7.567555       205.9236 
 992   0.0000       7.592759       206.6095 
 993   0.0000       7.679546       208.9711 
 994   0.0000       7.736125       210.5107 
 995   0.0000       7.822255       212.8544 
 996   0.0000       7.891443       214.7371 
 997   0.0000       7.976869       217.0616 
 998   0.0000       8.230103       223.9525 
 999   0.0000       9.395896       255.6753 
 1000   0.0000       9.401392       255.8249 
 1001   0.0000       9.428599       256.5652 
 1002   0.0000       9.443829       256.9797 
 1003   0.0000       9.449467       257.1331 
 1004   0.0000       9.476284       257.8628 
 1005   0.0000       9.628010       261.9915 
 1006   0.0000      10.077417       274.2204 
 1007   0.0000      10.082373       274.3553 
 1008   0.0000      10.095107       274.7018 
 1009   0.0000      10.194031       277.3937 
 1010   0.0000      10.204723       277.6846 
 1011   0.0000      10.234893       278.5056 
 1012   0.0000      10.312576       280.6195 
 1013   0.0000      10.357795       281.8499 
 1014   0.0000      10.387623       282.6616 
 1015   0.0000      10.609941       288.7112 
 1016   0.0000      16.474260       448.2874 
 1017   0.0000      17.452858       474.9164 
 1018   0.0000      18.046118       491.0598 
 1019   0.0000      18.330223       498.7907 
 1020   0.0000      18.544095       504.6105 
 1021   0.0000      18.587566       505.7934 
 1022   0.0000      20.405830       555.2709 
 1023   0.0000      21.321466       580.1866 
 1024   0.0000      21.623055       588.3932 

                 SPIN DOWN ORBITALS
  NO   OCC          E(Eh)            E(eV) 
   0   1.0000    -261.574467     -7117.8031 
   1   1.0000    -104.793740     -2851.5826 
   2   1.0000    -104.790643     -2851.4984 
   3   1.0000    -104.788722     -2851.4461 
   4   1.0000     -32.083745      -873.0431 
   5   1.0000     -27.561691      -749.9918 
   6   1.0000     -27.561570      -749.9884 
   7   1.0000     -27.561489      -749.9862 
   8   1.0000     -20.621588      -561.1419 
   9   1.0000     -11.422188      -310.8135 
  10   1.0000     -11.278968      -306.9163 
  11   1.0000     -11.273235      -306.7603 
  12   1.0000     -11.261374      -306.4376 
  13   1.0000     -11.240825      -305.8784 
  14   1.0000     -11.239827      -305.8512 
  15   1.0000     -11.235566      -305.7353 
  16   1.0000     -11.226821      -305.4973 
  17   1.0000     -10.520368      -286.2738 
  18   1.0000     -10.517239      -286.1886 
  19   1.0000     -10.515274      -286.1352 
  20   1.0000      -7.986296      -217.3182 
  21   1.0000      -7.985533      -217.2974 
  22   1.0000      -7.985495      -217.2964 
  23   1.0000      -7.983108      -217.2314 
  24   1.0000      -7.982435      -217.2131 
  25   1.0000      -7.982341      -217.2105 
  26   1.0000      -7.981271      -217.1814 
  27   1.0000      -7.980352      -217.1564 
  28   1.0000      -7.980272      -217.1542 
  29   1.0000      -4.158465      -113.1576 
  30   1.0000      -2.680006       -72.9267 
  31   1.0000      -2.679962       -72.9255 
  32   1.0000      -2.679537       -72.9139 
  33   1.0000      -1.460860       -39.7520 
  34   1.0000      -1.121477       -30.5169 
  35   1.0000      -1.100635       -29.9498 
  36   1.0000      -1.052902       -28.6509 
  37   1.0000      -1.040296       -28.3079 
  38   1.0000      -1.037196       -28.2235 
  39   1.0000      -1.020174       -27.7604 
  40   1.0000      -1.008992       -27.4561 
  41   1.0000      -0.955188       -25.9920 
  42   1.0000      -0.893247       -24.3065 
  43   1.0000      -0.828664       -22.5491 
  44   1.0000      -0.725787       -19.7497 
  45   1.0000      -0.716799       -19.5051 
  46   1.0000      -0.704345       -19.1662 
  47   1.0000      -0.684625       -18.6296 
  48   1.0000      -0.651715       -17.7341 
  49   1.0000      -0.621141       -16.9021 
  50   1.0000      -0.618046       -16.8179 
  51   1.0000      -0.603844       -16.4314 
  52   1.0000      -0.599766       -16.3205 
  53   1.0000      -0.586104       -15.9487 
  54   1.0000      -0.578546       -15.7431 
  55   1.0000      -0.560088       -15.2408 
  56   1.0000      -0.548689       -14.9306 
  57   1.0000      -0.545415       -14.8415 
  58   1.0000      -0.537497       -14.6260 
  59   1.0000      -0.526833       -14.3358 
  60   1.0000      -0.523106       -14.2344 
  61   1.0000      -0.507437       -13.8081 
  62   1.0000      -0.489621       -13.3233 
  63   1.0000      -0.486688       -13.2434 
  64   1.0000      -0.484403       -13.1813 
  65   1.0000      -0.455376       -12.3914 
  66   1.0000      -0.452366       -12.3095 
  67   1.0000      -0.449291       -12.2258 
  68   1.0000      -0.432790       -11.7768 
  69   1.0000      -0.430859       -11.7243 
  70   1.0000      -0.414674       -11.2839 
  71   1.0000      -0.356361        -9.6971 
  72   0.0000       0.012732         0.3464 
  73   0.0000       0.023831         0.6485 
  74   0.0000       0.024606         0.6696 
  75   0.0000       0.030750         0.8368 
  76   0.0000       0.039384         1.0717 
  77   0.0000       0.041269         1.1230 
  78   0.0000       0.042732         1.1628 
  79   0.0000       0.042987         1.1697 
  80   0.0000       0.044169         1.2019 
  81   0.0000       0.054468         1.4821 
  82   0.0000       0.056552         1.5389 
  83   0.0000       0.061452         1.6722 
  84   0.0000       0.062997         1.7142 
  85   0.0000       0.064510         1.7554 
  86   0.0000       0.065008         1.7690 
  87   0.0000       0.071683         1.9506 
  88   0.0000       0.077264         2.1025 
  89   0.0000       0.082026         2.2320 
  90   0.0000       0.089645         2.4394 
  91   0.0000       0.091695         2.4952 
  92   0.0000       0.093888         2.5548 
  93   0.0000       0.094564         2.5732 
  94   0.0000       0.100003         2.7212 
  95   0.0000       0.102852         2.7988 
  96   0.0000       0.104050         2.8314 
  97   0.0000       0.105128         2.8607 
  98   0.0000       0.105994         2.8842 
  99   0.0000       0.108128         2.9423 
 100   0.0000       0.110940         3.0188 
 101   0.0000       0.115249         3.1361 
 102   0.0000       0.119587         3.2541 
 103   0.0000       0.122140         3.3236 
 104   0.0000       0.124030         3.3750 
 105   0.0000       0.125824         3.4238 
 106   0.0000       0.126695         3.4475 
 107   0.0000       0.129132         3.5139 
 108   0.0000       0.131918         3.5897 
 109   0.0000       0.133701         3.6382 
 110   0.0000       0.137254         3.7349 
 111   0.0000       0.138894         3.7795 
 112   0.0000       0.144161         3.9228 
 113   0.0000       0.146190         3.9780 
 114   0.0000       0.150320         4.0904 
 115   0.0000       0.152000         4.1361 
 116   0.0000       0.156777         4.2661 
 117   0.0000       0.162410         4.4194 
 118   0.0000       0.163158         4.4398 
 119   0.0000       0.166703         4.5362 
 120   0.0000       0.170171         4.6306 
 121   0.0000       0.171941         4.6788 
 122   0.0000       0.176132         4.7928 
 123   0.0000       0.180606         4.9145 
 124   0.0000       0.183863         5.0032 
 125   0.0000       0.187095         5.0911 
 126   0.0000       0.188100         5.1184 
 127   0.0000       0.192448         5.2368 
 128   0.0000       0.196884         5.3575 
 129   0.0000       0.198380         5.3982 
 130   0.0000       0.199234         5.4214 
 131   0.0000       0.202297         5.5048 
 132   0.0000       0.204562         5.5664 
 133   0.0000       0.208915         5.6849 
 134   0.0000       0.215698         5.8694 
 135   0.0000       0.217671         5.9231 
 136   0.0000       0.222640         6.0583 
 137   0.0000       0.226663         6.1678 
 138   0.0000       0.228679         6.2227 
 139   0.0000       0.233302         6.3485 
 140   0.0000       0.236532         6.4364 
 141   0.0000       0.241072         6.5599 
 142   0.0000       0.241347         6.5674 
 143   0.0000       0.246801         6.7158 
 144   0.0000       0.249757         6.7962 
 145   0.0000       0.252112         6.8603 
 146   0.0000       0.254826         6.9342 
 147   0.0000       0.258706         7.0397 
 148   0.0000       0.259568         7.0632 
 149   0.0000       0.265498         7.2246 
 150   0.0000       0.270401         7.3580 
 151   0.0000       0.273676         7.4471 
 152   0.0000       0.277493         7.5510 
 153   0.0000       0.282327         7.6825 
 154   0.0000       0.285609         7.7718 
 155   0.0000       0.290922         7.9164 
 156   0.0000       0.294522         8.0144 
 157   0.0000       0.297324         8.0906 
 158   0.0000       0.300030         8.1642 
 159   0.0000       0.307985         8.3807 
 160   0.0000       0.310348         8.4450 
 161   0.0000       0.317203         8.6315 
 162   0.0000       0.321126         8.7383 
 163   0.0000       0.321585         8.7508 
 164   0.0000       0.329751         8.9730 
 165   0.0000       0.334131         9.0922 
 166   0.0000       0.334799         9.1103 
 167   0.0000       0.339576         9.2403 
 168   0.0000       0.342118         9.3095 
 169   0.0000       0.345110         9.3909 
 170   0.0000       0.350301         9.5322 
 171   0.0000       0.353641         9.6231 
 172   0.0000       0.359182         9.7738 
 173   0.0000       0.359949         9.7947 
 174   0.0000       0.362603         9.8669 
 175   0.0000       0.364714         9.9244 
 176   0.0000       0.368794        10.0354 
 177   0.0000       0.376129        10.2350 
 178   0.0000       0.378020        10.2864 
 179   0.0000       0.381004        10.3676 
 180   0.0000       0.384597        10.4654 
 181   0.0000       0.385070        10.4783 
 182   0.0000       0.388372        10.5681 
 183   0.0000       0.392920        10.6919 
 184   0.0000       0.394638        10.7386 
 185   0.0000       0.397106        10.8058 
 186   0.0000       0.398415        10.8414 
 187   0.0000       0.401818        10.9340 
 188   0.0000       0.405366        11.0306 
 189   0.0000       0.407643        11.0925 
 190   0.0000       0.408751        11.1227 
 191   0.0000       0.415284        11.3005 
 192   0.0000       0.418364        11.3843 
 193   0.0000       0.422651        11.5009 
 194   0.0000       0.426958        11.6181 
 195   0.0000       0.433953        11.8085 
 196   0.0000       0.437150        11.8955 
 197   0.0000       0.443450        12.0669 
 198   0.0000       0.445374        12.1192 
 199   0.0000       0.450098        12.2478 
 200   0.0000       0.452522        12.3138 
 201   0.0000       0.457315        12.4442 
 202   0.0000       0.458762        12.4836 
 203   0.0000       0.460582        12.5331 
 204   0.0000       0.462160        12.5760 
 205   0.0000       0.466448        12.6927 
 206   0.0000       0.474761        12.9189 
 207   0.0000       0.476916        12.9775 
 208   0.0000       0.479207        13.0399 
 209   0.0000       0.482034        13.1168 
 210   0.0000       0.488193        13.2844 
 211   0.0000       0.493400        13.4261 
 212   0.0000       0.495729        13.4895 
 213   0.0000       0.498482        13.5644 
 214   0.0000       0.499943        13.6041 
 215   0.0000       0.504324        13.7234 
 216   0.0000       0.507798        13.8179 
 217   0.0000       0.511006        13.9052 
 218   0.0000       0.513116        13.9626 
 219   0.0000       0.518703        14.1146 
 220   0.0000       0.519655        14.1405 
 221   0.0000       0.522435        14.2162 
 222   0.0000       0.523627        14.2486 
 223   0.0000       0.526682        14.3318 
 224   0.0000       0.528987        14.3945 
 225   0.0000       0.531816        14.4714 
 226   0.0000       0.535965        14.5844 
 227   0.0000       0.539058        14.6685 
 228   0.0000       0.541626        14.7384 
 229   0.0000       0.545191        14.8354 
 230   0.0000       0.545571        14.8457 
 231   0.0000       0.551296        15.0015 
 232   0.0000       0.554677        15.0935 
 233   0.0000       0.559703        15.2303 
 234   0.0000       0.561655        15.2834 
 235   0.0000       0.567520        15.4430 
 236   0.0000       0.571826        15.5602 
 237   0.0000       0.573591        15.6082 
 238   0.0000       0.576168        15.6783 
 239   0.0000       0.581354        15.8194 
 240   0.0000       0.584876        15.9153 
 241   0.0000       0.587034        15.9740 
 242   0.0000       0.589543        16.0423 
 243   0.0000       0.593847        16.1594 
 244   0.0000       0.599309        16.3080 
 245   0.0000       0.604893        16.4600 
 246   0.0000       0.606085        16.4924 
 247   0.0000       0.611831        16.6488 
 248   0.0000       0.615605        16.7515 
 249   0.0000       0.616457        16.7747 
 250   0.0000       0.620071        16.8730 
 251   0.0000       0.625866        17.0307 
 252   0.0000       0.631391        17.1810 
 253   0.0000       0.633983        17.2515 
 254   0.0000       0.638611        17.3775 
 255   0.0000       0.641475        17.4554 
 256   0.0000       0.645837        17.5741 
 257   0.0000       0.650643        17.7049 
 258   0.0000       0.653676        17.7874 
 259   0.0000       0.655447        17.8356 
 260   0.0000       0.661156        17.9910 
 261   0.0000       0.664779        18.0895 
 262   0.0000       0.669197        18.2098 
 263   0.0000       0.673378        18.3235 
 264   0.0000       0.675332        18.3767 
 265   0.0000       0.679313        18.4850 
 266   0.0000       0.683511        18.5993 
 267   0.0000       0.689311        18.7571 
 268   0.0000       0.692925        18.8555 
 269   0.0000       0.697188        18.9715 
 270   0.0000       0.702408        19.1135 
 271   0.0000       0.705041        19.1851 
 272   0.0000       0.711938        19.3728 
 273   0.0000       0.714558        19.4441 
 274   0.0000       0.720912        19.6170 
 275   0.0000       0.725163        19.7327 
 276   0.0000       0.727014        19.7831 
 277   0.0000       0.735453        20.0127 
 278   0.0000       0.737030        20.0556 
 279   0.0000       0.741005        20.1638 
 280   0.0000       0.748356        20.3638 
 281   0.0000       0.749912        20.4061 
 282   0.0000       0.757921        20.6241 
 283   0.0000       0.762895        20.7594 
[...]
  | sigma^2 in % of trace(Dip) retained ...   1.63e+01
  | sigma^2 in % of trace(Dpq) retained ...   1.38e-01
  | Av. % of trace(Di) retained         ...  99.998579027501
  | Av. % of trace(Dp) retained         ...  99.999998229654
  | sigma^2 in % of trace(Di) retained  ...   6.56e-07
  | sigma^2 in % of trace(Dp) retained  ...   4.07e-12
 Distributions of % trace(Dij) recovered:
  |       >= 99.9  ...   105 ( 22.2 % of all IJ-pairs)
  |   [80.0, 90.0) ...    21 (  4.4 % of all IJ-pairs)
  |   [90.0, 99.0) ...   263 ( 55.7 % of all IJ-pairs)
  |   [99.0, 99.9) ...    83 ( 17.6 % of all IJ-pairs)
 Distributions of % trace(Dip) recovered:
  |   [80.0, 90.0) ...    12 ( 10.6 % of all IP-pairs)
  |   [90.0, 99.0) ...    53 ( 46.9 % of all IP-pairs)
  |   [99.0, 99.9) ...    48 ( 42.5 % of all IP-pairs)
 Distributions of % trace(Dpq) recovered:
  |       >= 99.9  ...     5 ( 33.3 % of all PQ-pairs)
  |   [99.0, 99.9) ...    10 ( 66.7 % of all PQ-pairs)
 Distributions of % trace(Di) recovered :
  |       >= 99.9  ...    43 (100.0 % of all I-pairs )
 Distributions of % trace(Dp) recovered :
  |       >= 99.9  ...     5 (100.0 % of all P-pairs )

                       ===========================
                       1039 OF 1671 PAIRS ARE KEPT
                       ===========================

 Initial PAO correlation energy (all pairs)    ...  -2.6802878055 Eh
 Energy constituents in PAO basis (Eh):
  | Vijab(+0) ...  -2.2530256877
  | Viab (-1) ...  -0.1740463005
  | Vab  (-2) ...  -0.0573254967
  | Va   (-1) ...  -0.0000458708
  | Vija (+1) ...  -0.0714431134
  | Vij  (+2) ...  -0.0155571120
  | Via  (+0) ...  -0.1086785619
  | Vi   (+1) ...  -0.0001656625
 Initial PNO correlation energy                ...  -2.6460991953 Eh
 Energy constituents in PNO basis (Eh):
  | Vijab(+0) ...  -2.2342989712 (err=  0.0187267165)
  | Viab (-1) ...  -0.1601233196 (err=  0.0139229810)
  | Vab  (-2) ...  -0.0568686783 (err=  0.0004568184)
  | Va   (-1) ...  -0.0000265698 (err=  0.0000193010)
  | Vija (+1) ...  -0.0705383514 (err=  0.0009047620)
  | Vij  (+2) ...  -0.0155087472 (err=  0.0000483648)
  | Via  (+0) ...  -0.1085693509 (err=  0.0001092110)
  | Vi   (+1) ...  -0.0001652069 (err=  0.0000004556)
 Sum of total truncation errors ...   0.0341886102 Eh
  | Pair screening ...   0.0121273922 Eh
  | PNO truncation ...   0.0220612180 Eh

 UMP2 correlation energy (PAO) ...  -2.6751654085
  | alpha-alpha ...  -0.3833107454 (NP_aa=  898)
  | alpha-beta  ...  -1.9880422455 (NP_ab= 1646)
  | beta -beta  ...  -0.3038124176 (NP_bb=  715)
 UMP2 correlation energy (PNO) ...  -2.6406183999
  | alpha-alpha ...  -0.3712745435 (err=  0.0120362019, NP_aa=  552)
  | alpha-beta  ...  -1.9696547120 (err=  0.0183875335, NP_ab= 1014)
  | beta -beta  ...  -0.2996891444 (err=  0.0041232732, NP_bb=  429)
 Sum of total UMP2 truncation errors ...   0.0345470086 Eh
  | Pair screening ...   0.0121320700 Eh
  | PNO truncation ...   0.0224149386 Eh
 Timing for NEV-PNO construction (sec.)
  | Intermediate construction  ..           42.668
  | Amplitude construction     ..           58.786
  | Total time                 ..          101.454
 Making pair pair interaction lists ...      ok
 Total size for 2-ext PNO integrals ...     10.5 MB
Checking the number of SOMO/SOMO doubles PNOs ... 
 #Truncate: (72, 72)[171] -> [86] .. 
 #Truncate: (73, 73)[170] -> [86] .. 
 #Truncate: (74, 74)[173] -> [86] .. 
 #Truncate: (75, 75)[173] -> [86] .. 
 #Truncate: (76, 76)[170] -> [86] .. 

--------------------------------
LOCAL RI TRANSFORMATION (VABPAO)
--------------------------------

Number of PAOs:    1030
Basis functions:   1025 (343 shells)
Aux. functions:    2424 (644 shells)

Processing maps (0.0 sec)
Average map sizes:
   Aux shells -> PAOs           1030.0
   PAOs       -> AO shells       343.0

Calculating integrals (185.8 sec, 37370.165 MB)
Finished
-----------------------------
LOCAL RI TRANSFORMATION (IJV)
-----------------------------

Orbital window:      29 to 76
Basis functions:   1025 (343 shells)
Aux. functions:    2424 (644 shells)

Processing maps (0.0 sec)
Average map sizes:
   Aux shells -> MOs(i)           46.4
   Aux shells -> MOs(j)           48.0
   MOs        -> AO shells       340.2

Calculating integrals (22.4 sec, 41.310 MB)
Sorting integrals (0.3 sec, 41.283 MB)
Total time for the integral transformation: 22.7 sec


-------------------------------------
Pair Pair Term precalculation with     
RI-(ij|mn) and (im|jn) transformation  
ON THE FLY                             
-------------------------------------

   IBatch   1 (of   2)              ... done ( 1148.237 sec)
   IBatch   2 (of   2)              ... done (  772.434 sec)
Total EXT                           ...        1920.671 sec

---------------------
RI-PNO TRANSFORMATION
---------------------

Total Number of PNOs                   ... 32496
Total Number of IJ-PNOs                ... 28412
Total Number of IP-PNOs                ...  3126
Total Number of PQ-PNOs                ...   958
Total Number of IJ-pairs               ...   901
Total Number of PI-pairs               ...   113
Total Number of PQ-pairs               ...    25
Average number of PNOs per pair        ...    31
Maximal number of PNOs per pair        ...    86
>> Statistics for ij-pairs..
   #pairs with  1 -  5 PNOs   :    0
   #pairs with  6 - 10 PNOs   :    0
   #pairs with 11 - 15 PNOs   :   90
   #pairs with 16 - 20 PNOs   :  180
   #pairs with 21 - 25 PNOs   :  158
   #pairs with 26 - 30 PNOs   :  128
   #pairs with 31 - 35 PNOs   :   60
   #pairs with 36 - 40 PNOs   :   56
   #pairs with 41 - 45 PNOs   :   44
   #pairs with 46 - 50 PNOs   :   18
   #pairs with 51 - 55 PNOs   :   34
   #pairs with 56 - 60 PNOs   :   51
   #pairs with 61 - 65 PNOs   :   77
   #pairs with 66 - 70 PNOs   :    3
   #pairs with 81 - 85 PNOs   :    2
>> Statistics for ip-pairs..
   #pairs with  1 -  5 PNOs   :    0
   #pairs with  6 - 10 PNOs   :    1
   #pairs with 11 - 15 PNOs   :   12
   #pairs with 16 - 20 PNOs   :   13
   #pairs with 21 - 25 PNOs   :   19
   #pairs with 26 - 30 PNOs   :    9
   #pairs with 31 - 35 PNOs   :   46
   #pairs with 36 - 40 PNOs   :   11
   #pairs with 41 - 45 PNOs   :    2
   #pairs with 46 - 50 PNOs   :    0
>> Statistics for pq-pairs..
   #pairs with  1 -  5 PNOs   :    0
   #pairs with  6 - 10 PNOs   :    0
   #pairs with 11 - 15 PNOs   :    0
   #pairs with 16 - 20 PNOs   :    0
   #pairs with 21 - 25 PNOs   :   10
   #pairs with 26 - 30 PNOs   :   10
   #pairs with 31 - 35 PNOs   :    0
   #pairs with 36 - 40 PNOs   :    0
   #pairs with 41 - 45 PNOs   :    0
   #pairs with 46 - 50 PNOs   :    0
   #pairs with 86 - 90 PNOs   :    5

Generation of (ij|ab)[P] integrals            ... on
Generation of (ia|bc)[P],(ja|bc)[P] integrals ... on
Storage of 3 and 4 external integrals         ... on
Generation of ALL (ka|bc)[P] integrals        ... on
Keep RI integrals in memory                   ... off

Ibatch:  1 (of  1)
Starting 2-4 index PNO integral generation ... done

Timings:
Total PNO integral transformation time     ...       1825.564 sec
Size of the 3-external file                ...       278 MB
Size of the 4-external file                ...      1903 MB
Size of the IKJL file                      ...        16 MB
Size of the all 3-external file            ...      6681 MB
Size of the 1-external file                ...        21 MB

Size of the PAO/PNO coefficient matrices   ...     204.6 MB

Making pair/pair overlap matrices          ... done (  275.162 sec)
Size of the pair overlap file              ...    2239.0 MB
Total # unrestricted pairs ...       1995
  # of alpha-alpha pairs   ...        552
  # of alpha-beta pairs    ...       1014
  # of beta-beta pairs     ...        429
Constructing the guess amplitudes          ... done (    0.563 sec)

-------------------------
FINAL STARTUP INFORMATION
-------------------------

E(0)                                       ...  -3028.469970642
E(SL-UMP2 in NEV-PNO space)                ...     -2.676111139
Initial E(tot)                             ...  -3031.146081781
<T|T>                                      ...      0.532162355
Number of unrestricted pairs included      ... 1995
Total number of pairs                      ... 4095
----------------------------------------------------------
                     OPEN-SHELL COUPLED CLUSTER ITERATIONS
----------------------------------------------------------

Number of PNO amplitudes to be optimized        ...          2009264
Number of canonical amplitudes for strong pairs ...       1801884968
Untruncated number of canonical amplitudes      ...       3698645738

Iter       E(tot)           E(Corr)          Delta-E          Residual     Time
  0  -3031.153326619     -2.647863238      0.028247901      0.021051509 1328.57
                           *** Turning on DIIS ***
  1  -3031.269946637     -2.764483256     -0.116620018      0.010918144 1383.15
  2  -3031.334965316     -2.829501934     -0.065018679      0.008430447 1343.22
  3  -3031.357110567     -2.851647186     -0.022145252      0.003338112 1318.16
  4  -3031.364862033     -2.859398652     -0.007751466      0.002652076 1575.00
  5  -3031.369132542     -2.863669161     -0.004270509      0.001497142 1588.64
  6  -3031.370708184     -2.865244803     -0.001575641      0.000746995 1589.79
  7  -3031.371364902     -2.865901521     -0.000656719      0.000478085 1611.15
  8  -3031.371511949     -2.866048568     -0.000147047      0.000219932 1599.81
  9  -3031.371571604     -2.866108223     -0.000059655      0.000142613 1609.55
 10  -3031.371574423     -2.866111042     -0.000002819      0.000076664 1608.97
 11  -3031.371587332     -2.866123951     -0.000012909      0.000064187 1596.58
 12  -3031.371592170     -2.866128789     -0.000004839      0.000037487 1596.46
 13  -3031.371594342     -2.866130961     -0.000002172      0.000017571 1605.61
 14  -3031.371595962     -2.866132581     -0.000001619      0.000011494 1593.53
 15  -3031.371595115     -2.866131734      0.000000847      0.000005040 1595.40
               --- The CCSD iterations have converged ---

E(0)                                       ...  -3028.469970642
E(CORR)(strong-pairs)                      ...     -2.866131734
E(CORR)(weak-pairs)                        ...     -0.035492739
E(CORR)(corrected)                         ...     -2.901624473
E(TOT)                                     ...  -3031.371595115
Singles norm <S|S>**1/2                    ...      0.196370686 ( 0.064681824, 0.131688862)  
T1 diagnostic                              ...      0.020585241                              
<S**2>(linearized)                         ...      8.7508606 (ideal value:      8.7500000)

----------------------
LARGEST PNO AMPLITUDES
----------------------
  49b-> 72b  -1b-> -1b       0.055023
  52b-> 73b  -1b-> -1b       0.054466
  51b-> 73b  -1b-> -1b       0.053417
  46a-> 78a  46b-> 78b       0.051342
  49b-> 76b  -1b-> -1b       0.047221
  44a-> 77a  44b-> 77b       0.046899
  49b-> 75b  -1b-> -1b       0.046467
  42b-> 74b  -1b-> -1b       0.045161
  35b-> 72b  -1b-> -1b       0.044667
  38b-> 74b  -1b-> -1b       0.044346
  55a-> 77a  55b-> 77b       0.044044
  62a-> 77a  62b-> 77b       0.043713
  70a-> 77a  70b-> 77b       0.043661
  69a-> 77a  69b-> 77b       0.043566
  64a-> 77a  64b-> 77b       0.043276
  43a-> 77a  43b-> 77b       0.043223

Total # unrestricted pairs ...       1264
  # of alpha-alpha pairs   ...        346
  # of alpha-beta pairs    ...        632
  # of beta-beta pairs     ...        286

-------------------------------------------
DLPNO BASED TRIPLES CORRECTION
-------------------------------------------

Singles multiplier          ...  1.000000
Fragment selection                          .... not used
TCutTNO                     ... 1.000e-09
TCutMP2Pairs                ... 1.000e-05
TCutDOStrong                ... 2.000e-02
TCutMKNStrong               ... 1.000e-02
TCutDOWeak                  ... 4.000e-02
TCutMKNWeak                 ... 1.000e-01
NTCutTNO                    ... 1

Number of Triples that are to be computed         ...     30682

 . . . . . . . . .
10% done  
20% done  
30% done  
40% done  
50% done  
60% done  
70% done  
80% done  
90% done  
          Batch   1   done (  12737.195 sec)

Triples-Correction TCutTNO=   1.000e-09 (NWeakPairs = 0  1  2  3)  -0.115956622083   -0.001751741622    0.000000000000    0.000000000000
Triples-Correction  -0.117708363705

Triples timings:
Total time                      ... 13291.305 sec

Triples List generation         ...     0.000 sec
TNO generation                  ...   553.842 sec
Pair density generation         ...     0.094 sec
Look up tables                  ...     0.101 sec
Generating 3-index integrals    ...  7802.090 sec
Make 4-ind.int. from 3-ind.int  ...     2.909 sec
Projecting amplitudes (D + S)   ...  4712.291 sec
Sorting integrals for spin cases...    46.017 sec
Calculate W0/W1                 ...   140.442 sec
Energy contr. (sum over a,b,c)  ...    33.334 sec

Everything after 3-index        ...  5040.500 sec

Energy contribution AAA         ...    21.491 sec
Energy contribution AAB         ...    97.807 sec
Energy contribution ABB         ...    88.772 sec
Energy contribution BBB         ...    11.757 sec
prep                ...     2.792 sec
makeTTNO            ...  4663.631 sec
copyij              ...     0.114 sec
copyil              ...     3.609 sec
transposeij         ...     0.068 sec
newMatInDoubleProj  ...    46.912 sec
BlasInDoubleProj    ...  2501.075 sec
ProjSingles         ...    39.944 sec
ProjDoubles         ...  4672.346 sec
overall Doubles for projection      ... 2716254
used Doubles for projection         ... 2716254


Number of Triples   (0, 1, 2, 3 weak pairs; overall):  14211   11148       0       0  ( 25359)
Number of Atoms     (0, 1, 2, 3 weak pairs; overall):   18.8    13.6     0.0     0.0  (    29)
Number of PAOs      (0, 1, 2, 3 weak pairs; overall):  742.3   550.9     0.0     0.0  (  1025)
Number of AuxFcns   (0, 1, 2, 3 weak pairs; overall):  845.2   571.8     0.0     0.0  (  2424)
Number of TNOs (0, 1, 2, 3 weak pairs         ):   78.2    55.7     0.0     0.0
Aver. Number of NTNO, Atoms, PAOs, AuxFcns / Triples:  25359    68.3    16.5   658.1   725.0

Triples Correction (T)                     ...     -0.117708364
    alpha-alpha-alpha ... -0.003739309 (  3.2%)
    alpha-alpha-beta  ... -0.055300246 ( 47.0%)
    alpha-beta -beta  ... -0.054655989 ( 46.4%)
    beta -beta -beta  ... -0.004012819 (  3.4%)
Final correlation energy                   ...     -3.019332837
E(CCSD)                                    ...  -3031.371595115
E(CCSD(T))                                 ...  -3031.489303479

----------------------------
STATISTICS FOR PAIR-ENERGIES
----------------------------
Minimum, maximum and average ratios of UMP and CCSD pair-energies ... 0.46, 1.45, 1.02


------------------------------------------------------------------------------- 
                                     TIMINGS                                   
------------------------------------------------------------------------------- 


Total execution time                   ...    45023.752 sec

Localization of occupied MO's          ...        9.693 sec (  0.0%)
Fock Matrix Formation                  ...     1314.507 sec (  2.9%)
Differential overlap integrals         ...        1.427 sec (  0.0%)
Organizing maps                        ...        1.619 sec (  0.0%)
RI 3-index integral generations        ...      270.792 sec (  0.6%)
RI-PNO integral transformation         ...     4107.168 sec (  9.1%)
Initial Guess                          ...     1772.137 sec (  3.9%)
DIIS Solver                            ...       16.749 sec (  0.0%)
State Vector Update                    ...        0.741 sec (  0.0%)
Sigma-vector construction              ...    24543.568 sec ( 54.5%)
  <0|H|D>                              ...        0.030 sec (  0.0% of sigma)
  <D|H|D>(0-ext)                       ...     4100.723 sec ( 16.7% of sigma)
  <D|H|D>(2-ext Fock)                  ...        1.535 sec (  0.0% of sigma)
  <D|H|D>(2-ext)                       ...     3506.333 sec ( 14.3% of sigma)
  <D|H|D>(4-ext)                       ...      159.107 sec (  0.6% of sigma)
  <D|H|D>(4-ext-corr)                  ...      978.171 sec (  4.0% of sigma)
  CCSD doubles correction              ...      387.467 sec (  1.6% of sigma)
  <S|H|S>                              ...      666.790 sec (  2.7% of sigma)
  <S|H|D>(1-ext)                       ...      276.657 sec (  1.1% of sigma)
  <D|H|S>(1-ext)                       ...        0.838 sec (  0.0% of sigma)
  <S|H|D>(3-ext)                       ...       21.191 sec (  0.1% of sigma)
  CCSD singles correction              ...        0.005 sec (  0.0% of sigma)
  Fock-dressing                        ...     6898.225 sec ( 28.1% of sigma)
  Singles amplitudes                   ...      108.444 sec (  0.4% of sigma)
  (ik|jl)-dressing                     ...     5987.594 sec ( 24.4% of sigma)
  (ij|ab),(ia|jb)-dressing             ...     1171.281 sec (  4.8% of sigma)
  Pair energies                        ...        0.125 sec (  0.0% of sigma)
Total Time for computing (T)           ...    13337.223 sec ( 29.6% of ALL)


-------------------------   --------------------
FINAL SINGLE POINT ENERGY     -3031.489303478659
-------------------------   --------------------


                            ***************************************
                            *     ORCA property calculations      *
                            ***************************************

                                    ---------------------
                                    Active property flags
                                    ---------------------
   (+) Dipole Moment


------------------------------------------------------------------------------
                       ORCA ELECTRIC PROPERTIES CALCULATION
------------------------------------------------------------------------------

Dipole Moment Calculation                       ... on
Quadrupole Moment Calculation                   ... off
Polarizability Calculation                      ... off
GBWName                                         ... simple-grid-280-285-b3lyp_d3bj-631gd-gas-singlepoint-DLPNO_CCSD_T1-NormalPNO-augtz-gas.gbw
Electron density file                           ... simple-grid-280-285-b3lyp_d3bj-631gd-gas-singlepoint-DLPNO_CCSD_T1-NormalPNO-augtz-gas.scfp.tmp
The origin for moment calculation is the CENTER OF MASS  = (-0.313909, -0.041421  0.016331)

-------------
DIPOLE MOMENT
-------------
                                X             Y             Z
Electronic contribution:    -43.60048      -4.63928       1.80859
Nuclear contribution   :     46.77246       6.17177      -2.43324
                        -----------------------------------------
Total Dipole Moment    :      3.17198       1.53248      -0.62465
                        -----------------------------------------
Magnitude (a.u.)       :      3.57773
Magnitude (Debye)      :      9.09387



--------------------
Rotational spectrum 
--------------------
 
Rotational constants in cm-1:     0.018739     0.010701     0.010081 
Rotational constants in MHz :   561.790800   320.794202   302.206670 

 Dipole components along the rotational axes: 
x,y,z [a.u.] :     3.165162    -1.531438    -0.660770 
x,y,z [Debye]:     8.045201    -3.892606    -1.679543 

 

Timings for individual modules:

Sum of individual times         ...    61297.141 sec (=1021.619 min)
GTO integral calculation        ...       12.269 sec (=   0.204 min)   0.0 %
SCF iterations                  ...    16243.506 sec (= 270.725 min)  26.5 %
MDCI module                     ...    45041.366 sec (= 750.689 min)  73.5 %
                             ****ORCA TERMINATED NORMALLY****
TOTAL RUN TIME: 0 days 17 hours 1 minutes 39 seconds 775 msec
