
                                 *****************
                                 * O   R   C   A *
                                 *****************

           --- An Ab Initio, DFT and Semiempirical electronic structure package ---

                  #######################################################
                  #                        -***-                        #
                  #          Department of theory and spectroscopy      #
                  #               Directorship: Frank Neese             #
                  #        Max Planck Institute fuer Kohlenforschung    #
                  #                Kaiser Wilhelm Platz 1               #
                  #                 D-45470 Muelheim/Ruhr               #
                  #                      Germany                        #
                  #                                                     #
                  #                  All rights reserved                #
                  #                        -***-                        #
                  #######################################################


                         Program Version 4.1.2  - RELEASE  -


 With contributions from (in alphabetic order):
   Daniel Aravena         : Magnetic Properties
   Michael Atanasov       : Ab Initio Ligand Field Theory
   Alexander A. Auer      : GIAO ZORA
   Ute Becker             : Parallelization
   Giovanni Bistoni       : ED, Open-shell LED
   Martin Brehm           : Molecular dynamics
   Dmytro Bykov           : SCF Hessian
   Vijay G. Chilkuri      : MRCI spin determinant printing
   Dipayan Datta          : RHF DLPNO-CCSD density
   Achintya Kumar Dutta   : EOM-CC, STEOM-CC
   Dmitry Ganyushin       : Spin-Orbit,Spin-Spin,Magnetic field MRCI
   Miquel Garcia          : C-PCM Hessian
   Yang Guo               : DLPNO-NEVPT2, CIM, IAO-localization
   Andreas Hansen         : Spin unrestricted coupled pair/coupled cluster methods
   Benjamin Helmich-Paris : CASSCF linear response (MC-RPA)
   Lee Huntington         : MR-EOM, pCC
   Robert Izsak           : Overlap fitted RIJCOSX, COSX-SCS-MP3, EOM
   Christian Kollmar      : KDIIS, OOCD, Brueckner-CCSD(T), CCSD density
   Simone Kossmann        : Meta GGA functionals, TD-DFT gradient, OOMP2, MP2 Hessian
   Martin Krupicka        : AUTO-CI
   Lucas Lang             : DCDCAS
   Dagmar Lenk            : GEPOL surface, SMD
   Dimitrios Liakos       : Extrapolation schemes; parallel MDCI
   Dimitrios Manganas     : ROCIS; embedding schemes
   Dimitrios Pantazis     : SARC Basis sets
   Taras Petrenko         : DFT Hessian,TD-DFT gradient, ASA, ECA, R-Raman, ABS, FL, XAS/XES, NRVS
   Peter Pinski           : DLPNO-MP2, DLPNO-MP2 Gradient
   Christoph Reimann      : Effective Core Potentials
   Marius Retegan         : Local ZFS, SOC
   Christoph Riplinger    : Optimizer, TS searches, QM/MM, DLPNO-CCSD(T), (RO)-DLPNO pert. Triples
   Tobias Risthaus        : Range-separated hybrids, TD-DFT gradient, RPA, STAB
   Michael Roemelt        : Restricted open shell CIS
   Masaaki Saitow         : Open-shell DLPNO
   Barbara Sandhoefer     : DKH picture change effects
   Avijit Sen             : IP-ROCIS
   Kantharuban Sivalingam : CASSCF convergence, NEVPT2, FIC-MRCI
   Bernardo de Souza      : ESD, SOC TD-DFT
   Georgi Stoychev        : AutoAux, RI-MP2 NMR
   Willem Van den Heuvel  : Paramagnetic NMR
   Boris Wezisla          : Elementary symmetry handling
   Frank Wennmohs         : Technical directorship


 We gratefully acknowledge several colleagues who have allowed us to
 interface, adapt or use parts of their codes:
   Stefan Grimme, W. Hujo, H. Kruse,             : VdW corrections, initial TS optimization,
                  C. Bannwarth                     DFT functionals, gCP, sTDA/sTD-DF
   Ed Valeev                                     : LibInt (2-el integral package), F12 methods
   Garnet Chan, S. Sharma, J. Yang, R. Olivares  : DMRG
   Ulf Ekstrom                                   : XCFun DFT Library
   Mihaly Kallay                                 : mrcc  (arbitrary order and MRCC methods)
   Andreas Klamt, Michael Diedenhofen            : otool_cosmo (COSMO solvation model)
   Jiri Pittner, Ondrej Demel                    : Mk-CCSD
   Frank Weinhold                                : gennbo (NPA and NBO analysis)
   Christopher J. Cramer and Donald G. Truhlar   : smd solvation model
   Lars Goerigk                                  : TD-DFT with DH, B97 family of functionals
   V. Asgeirsson, H. Jonsson                     : NEB implementation
   FAccTs GmbH                                   : IRC, NEB, NEB-TS, Multilevel


 Your calculation uses the libint2 library for the computation of 2-el integrals
 For citations please refer to: http://libint.valeyev.net

 This ORCA versions uses:
   CBLAS   interface :  Fast vector & matrix operations
   LAPACKE interface :  Fast linear algebra routines
   SCALAPACK package :  Parallel linear algebra routines


----- Orbital basis set information -----
Your calculation utilizes the basis: aug-cc-pVTZ 
    H, B-Ne : Obtained from the ccRepo (grant-hill.group.shef.ac.uk/ccrepo) Feb. 2017
              R. A. Kendall, T. H. Dunning, Jr., R. J. Harrison, J. Chem. Phys. 96, 6796 (1992)
         He : Obtained from the ccRepo (grant-hill.group.shef.ac.uk/ccrepo) Feb. 2017
              D. E. Woon, T. H. Dunning, Jr., J. Chem. Phys. 100, 2975 (1994)
  Li-Be, Na : Obtained from the ccRepo (grant-hill.group.shef.ac.uk/ccrepo) Feb. 2017
              B. P. Prascher, D. E. Woon, K. A. Peterson, T. H. Dunning, Jr., A. K. Wilson, Theor. Chem. Acc. 128, 69 (2011)
         Mg : Obtained from the Peterson Research Group Website (tyr0.chem.wsu.edu/~kipeters) Feb. 2017
              B. P. Prascher, D. E. Woon, K. A. Peterson, T. H. Dunning, Jr., A. K. Wilson, Theor. Chem. Acc. 128, 69 (2011)
      Al-Ar : Obtained from the ccRepo (grant-hill.group.shef.ac.uk/ccrepo) Feb. 2017
              D. E. Woon, T. H. Dunning, Jr., J. Chem. Phys. 98, 1358 (1993)
      Sc-Zn : Obtained from the ccRepo (grant-hill.group.shef.ac.uk/ccrepo) Feb. 2017
              N. B. Balabanov, K. A. Peterson, J. Chem. Phys. 123, 064107 (2005)
              N. B. Balabanov, K. A. Peterson, J. Chem. Phys. 125, 074110 (2006)
      Ga-Kr : Obtained from the ccRepo (grant-hill.group.shef.ac.uk/ccrepo) Feb. 2017
              A. K. Wilson, D. E. Woon, K. A. Peterson, T. H. Dunning, Jr., J. Chem. Phys. 110, 7667 (1999)
     Ag, Au : Obtained from the Peterson Research Group Website (tyr0.chem.wsu.edu/~kipeters) Feb. 2017
              K. A. Peterson, C. Puzzarini, Theor. Chem. Acc. 114, 283 (2005)

----- AuxJ basis set information -----
Your calculation utilizes the AutoAux generation procedure.
  G. L. Stoychev, A. A. Auer, F. Neese, J. Chem. Theory Comput. 13, 554 (2017)

----- AuxC basis set information -----
Your calculation utilizes the auxiliary basis: aug-cc-pVTZ/C 
  H-He, B-F, Al-Ar, Ga-Kr : Obtained from the EMSL Basis Set Exchange (bse.pnl.gov) Feb. 2017
                            F. Weigend, A. Kohn, C. Hattig, J. Chem. Phys. 116, 3175 (2002)
                   Be, Mg : Obtained from the TURBOMOLE 7.0 basis set library
                            C. Haettig, Phys. Chem. Chem. Phys. 7, 59 (2005)
                       Ne : Obtained from the EMSL Basis Set Exchange (bse.pnl.gov) Feb. 2017
                            C. Haettig, Phys. Chem. Chem. Phys. 7, 59 (2005)
                            F. Weigend, A. Kohn, C. Hattig, J. Chem. Phys. 116, 3175 (2002)
                    Sc-Zn : Obtained from the EMSL Basis Set Exchange (bse.pnl.gov) Feb. 2017
                            J. G. Hill, J. A. Platts, J. Chem. Phys. 128, 044104 (2008)

----- AuxJK basis set information -----
Your calculation utilizes the AutoAux generation procedure.
  G. L. Stoychev, A. A. Auer, F. Neese, J. Chem. Theory Comput. 13, 554 (2017)

================================================================================
                                        WARNINGS
                       Please study these warnings very carefully!
================================================================================


WARNING: your system is open-shell and RHF/RKS was chosen
  ===> : WILL SWITCH to UHF/UKS


WARNING: MDCI localization with Augmented Hessian Foster-Boys
  ===> : Switching off randomization!

WARNING: Post HF methods need fully converged wavefunctions
  ===> : Setting SCFConvForced true
         You can overwrite this default with %scf ConvForced false 


INFO   : the flag for use of LIBINT has been found!

================================================================================
                                       INPUT FILE
================================================================================
NAME = simple-grid-170-235-b3lyp_d3bj-631gd-gas-singlepoint-DLPNO_CCSD_T1-NormalPNO-augtz-gas.inp
|  1> ! aug-cc-pVTZ aug-cc-pVTZ/C DLPNO-CCSD(T1) TightSCF NormalPNO UNO MiniPrint AutoAux
|  2> %pal nproc 10 end
|  3> %maxcore 20000
|  4> %mdci
|  5>      density none
|  6> end
|  7> 
|  8> * xyz 0 6
|  9>  O     -0.29889900     -0.34359800     -0.67541200
| 10>  C     -1.40300300     -1.19890100     -0.48402300
| 11>  C     -2.70061000     -0.18554800     -0.06055000
| 12>  C     -2.06825000      1.13906500     -0.23540400
| 13>  C     -1.97647400      1.76810500     -1.56261600
| 14> Fe      1.36246000      0.03136400      0.01307600
| 15> Cl      1.66842300      2.10048500     -0.76739600
| 16>  C     -1.58824000      1.90627100      0.92088700
| 17> Cl      2.80844700     -1.49276600     -0.61591800
| 18> Cl      1.12094800      0.10080600      2.24446900
| 19>  H     -3.44834600     -0.32481300     -0.84742100
| 20>  H     -2.46549500      2.18094300      1.52799400
| 21>  H     -0.96508600      1.27727000      1.57405200
| 22>  H     -1.02979200      2.79801000      0.63634400
| 23>  H     -2.58200500      2.68893200     -1.53444800
| 24>  H     -0.93758300      2.09039000     -1.72325600
| 25>  H     -2.31765600      1.12976000     -2.37661300
| 26>  C     -3.31683400     -0.45483500      1.31027000
| 27>  H     -4.13014300      0.25019800      1.51784000
| 28>  H     -3.74264200     -1.46075500      1.33299300
| 29>  H     -2.58625000     -0.38305100      2.11894300
| 30>  C     -1.12348000     -2.22880200      0.60105400
| 31>  H     -1.96336700     -2.91487500      0.74545100
| 32>  H     -0.25579200     -2.81350300      0.27359700
| 33>  H     -0.86204700     -1.76116000      1.55149100
| 34>  C     -1.73878900     -1.86989600     -1.81216200
| 35>  H     -0.88106900     -2.47822700     -2.11711600
| 36>  H     -2.61931000     -2.51588900     -1.72501200
| 37>  H     -1.91501600     -1.12758100     -2.59588400
| 38> *
| 39> 
| 40> 
| 41>                          ****END OF INPUT****
================================================================================

                       ****************************
                       * Single Point Calculation *
                       ****************************

---------------------------------
CARTESIAN COORDINATES (ANGSTROEM)
---------------------------------
  O     -0.298899   -0.343598   -0.675412
  C     -1.403003   -1.198901   -0.484023
  C     -2.700610   -0.185548   -0.060550
  C     -2.068250    1.139065   -0.235404
  C     -1.976474    1.768105   -1.562616
  Fe     1.362460    0.031364    0.013076
  Cl     1.668423    2.100485   -0.767396
  C     -1.588240    1.906271    0.920887
  Cl     2.808447   -1.492766   -0.615918
  Cl     1.120948    0.100806    2.244469
  H     -3.448346   -0.324813   -0.847421
  H     -2.465495    2.180943    1.527994
  H     -0.965086    1.277270    1.574052
  H     -1.029792    2.798010    0.636344
  H     -2.582005    2.688932   -1.534448
  H     -0.937583    2.090390   -1.723256
  H     -2.317656    1.129760   -2.376613
  C     -3.316834   -0.454835    1.310270
  H     -4.130143    0.250198    1.517840
  H     -3.742642   -1.460755    1.332993
  H     -2.586250   -0.383051    2.118943
  C     -1.123480   -2.228802    0.601054
  H     -1.963367   -2.914875    0.745451
  H     -0.255792   -2.813503    0.273597
  H     -0.862047   -1.761160    1.551491
  C     -1.738789   -1.869896   -1.812162
  H     -0.881069   -2.478227   -2.117116
  H     -2.619310   -2.515889   -1.725012
  H     -1.915016   -1.127581   -2.595884

----------------------------
CARTESIAN COORDINATES (A.U.)
----------------------------
  NO LB      ZA    FRAG     MASS         X           Y           Z
   0 O     8.0000    0    15.999   -0.564837   -0.649306   -1.276344
   1 C     6.0000    0    12.011   -2.651291   -2.265595   -0.914671
   2 C     6.0000    0    12.011   -5.103413   -0.350635   -0.114423
   3 C     6.0000    0    12.011   -3.908426    2.152521   -0.444849
   4 C     6.0000    0    12.011   -3.734995    3.341234   -2.952916
   5 Fe   26.0000    0    55.850    2.574676    0.059269    0.024710
   6 Cl   17.0000    0    35.453    3.152863    3.969341   -1.450168
   7 C     6.0000    0    12.011   -3.001339    3.602330    1.740224
   8 Cl   17.0000    0    35.453    5.307196   -2.820919   -1.163916
   9 Cl   17.0000    0    35.453    2.118285    0.190496    4.241432
  10 H     1.0000    0     1.008   -6.516430   -0.613808   -1.601394
  11 H     1.0000    0     1.008   -4.659110    4.121385    2.887490
  12 H     1.0000    0     1.008   -1.823748    2.413690    2.974527
  13 H     1.0000    0     1.008   -1.946025    5.287473    1.202516
  14 H     1.0000    0     1.008   -4.879282    5.081345   -2.899686
  15 H     1.0000    0     1.008   -1.771775    3.950265   -3.256482
  16 H     1.0000    0     1.008   -4.379735    2.134937   -4.491148
  17 C     6.0000    0    12.011   -6.267908   -0.859514    2.476051
  18 H     1.0000    0     1.008   -7.804839    0.472806    2.868302
  19 H     1.0000    0     1.008   -7.072568   -2.760427    2.518992
  20 H     1.0000    0     1.008   -4.887304   -0.723861    4.004222
  21 C     6.0000    0    12.011   -2.123070   -4.211825    1.135827
  22 H     1.0000    0     1.008   -3.710226   -5.508315    1.408698
  23 H     1.0000    0     1.008   -0.483377   -5.316750    0.517023
  24 H     1.0000    0     1.008   -1.629033   -3.328110    2.931893
  25 C     6.0000    0    12.011   -3.285835   -3.533591   -3.424490
  26 H     1.0000    0     1.008   -1.664979   -4.683170   -4.000769
  27 H     1.0000    0     1.008   -4.949779   -4.754341   -3.259800
  28 H     1.0000    0     1.008   -3.618856   -2.130819   -4.905510



           ************************************************************
           *        Program running with 10 parallel MPI-processes    *
           *              working on a common directory               *
           ************************************************************


           ************************************************************
           *        Program running with 10 parallel MPI-processes    *
           *              working on a common directory               *
           ************************************************************

Diagonalization of the overlap matrix:
Smallest eigenvalue                        ... 6.097e-07
Time for diagonalization                   ...    0.349 sec
Threshold for overlap eigenvalues          ... 1.000e-08
Number of eigenvalues below threshold      ... 0
Time for construction of square roots      ...    0.299 sec
Total time needed                          ...    0.652 sec

-------------------
DFT GRID GENERATION
-------------------

General Integration Accuracy     IntAcc      ...  4.340
Radial Grid Type                 RadialGrid  ... Gauss-Chebyshev
Angular Grid (max. acc.)         AngularGrid ... Lebedev-110
Angular grid pruning method      GridPruning ... 3 (G Style)
Weight generation scheme         WeightScheme... Becke
Basis function cutoff            BFCut       ...    1.0000e-11
Integration weight cutoff        WCut        ...    1.0000e-14
Grids for H and He will be reduced by one unit

# of grid points (after initial pruning)     ...  36112 (   0.0 sec)
# of grid points (after weights+screening)   ...  32290 (   0.1 sec)
nearest neighbour list constructed           ...    0.0 sec
Grid point re-assignment to atoms done       ...    0.0 sec
Grid point division into batches done        ...    0.0 sec
Reduced shell lists constructed in    0.3 sec

Total number of grid points                  ...    32290
Total number of batches                      ...      519
Average number of points per batch           ...       62
Average number of grid points per atom       ...     1113
Average number of shells per batch           ...   294.21 (85.77%)
Average number of basis functions per batch  ...   875.91 (85.45%)
Average number of large shells per batch     ...   242.96 (82.58%)
Average number of large basis fcns per batch ...   722.85 (82.53%)
Maximum spatial batch extension              ...   3.08,  3.17,  5.31 au
Average spatial batch extension              ...   0.17,  0.18,  0.17 au

Time for grid setup =    0.438 sec

Loading Hartree-Fock densities                     ... done
Calculating cut-offs                               ... done
Setting up the integral package                    ... done
Initializing the effective Hamiltonian             ... done
Starting the Coulomb interaction                   ... done (   1.1 sec)
Reading the grid                                   ... done
Mapping shells                                     ... done
Starting the XC term evaluation                    ... done (   1.0 sec)
Transforming the Hamiltonian                       ... done (   0.2 sec)
Diagonalizing the Hamiltonian                      ... done (   0.4 sec)
Back transforming the eigenvectors                 ... done (   0.1 sec)
Now organizing SCF variables                       ... done
--------------
SCF ITERATIONS
--------------
ITER       Energy         Delta-E        Max-DP      RMS-DP      [F,P]     Damp
               ***  Starting incremental Fock matrix formation  ***
  0  -3027.5675363926   0.000000000000 0.30014867  0.00132058  0.2977912 0.7000
  1  -3027.8200636933  -0.252527300671 0.21102626  0.00101299  0.1690148 0.7000
                               ***Turning on DIIS***
  2  -3027.9885682425  -0.168504549169 0.14298797  0.00073497  0.1098665 0.7000
  3  -3029.6795228297  -1.690954587183 0.29742548  0.00180362  0.0826448 0.0000
  4  -3028.3017226609   1.377800168782 0.04811605  0.00023193  0.0195826 0.0000
  5  -3028.4191130294  -0.117390368490 0.04016763  0.00017324  0.0115445 0.0000
  6  -3028.4379668945  -0.018853865112 0.02073488  0.00006924  0.0052231 0.0000
  7  -3028.4586878267  -0.020720932188 0.00995135  0.00003284  0.0032001 0.0000
  8  -3028.4549773387   0.003710487987 0.00599401  0.00001813  0.0013372 0.0000
  9  -3028.4453283850   0.009648953648 0.00243276  0.00001071  0.0006873 0.0000
 10  -3028.4349014587   0.010426926345 0.00084368  0.00000312  0.0004113 0.0000
 11  -3028.4409272872  -0.006025828535 0.00026504  0.00000184  0.0000646 0.0000
 12  -3028.4389844057   0.001942881505 0.00025958  0.00000124  0.0000179 0.0000
 13  -3028.4390729833  -0.000088577609 0.00043666  0.00000156  0.0000089 0.0000
 14  -3028.4391007869  -0.000027803566 0.00118293  0.00000237  0.0000054 0.0000
 15  -3028.4390446792   0.000056107641 0.00144335  0.00000272  0.0000031 0.0000
 16  -3028.4390599193  -0.000015240019 0.00175823  0.00000342  0.0000020 0.0000
 17  -3028.4390608782  -0.000000958958 0.00162409  0.00000307  0.0000010 0.0000
                            ***DIIS convergence achieved***

               *****************************************************
               *                     SUCCESS                       *
               *           SCF CONVERGED AFTER  18 CYCLES          *
               *****************************************************

Total Energy       :        -3028.43905559 Eh          -82408.01625 eV
  Last Energy change         ...    5.2932e-06  Tolerance :   1.0000e-08
  Last MAX-Density change    ...    2.0673e-03  Tolerance :   1.0000e-07
             **** THE GBW FILE WAS UPDATED (simple-grid-170-235-b3lyp_d3bj-631gd-gas-singlepoint-DLPNO_CCSD_T1-NormalPNO-augtz-gas.gbw) ****
             **** DENSITY FILE WAS UPDATED (simple-grid-170-235-b3lyp_d3bj-631gd-gas-singlepoint-DLPNO_CCSD_T1-NormalPNO-augtz-gas.scfp.tmp) ****
             **** ENERGY FILE WAS UPDATED (simple-grid-170-235-b3lyp_d3bj-631gd-gas-singlepoint-DLPNO_CCSD_T1-NormalPNO-augtz-gas.en.tmp) ****
----------------------
UHF SPIN CONTAMINATION
----------------------

Expectation value of <S**2>     :     8.764564
Ideal value S*(S+1) for S=2.5   :     8.750000
Deviation                       :     0.014564

----------------
ORBITAL ENERGIES
----------------
                 SPIN UP ORBITALS
  NO   OCC          E(Eh)            E(eV) 
   0   1.0000    -261.543475     -7116.9598 
   1   1.0000    -104.774302     -2851.0537 
   2   1.0000    -104.773455     -2851.0307 
   3   1.0000    -104.768091     -2850.8847 
   4   1.0000     -32.211318      -876.5145 
   5   1.0000     -27.687333      -753.4106 
   6   1.0000     -27.687066      -753.4034 
   7   1.0000     -27.686680      -753.3929 
   8   1.0000     -20.537615      -558.8569 
   9   1.0000     -11.411651      -310.5268 
  10   1.0000     -11.342215      -308.6374 
  11   1.0000     -11.294403      -307.3363 
  12   1.0000     -11.286633      -307.1249 
  13   1.0000     -11.280187      -306.9495 
  14   1.0000     -11.264188      -306.5141 
  15   1.0000     -11.238734      -305.8215 
  16   1.0000     -11.231745      -305.6313 
  17   1.0000     -10.500886      -285.7436 
  18   1.0000     -10.499953      -285.7182 
  19   1.0000     -10.494634      -285.5735 
  20   1.0000      -7.967787      -216.8145 
  21   1.0000      -7.966873      -216.7896 
  22   1.0000      -7.966846      -216.7889 
  23   1.0000      -7.966810      -216.7879 
  24   1.0000      -7.966021      -216.7665 
  25   1.0000      -7.965917      -216.7636 
  26   1.0000      -7.961411      -216.6410 
  27   1.0000      -7.960765      -216.6234 
  28   1.0000      -7.960670      -216.6208 
  29   1.0000      -4.566830      -124.2698 
  30   1.0000      -3.179368       -86.5150 
  31   1.0000      -3.178952       -86.5037 
  32   1.0000      -3.178578       -86.4935 
  33   1.0000      -1.351528       -36.7770 
  34   1.0000      -1.190470       -32.3943 
  35   1.0000      -1.091610       -29.7042 
  36   1.0000      -1.044290       -28.4166 
  37   1.0000      -1.040054       -28.3013 
  38   1.0000      -1.038617       -28.2622 
  39   1.0000      -1.035258       -28.1708 
  40   1.0000      -1.019683       -27.7470 
  41   1.0000      -0.965281       -26.2666 
  42   1.0000      -0.933820       -25.4105 
  43   1.0000      -0.904220       -24.6051 
  44   1.0000      -0.896566       -24.3968 
  45   1.0000      -0.896375       -24.3916 
  46   1.0000      -0.889091       -24.1934 
  47   1.0000      -0.888292       -24.1716 
  48   1.0000      -0.798871       -21.7384 
  49   1.0000      -0.760270       -20.6880 
  50   1.0000      -0.707393       -19.2491 
  51   1.0000      -0.690338       -18.7850 
  52   1.0000      -0.676461       -18.4075 
  53   1.0000      -0.635884       -17.3033 
  54   1.0000      -0.634072       -17.2540 
  55   1.0000      -0.626757       -17.0549 
  56   1.0000      -0.604105       -16.4385 
  57   1.0000      -0.600457       -16.3393 
  58   1.0000      -0.595927       -16.2160 
  59   1.0000      -0.582744       -15.8573 
  60   1.0000      -0.578973       -15.7547 
  61   1.0000      -0.556248       -15.1363 
  62   1.0000      -0.550257       -14.9732 
  63   1.0000      -0.539141       -14.6708 
  64   1.0000      -0.525987       -14.3128 
  65   1.0000      -0.523616       -14.2483 
  66   1.0000      -0.502820       -13.6824 
  67   1.0000      -0.468513       -12.7489 
  68   1.0000      -0.462876       -12.5955 
  69   1.0000      -0.445347       -12.1185 
  70   1.0000      -0.431012       -11.7284 
  71   1.0000      -0.424174       -11.5424 
  72   1.0000      -0.420068       -11.4306 
  73   1.0000      -0.414806       -11.2874 
  74   1.0000      -0.412162       -11.2155 
  75   1.0000      -0.410840       -11.1795 
  76   1.0000      -0.408640       -11.1197 
  77   0.0000       0.004510         0.1227 
  78   0.0000       0.011424         0.3109 
  79   0.0000       0.020025         0.5449 
  80   0.0000       0.020762         0.5650 
  81   0.0000       0.030268         0.8236 
  82   0.0000       0.037246         1.0135 
  83   0.0000       0.039807         1.0832 
  84   0.0000       0.043663         1.1881 
  85   0.0000       0.044399         1.2082 
  86   0.0000       0.047385         1.2894 
  87   0.0000       0.056379         1.5341 
  88   0.0000       0.059673         1.6238 
  89   0.0000       0.061026         1.6606 
  90   0.0000       0.065112         1.7718 
  91   0.0000       0.066863         1.8194 
  92   0.0000       0.070459         1.9173 
  93   0.0000       0.072688         1.9779 
  94   0.0000       0.078158         2.1268 
  95   0.0000       0.088666         2.4127 
  96   0.0000       0.089494         2.4353 
  97   0.0000       0.092102         2.5062 
  98   0.0000       0.093366         2.5406 
  99   0.0000       0.098923         2.6918 
 100   0.0000       0.101129         2.7519 
 101   0.0000       0.109796         2.9877 
 102   0.0000       0.114861         3.1255 
 103   0.0000       0.118384         3.2214 
 104   0.0000       0.122261         3.3269 
 105   0.0000       0.125556         3.4166 
 106   0.0000       0.127189         3.4610 
 107   0.0000       0.130144         3.5414 
 108   0.0000       0.134663         3.6644 
 109   0.0000       0.134782         3.6676 
 110   0.0000       0.137061         3.7296 
 111   0.0000       0.138096         3.7578 
 112   0.0000       0.145932         3.9710 
 113   0.0000       0.150131         4.0853 
 114   0.0000       0.151554         4.1240 
 115   0.0000       0.153334         4.1724 
 116   0.0000       0.155178         4.2226 
 117   0.0000       0.160494         4.3673 
 118   0.0000       0.163870         4.4591 
 119   0.0000       0.166455         4.5295 
 120   0.0000       0.169938         4.6242 
 121   0.0000       0.174100         4.7375 
 122   0.0000       0.175517         4.7761 
 123   0.0000       0.178123         4.8470 
 124   0.0000       0.183109         4.9827 
 125   0.0000       0.188328         5.1247 
 126   0.0000       0.191080         5.1995 
 127   0.0000       0.192928         5.2498 
 128   0.0000       0.195684         5.3248 
 129   0.0000       0.201236         5.4759 
 130   0.0000       0.203294         5.5319 
 131   0.0000       0.206552         5.6206 
 132   0.0000       0.209772         5.7082 
 133   0.0000       0.211405         5.7526 
 134   0.0000       0.214842         5.8462 
 135   0.0000       0.218918         5.9571 
 136   0.0000       0.224444         6.1074 
 137   0.0000       0.229859         6.2548 
 138   0.0000       0.232673         6.3313 
 139   0.0000       0.233664         6.3583 
 140   0.0000       0.237806         6.4710 
 141   0.0000       0.238868         6.4999 
 142   0.0000       0.244339         6.6488 
 143   0.0000       0.245717         6.6863 
 144   0.0000       0.251308         6.8384 
 145   0.0000       0.251564         6.8454 
 146   0.0000       0.253790         6.9060 
 147   0.0000       0.258513         7.0345 
 148   0.0000       0.261425         7.1137 
 149   0.0000       0.265511         7.2249 
 150   0.0000       0.265859         7.2344 
 151   0.0000       0.272809         7.4235 
 152   0.0000       0.274669         7.4741 
 153   0.0000       0.278704         7.5839 
 154   0.0000       0.282703         7.6928 
 155   0.0000       0.294744         8.0204 
 156   0.0000       0.299072         8.1382 
 157   0.0000       0.302003         8.2179 
 158   0.0000       0.305592         8.3156 
 159   0.0000       0.306570         8.3422 
 160   0.0000       0.308461         8.3937 
 161   0.0000       0.312145         8.4939 
 162   0.0000       0.316259         8.6059 
 163   0.0000       0.320723         8.7273 
 164   0.0000       0.322853         8.7853 
 165   0.0000       0.325275         8.8512 
 166   0.0000       0.333159         9.0657 
 167   0.0000       0.338315         9.2060 
 168   0.0000       0.341360         9.2889 
 169   0.0000       0.346946         9.4409 
 170   0.0000       0.349828         9.5193 
 171   0.0000       0.353082         9.6078 
 172   0.0000       0.356297         9.6953 
 173   0.0000       0.362966         9.8768 
 174   0.0000       0.363653         9.8955 
 175   0.0000       0.364629         9.9221 
 176   0.0000       0.369775        10.0621 
 177   0.0000       0.371707        10.1147 
 178   0.0000       0.375017        10.2047 
 179   0.0000       0.380056        10.3419 
 180   0.0000       0.382796        10.4164 
 181   0.0000       0.383196        10.4273 
 182   0.0000       0.389181        10.5901 
 183   0.0000       0.389843        10.6082 
 184   0.0000       0.393804        10.7160 
 185   0.0000       0.396272        10.7831 
 186   0.0000       0.399496        10.8708 
 187   0.0000       0.405372        11.0307 
 188   0.0000       0.407761        11.0957 
 189   0.0000       0.410347        11.1661 
 190   0.0000       0.414767        11.2864 
 191   0.0000       0.416636        11.3372 
 192   0.0000       0.419331        11.4106 
 193   0.0000       0.425328        11.5738 
 194   0.0000       0.426866        11.6156 
 195   0.0000       0.431340        11.7373 
 196   0.0000       0.438252        11.9254 
 197   0.0000       0.438421        11.9300 
 198   0.0000       0.447102        12.1663 
 199   0.0000       0.451970        12.2987 
 200   0.0000       0.452994        12.3266 
 201   0.0000       0.454213        12.3598 
 202   0.0000       0.457768        12.4565 
 203   0.0000       0.463271        12.6062 
 204   0.0000       0.464904        12.6507 
 205   0.0000       0.467973        12.7342 
 206   0.0000       0.471503        12.8302 
 207   0.0000       0.475350        12.9349 
 208   0.0000       0.477463        12.9924 
 209   0.0000       0.480829        13.0840 
 210   0.0000       0.482370        13.1260 
 211   0.0000       0.485726        13.2173 
 212   0.0000       0.491089        13.3632 
 213   0.0000       0.493478        13.4282 
 214   0.0000       0.496638        13.5142 
 215   0.0000       0.497586        13.5400 
 216   0.0000       0.502261        13.6672 
 217   0.0000       0.506363        13.7788 
 218   0.0000       0.506806        13.7909 
 219   0.0000       0.508360        13.8332 
 220   0.0000       0.511006        13.9052 
 221   0.0000       0.514891        14.0109 
 222   0.0000       0.521410        14.1883 
 223   0.0000       0.524428        14.2704 
 224   0.0000       0.528118        14.3708 
 225   0.0000       0.535978        14.5847 
 226   0.0000       0.537256        14.6195 
 227   0.0000       0.539309        14.6753 
 228   0.0000       0.545932        14.8556 
 229   0.0000       0.547952        14.9105 
 230   0.0000       0.551754        15.0140 
 231   0.0000       0.556756        15.1501 
 232   0.0000       0.562097        15.2955 
 233   0.0000       0.563422        15.3315 
 234   0.0000       0.565663        15.3925 
 235   0.0000       0.568000        15.4561 
 236   0.0000       0.572501        15.5786 
 237   0.0000       0.580243        15.7892 
 238   0.0000       0.582995        15.8641 
 239   0.0000       0.587080        15.9753 
 240   0.0000       0.592599        16.1254 
 241   0.0000       0.594662        16.1816 
 242   0.0000       0.596480        16.2310 
 243   0.0000       0.602125        16.3846 
 244   0.0000       0.604970        16.4621 
 245   0.0000       0.607503        16.5310 
 246   0.0000       0.611424        16.6377 
 247   0.0000       0.614491        16.7212 
 248   0.0000       0.617488        16.8027 
 249   0.0000       0.619624        16.8608 
 250   0.0000       0.627269        17.0689 
 251   0.0000       0.629085        17.1183 
 252   0.0000       0.630106        17.1461 
 253   0.0000       0.637353        17.3432 
 254   0.0000       0.640668        17.4335 
 255   0.0000       0.642045        17.4709 
 256   0.0000       0.647805        17.6277 
 257   0.0000       0.651567        17.7300 
 258   0.0000       0.655588        17.8395 
 259   0.0000       0.656644        17.8682 
 260   0.0000       0.664422        18.0798 
 261   0.0000       0.669773        18.2255 
 262   0.0000       0.672915        18.3109 
 263   0.0000       0.678071        18.4512 
 264   0.0000       0.684027        18.6133 
 265   0.0000       0.688527        18.7358 
 266   0.0000       0.691773        18.8241 
 267   0.0000       0.696140        18.9429 
 268   0.0000       0.703216        19.1355 
 269   0.0000       0.707711        19.2578 
 270   0.0000       0.709554        19.3079 
 271   0.0000       0.712478        19.3875 
 272   0.0000       0.713548        19.4166 
 273   0.0000       0.718166        19.5423 
 274   0.0000       0.724703        19.7202 
 275   0.0000       0.730331        19.8733 
 276   0.0000       0.732831        19.9413 
 277   0.0000       0.741833        20.1863 
 278   0.0000       0.743144        20.2220 
 279   0.0000       0.751714        20.4552 
 280   0.0000       0.756576        20.5875 
 281   0.0000       0.760547        20.6955 
 282   0.0000       0.766421        20.8554 
 283   0.0000       0.770650        20.9705 
 284   0.0000       0.773708        21.0537 
 285   0.0000       0.783872        21.3302 
 286   0.0000       0.787318        21.4240 
 287   0.0000       0.790628        21.5141 
 288   0.0000       0.799215        21.7477 
 289   0.0000       0.803409        21.8619 
 290   0.0000       0.809393        22.0247 
 291   0.0000       0.812071        22.0976 
 292   0.0000       0.819993        22.3131 
 293   0.0000       0.823415        22.4062 
 294   0.0000       0.828730        22.5509 
 295   0.0000       0.834330        22.7033 
 296   0.0000       0.841486        22.8980 
 297   0.0000       0.844167        22.9710 
 298   0.0000       0.849670        23.1207 
 299   0.0000       0.853251        23.2181 
 300   0.0000       0.860592        23.4179 
 301   0.0000       0.869496        23.6602 
 302   0.0000       0.873128        23.7590 
 303   0.0000       0.876606        23.8537 
 304   0.0000       0.881027        23.9740 
 305   0.0000       0.889832        24.2136 
 306   0.0000       0.892704        24.2917 
 307   0.0000       0.897580        24.4244 
 308   0.0000       0.903404        24.5829 
 309   0.0000       0.911376        24.7998 
 310   0.0000       0.913462        24.8566 
 311   0.0000       0.917723        24.9725 
 312   0.0000       0.918375        24.9902 
 313   0.0000       0.924345        25.1527 
 314   0.0000       0.928717        25.2717 
 315   0.0000       0.933844        25.4112 
 316   0.0000       0.936319        25.4785 
 317   0.0000       0.939205        25.5571 
 318   0.0000       0.939534        25.5660 
 319   0.0000       0.944354        25.6972 
 320   0.0000       0.946197        25.7473 
 321   0.0000       0.952064        25.9070 
 322   0.0000       0.955451        25.9991 
 323   0.0000       0.962398        26.1882 
 324   0.0000       0.963688        26.2233 
 325   0.0000       0.966218        26.2921 
 326   0.0000       0.970439        26.4070 
 327   0.0000       0.974129        26.5074 
 328   0.0000       0.978172        26.6174 
 329   0.0000       0.980962        26.6933 
 330   0.0000       0.985474        26.8161 
 331   0.0000       0.990006        26.9394 
 332   0.0000       0.991768        26.9874 
 333   0.0000       1.001248        27.2453 
 334   0.0000       1.002464        27.2784 
 335   0.0000       1.004541        27.3349 
 336   0.0000       1.007391        27.4125 
 337   0.0000       1.013872        27.5889 
 338   0.0000       1.014648        27.6100 
 339   0.0000       1.018356        27.7109 
 340   0.0000       1.022655        27.8279 
 341   0.0000       1.025739        27.9118 
 342   0.0000       1.030471        28.0405 
 343   0.0000       1.037420        28.2296 
 344   0.0000       1.039217        28.2785 
 345   0.0000       1.043295        28.3895 
 346   0.0000       1.045241        28.4425 
 347   0.0000       1.049848        28.5678 
 348   0.0000       1.050342        28.5813 
 349   0.0000       1.052722        28.6460 
 350   0.0000       1.056882        28.7592 
 351   0.0000       1.060899        28.8685 
 352   0.0000       1.064250        28.9597 
 353   0.0000       1.067371        29.0447 
 354   0.0000       1.069161        29.0933 
 355   0.0000       1.077473        29.3195 
 356   0.0000       1.079870        29.3848 
 357   0.0000       1.083688        29.4887 
 358   0.0000       1.089829        29.6558 
 359   0.0000       1.097029        29.8517 
 360   0.0000       1.097597        29.8671 
 361   0.0000       1.102951        30.0128 
 362   0.0000       1.104942        30.0670 
 363   0.0000       1.111503        30.2455 
 364   0.0000       1.116123        30.3712 
 365   0.0000       1.122893        30.5555 
 366   0.0000       1.124079        30.5878 
 367   0.0000       1.127868        30.6909 
 368   0.0000       1.134670        30.8759 
 369   0.0000       1.138631        30.9837 
 370   0.0000       1.145189        31.1622 
 371   0.0000       1.147956        31.2375 
 372   0.0000       1.153067        31.3766 
 373   0.0000       1.155853        31.4524 
 374   0.0000       1.162836        31.6424 
 375   0.0000       1.165993        31.7283 
 376   0.0000       1.169509        31.8240 
 377   0.0000       1.172532        31.9062 
 378   0.0000       1.177657        32.0457 
 379   0.0000       1.187201        32.3054 
 380   0.0000       1.189676        32.3727 
 381   0.0000       1.191406        32.4198 
 382   0.0000       1.192710        32.4553 
 383   0.0000       1.201249        32.6876 
 384   0.0000       1.205643        32.8072 
 385   0.0000       1.211241        32.9595 
 386   0.0000       1.215124        33.0652 
 387   0.0000       1.218395        33.1542 
 388   0.0000       1.220011        33.1982 
 389   0.0000       1.223049        33.2809 
 390   0.0000       1.232634        33.5417 
 391   0.0000       1.239630        33.7320 
 392   0.0000       1.241627        33.7864 
 393   0.0000       1.244499        33.8645 
 394   0.0000       1.248502        33.9735 
 395   0.0000       1.255160        34.1546 
 396   0.0000       1.260459        34.2988 
 397   0.0000       1.265760        34.4431 
 398   0.0000       1.269746        34.5516 
 399   0.0000       1.276168        34.7263 
 400   0.0000       1.285870        34.9903 
 401   0.0000       1.286280        35.0015 
 402   0.0000       1.292889        35.1813 
 403   0.0000       1.293173        35.1890 
 404   0.0000       1.305704        35.5300 
 405   0.0000       1.309554        35.6348 
 406   0.0000       1.310468        35.6596 
 407   0.0000       1.316287        35.8180 
 408   0.0000       1.322848        35.9965 
 409   0.0000       1.327975        36.1360 
 410   0.0000       1.330982        36.2179 
 411   0.0000       1.338235        36.4152 
 412   0.0000       1.345628        36.6164 
 413   0.0000       1.350726        36.7551 
 414   0.0000       1.354582        36.8600 
 415   0.0000       1.359492        36.9937 
 416   0.0000       1.366239        37.1772 
 417   0.0000       1.371698        37.3258 
 418   0.0000       1.375382        37.4261 
 419   0.0000       1.384378        37.6708 
 420   0.0000       1.394466        37.9454 
 421   0.0000       1.396425        37.9987 
 422   0.0000       1.399893        38.0930 
 423   0.0000       1.408474        38.3265 
 424   0.0000       1.416052        38.5327 
 425   0.0000       1.420081        38.6424 
 426   0.0000       1.421625        38.6844 
 427   0.0000       1.426827        38.8259 
 428   0.0000       1.435987        39.0752 
 429   0.0000       1.437667        39.1209 
 430   0.0000       1.445312        39.3289 
 431   0.0000       1.455681        39.6111 
 432   0.0000       1.457303        39.6552 
 433   0.0000       1.461142        39.7597 
 434   0.0000       1.466144        39.8958 
 435   0.0000       1.475068        40.1386 
 436   0.0000       1.478632        40.2356 
 437   0.0000       1.482692        40.3461 
 438   0.0000       1.486710        40.4554 
 439   0.0000       1.492561        40.6146 
 440   0.0000       1.495839        40.7038 
 441   0.0000       1.497766        40.7563 
 442   0.0000       1.503939        40.9242 
 443   0.0000       1.511845        41.1394 
 444   0.0000       1.517255        41.2866 
 445   0.0000       1.522123        41.4191 
 446   0.0000       1.528573        41.5946 
 447   0.0000       1.534490        41.7556 
 448   0.0000       1.537382        41.8343 
 449   0.0000       1.541241        41.9393 
 450   0.0000       1.543619        42.0040 
 451   0.0000       1.548386        42.1337 
 452   0.0000       1.552900        42.2565 
 453   0.0000       1.554662        42.3045 
 454   0.0000       1.566277        42.6206 
 455   0.0000       1.569836        42.7174 
 456   0.0000       1.575689        42.8767 
 457   0.0000       1.581503        43.0349 
 458   0.0000       1.586833        43.1799 
 459   0.0000       1.594292        43.3829 
 460   0.0000       1.595791        43.4237 
 461   0.0000       1.598876        43.5076 
 462   0.0000       1.606635        43.7187 
 463   0.0000       1.610894        43.8346 
 464   0.0000       1.612097        43.8674 
 465   0.0000       1.616273        43.9810 
 466   0.0000       1.625714        44.2379 
 467   0.0000       1.629240        44.3339 
 468   0.0000       1.634903        44.4880 
 469   0.0000       1.639548        44.6144 
 470   0.0000       1.653046        44.9817 
 471   0.0000       1.657461        45.1018 
 472   0.0000       1.662185        45.2303 
 473   0.0000       1.664431        45.2915 
 474   0.0000       1.669420        45.4272 
 475   0.0000       1.676524        45.6205 
 476   0.0000       1.678974        45.6872 
 477   0.0000       1.689183        45.9650 
 478   0.0000       1.693391        46.0795 
 479   0.0000       1.695516        46.1373 
 480   0.0000       1.706762        46.4433 
 481   0.0000       1.711004        46.5588 
 482   0.0000       1.712452        46.5982 
 483   0.0000       1.719389        46.7869 
 484   0.0000       1.722766        46.8789 
 485   0.0000       1.726412        46.9781 
 486   0.0000       1.730721        47.0953 
 487   0.0000       1.737276        47.2737 
 488   0.0000       1.739439        47.3325 
 489   0.0000       1.743849        47.4525 
 490   0.0000       1.751030        47.6479 
 491   0.0000       1.759414        47.8761 
 492   0.0000       1.764267        48.0081 
 493   0.0000       1.768237        48.1162 
 494   0.0000       1.771837        48.2141 
 495   0.0000       1.778227        48.3880 
 496   0.0000       1.782499        48.5043 
 497   0.0000       1.791501        48.7492 
 498   0.0000       1.796347        48.8811 
 499   0.0000       1.800640        48.9979 
 500   0.0000       1.805399        49.1274 
 501   0.0000       1.813286        49.3420 
 502   0.0000       1.817740        49.4632 
 503   0.0000       1.819540        49.5122 
 504   0.0000       1.827267        49.7225 
 505   0.0000       1.838093        50.0171 
 506   0.0000       1.840224        50.0750 
 507   0.0000       1.843435        50.1624 
 508   0.0000       1.853334        50.4318 
 509   0.0000       1.857261        50.5386 
 510   0.0000       1.864501        50.7356 
 511   0.0000       1.869198        50.8635 
 512   0.0000       1.871441        50.9245 
 513   0.0000       1.880838        51.1802 
 514   0.0000       1.882722        51.2315 
 515   0.0000       1.886256        51.3276 
 516   0.0000       1.890847        51.4526 
 517   0.0000       1.896377        51.6031 
 518   0.0000       1.902380        51.7664 
 519   0.0000       1.909208        51.9522 
 520   0.0000       1.910288        51.9816 
 521   0.0000       1.915916        52.1347 
 522   0.0000       1.922539        52.3149 
 523   0.0000       1.929801        52.5126 
 524   0.0000       1.939464        52.7755 
 525   0.0000       1.941402        52.8282 
 526   0.0000       1.945729        52.9460 
 527   0.0000       1.953841        53.1667 
 528   0.0000       1.962107        53.3916 
 529   0.0000       1.963103        53.4188 
 530   0.0000       1.968399        53.5629 
 531   0.0000       1.969449        53.5914 
 532   0.0000       1.974963        53.7415 
 533   0.0000       1.986563        54.0571 
 534   0.0000       1.992455        54.2175 
 535   0.0000       1.998506        54.3821 
 536   0.0000       2.003842        54.5273 
 537   0.0000       2.010609        54.7115 
 538   0.0000       2.015650        54.8486 
 539   0.0000       2.020845        54.9900 
 540   0.0000       2.027612        55.1741 
 541   0.0000       2.035653        55.3929 
 542   0.0000       2.035933        55.4006 
 543   0.0000       2.050228        55.7896 
 544   0.0000       2.053341        55.8743 
 545   0.0000       2.055173        55.9241 
 546   0.0000       2.060429        56.0671 
 547   0.0000       2.065468        56.2043 
 548   0.0000       2.082303        56.6624 
 549   0.0000       2.094001        56.9807 
 550   0.0000       2.100155        57.1481 
 551   0.0000       2.105100        57.2827 
 552   0.0000       2.109337        57.3980 
 553   0.0000       2.118029        57.6345 
 554   0.0000       2.124627        57.8140 
 555   0.0000       2.130755        57.9808 
 556   0.0000       2.135929        58.1216 
 557   0.0000       2.144130        58.3447 
 558   0.0000       2.155479        58.6536 
 559   0.0000       2.163470        58.8710 
 560   0.0000       2.171610        59.0925 
 561   0.0000       2.172726        59.1229 
 562   0.0000       2.180501        59.3345 
 563   0.0000       2.189188        59.5708 
 564   0.0000       2.191217        59.6260 
 565   0.0000       2.200595        59.8812 
 566   0.0000       2.207725        60.0753 
 567   0.0000       2.216315        60.3090 
 568   0.0000       2.221999        60.4637 
 569   0.0000       2.233898        60.7875 
 570   0.0000       2.236591        60.8607 
 571   0.0000       2.244992        61.0893 
 572   0.0000       2.249035        61.1993 
 573   0.0000       2.255314        61.3702 
 574   0.0000       2.272613        61.8409 
 575   0.0000       2.276816        61.9553 
 576   0.0000       2.281360        62.0790 
 577   0.0000       2.286851        62.2284 
 578   0.0000       2.288309        62.2680 
 579   0.0000       2.297026        62.5052 
 580   0.0000       2.302974        62.6671 
 581   0.0000       2.310573        62.8739 
 582   0.0000       2.317432        63.0605 
 583   0.0000       2.331110        63.4327 
 584   0.0000       2.337367        63.6030 
 585   0.0000       2.349075        63.9216 
 586   0.0000       2.358672        64.1827 
 587   0.0000       2.362078        64.2754 
 588   0.0000       2.367873        64.4331 
 589   0.0000       2.376713        64.6736 
 590   0.0000       2.382899        64.8420 
 591   0.0000       2.391276        65.0699 
 592   0.0000       2.398098        65.2556 
 593   0.0000       2.405587        65.4593 
 594   0.0000       2.413180        65.6660 
 595   0.0000       2.419933        65.8497 
 596   0.0000       2.428457        66.0817 
 597   0.0000       2.436420        66.2984 
 598   0.0000       2.439772        66.3896 
 599   0.0000       2.445287        66.5396 
 600   0.0000       2.448206        66.6191 
 601   0.0000       2.458067        66.8874 
 602   0.0000       2.465168        67.0806 
 603   0.0000       2.486706        67.6667 
 604   0.0000       2.499284        68.0090 
 605   0.0000       2.506185        68.1968 
 606   0.0000       2.511597        68.3440 
 607   0.0000       2.524843        68.7045 
 608   0.0000       2.529620        68.8345 
 609   0.0000       2.539876        69.1135 
 610   0.0000       2.568715        69.8983 
 611   0.0000       2.572068        69.9895 
 612   0.0000       2.583234        70.2934 
 613   0.0000       2.590708        70.4967 
 614   0.0000       2.606860        70.9363 
 615   0.0000       2.614256        71.1375 
 616   0.0000       2.621252        71.3279 
 617   0.0000       2.633495        71.6610 
 618   0.0000       2.641093        71.8678 
 619   0.0000       2.657466        72.3133 
 620   0.0000       2.668849        72.6231 
 621   0.0000       2.680471        72.9393 
 622   0.0000       2.690837        73.2214 
 623   0.0000       2.698798        73.4380 
 624   0.0000       2.706344        73.6434 
 625   0.0000       2.711113        73.7731 
 626   0.0000       2.726493        74.1917 
 627   0.0000       2.735015        74.4235 
 628   0.0000       2.737406        74.4886 
 629   0.0000       2.746325        74.7313 
 630   0.0000       2.751261        74.8656 
 631   0.0000       2.754394        74.9509 
 632   0.0000       2.776157        75.5431 
 633   0.0000       2.780347        75.6571 
 634   0.0000       2.795666        76.0739 
 635   0.0000       2.798388        76.1480 
 636   0.0000       2.806734        76.3751 
 637   0.0000       2.833434        77.1017 
 638   0.0000       2.842822        77.3571 
 639   0.0000       2.855666        77.7066 
 640   0.0000       2.865230        77.9669 
 641   0.0000       2.879068        78.3434 
 642   0.0000       2.886091        78.5345 
 643   0.0000       2.892790        78.7168 
 644   0.0000       2.917444        79.3877 
 645   0.0000       2.923344        79.5482 
 646   0.0000       2.951245        80.3075 
 647   0.0000       2.955096        80.4123 
 648   0.0000       2.971795        80.8667 
 649   0.0000       2.988160        81.3120 
 650   0.0000       3.004738        81.7631 
 651   0.0000       3.016968        82.0959 
 652   0.0000       3.036119        82.6170 
 653   0.0000       3.046030        82.8867 
 654   0.0000       3.063636        83.3658 
 655   0.0000       3.068034        83.4855 
 656   0.0000       3.093284        84.1725 
 657   0.0000       3.102696        84.4286 
 658   0.0000       3.137968        85.3884 
 659   0.0000       3.144053        85.5540 
 660   0.0000       3.156623        85.8961 
 661   0.0000       3.170087        86.2625 
 662   0.0000       3.175770        86.4171 
 663   0.0000       3.189500        86.7907 
 664   0.0000       3.195968        86.9667 
 665   0.0000       3.202582        87.1467 
 666   0.0000       3.221724        87.6676 
 667   0.0000       3.227268        87.8184 
 668   0.0000       3.230717        87.9123 
 669   0.0000       3.246980        88.3548 
 670   0.0000       3.254523        88.5601 
 671   0.0000       3.264478        88.8310 
 672   0.0000       3.276312        89.1530 
 673   0.0000       3.289643        89.5157 
 674   0.0000       3.296664        89.7068 
 675   0.0000       3.303717        89.8987 
 676   0.0000       3.310883        90.0937 
 677   0.0000       3.323251        90.4303 
 678   0.0000       3.332076        90.6704 
 679   0.0000       3.344311        91.0033 
 680   0.0000       3.351728        91.2051 
 681   0.0000       3.360490        91.4436 
 682   0.0000       3.369795        91.6968 
 683   0.0000       3.370678        91.7208 
 684   0.0000       3.386084        92.1400 
 685   0.0000       3.401976        92.5725 
 686   0.0000       3.408127        92.7399 
 687   0.0000       3.409760        92.7843 
 688   0.0000       3.416013        92.9544 
 689   0.0000       3.425876        93.2228 
 690   0.0000       3.441804        93.6563 
 691   0.0000       3.446445        93.7825 
 692   0.0000       3.461370        94.1887 
 693   0.0000       3.470660        94.4415 
 694   0.0000       3.480813        94.7177 
 695   0.0000       3.483456        94.7896 
 696   0.0000       3.499867        95.2362 
 697   0.0000       3.503621        95.3384 
 698   0.0000       3.509186        95.4898 
 699   0.0000       3.516241        95.6818 
 700   0.0000       3.521849        95.8344 
 701   0.0000       3.524361        95.9027 
 702   0.0000       3.533806        96.1598 
 703   0.0000       3.546973        96.5180 
 704   0.0000       3.557204        96.7964 
 705   0.0000       3.560650        96.8902 
 706   0.0000       3.574376        97.2637 
 707   0.0000       3.580258        97.4238 
 708   0.0000       3.588021        97.6350 
 709   0.0000       3.590575        97.7045 
 710   0.0000       3.602332        98.0244 
 711   0.0000       3.609771        98.2269 
 712   0.0000       3.619662        98.4960 
 713   0.0000       3.630468        98.7900 
 714   0.0000       3.633223        98.8650 
 715   0.0000       3.641027        99.0774 
 716   0.0000       3.653842        99.4261 
 717   0.0000       3.660417        99.6050 
 718   0.0000       3.670178        99.8706 
 719   0.0000       3.680760       100.1586 
 720   0.0000       3.686903       100.3257 
 721   0.0000       3.693925       100.5168 
 722   0.0000       3.707022       100.8732 
 723   0.0000       3.712274       101.0161 
 724   0.0000       3.720060       101.2280 
 725   0.0000       3.726733       101.4096 
 726   0.0000       3.732977       101.5795 
 727   0.0000       3.741505       101.8115 
 728   0.0000       3.762689       102.3880 
 729   0.0000       3.764075       102.4257 
 730   0.0000       3.774696       102.7147 
 731   0.0000       3.779724       102.8515 
 732   0.0000       3.789108       103.1069 
 733   0.0000       3.794736       103.2600 
 734   0.0000       3.804342       103.5214 
 735   0.0000       3.809580       103.6639 
 736   0.0000       3.821704       103.9938 
 737   0.0000       3.827256       104.1449 
 738   0.0000       3.838557       104.4525 
 739   0.0000       3.843355       104.5830 
 740   0.0000       3.846557       104.6701 
 741   0.0000       3.852916       104.8432 
 742   0.0000       3.856827       104.9496 
 743   0.0000       3.862296       105.0984 
 744   0.0000       3.872370       105.3726 
 745   0.0000       3.879454       105.5653 
 746   0.0000       3.885659       105.7342 
 747   0.0000       3.898192       106.0752 
 748   0.0000       3.901414       106.1629 
 749   0.0000       3.911598       106.4400 
 750   0.0000       3.917035       106.5879 
 751   0.0000       3.922284       106.7308 
 752   0.0000       3.927137       106.8628 
 753   0.0000       3.932825       107.0176 
 754   0.0000       3.938240       107.1650 
 755   0.0000       3.941686       107.2587 
 756   0.0000       3.948774       107.4516 
 757   0.0000       3.956606       107.6647 
 758   0.0000       3.969018       108.0025 
 759   0.0000       3.975899       108.1897 
 760   0.0000       3.976858       108.2158 
 761   0.0000       3.979602       108.2905 
 762   0.0000       3.986382       108.4750 
 763   0.0000       4.002144       108.9039 
 764   0.0000       4.014077       109.2286 
 765   0.0000       4.021113       109.4200 
 766   0.0000       4.032216       109.7222 
 767   0.0000       4.034557       109.7859 
 768   0.0000       4.042922       110.0135 
 769   0.0000       4.044793       110.0644 
 770   0.0000       4.056843       110.3923 
 771   0.0000       4.058956       110.4498 
 772   0.0000       4.066558       110.6567 
 773   0.0000       4.078787       110.9894 
 774   0.0000       4.085660       111.1765 
 775   0.0000       4.092741       111.3691 
 776   0.0000       4.099821       111.5618 
 777   0.0000       4.107546       111.7720 
 778   0.0000       4.122465       112.1780 
 779   0.0000       4.130093       112.3855 
 780   0.0000       4.131839       112.4331 
 781   0.0000       4.140671       112.6734 
 782   0.0000       4.154659       113.0540 
 783   0.0000       4.162347       113.2632 
 784   0.0000       4.166375       113.3728 
 785   0.0000       4.170983       113.4982 
 786   0.0000       4.177433       113.6737 
 787   0.0000       4.188824       113.9837 
 788   0.0000       4.190648       114.0333 
 789   0.0000       4.203006       114.3696 
 790   0.0000       4.209072       114.5347 
 791   0.0000       4.215290       114.7039 
 792   0.0000       4.225636       114.9854 
 793   0.0000       4.240790       115.3978 
 794   0.0000       4.242835       115.4534 
 795   0.0000       4.251671       115.6939 
 796   0.0000       4.261383       115.9581 
 797   0.0000       4.271814       116.2420 
 798   0.0000       4.284303       116.5818 
 799   0.0000       4.289970       116.7360 
 800   0.0000       4.298201       116.9600 
 801   0.0000       4.305443       117.1570 
 802   0.0000       4.314163       117.3943 
 803   0.0000       4.321187       117.5855 
 804   0.0000       4.322349       117.6171 
 805   0.0000       4.344194       118.2115 
 806   0.0000       4.346562       118.2760 
 807   0.0000       4.359713       118.6338 
 808   0.0000       4.362329       118.7050 
 809   0.0000       4.372350       118.9777 
 810   0.0000       4.380378       119.1961 
 811   0.0000       4.394970       119.5932 
 812   0.0000       4.399290       119.7108 
 813   0.0000       4.406354       119.9030 
 814   0.0000       4.427398       120.4756 
 815   0.0000       4.431867       120.5972 
 816   0.0000       4.437462       120.7495 
 817   0.0000       4.454875       121.2233 
 818   0.0000       4.460168       121.3674 
 819   0.0000       4.469333       121.6167 
 820   0.0000       4.476883       121.8222 
 821   0.0000       4.482087       121.9638 
 822   0.0000       4.491909       122.2311 
 823   0.0000       4.501568       122.4939 
 824   0.0000       4.504073       122.5621 
 825   0.0000       4.517516       122.9279 
 826   0.0000       4.530261       123.2747 
 827   0.0000       4.536835       123.4536 
 828   0.0000       4.559584       124.0726 
 829   0.0000       4.566087       124.2495 
 830   0.0000       4.575328       124.5010 
 831   0.0000       4.584044       124.7382 
 832   0.0000       4.607621       125.3797 
 833   0.0000       4.616418       125.6191 
 834   0.0000       4.631158       126.0202 
 835   0.0000       4.643470       126.3552 
 836   0.0000       4.644981       126.3964 
 837   0.0000       4.655105       126.6719 
 838   0.0000       4.665506       126.9549 
 839   0.0000       4.680970       127.3757 
 840   0.0000       4.692285       127.6836 
 841   0.0000       4.701263       127.9279 
 842   0.0000       4.705647       128.0472 
 843   0.0000       4.717584       128.3720 
 844   0.0000       4.739957       128.9808 
 845   0.0000       4.748851       129.2228 
 846   0.0000       4.765042       129.6634 
 847   0.0000       4.770689       129.8170 
 848   0.0000       4.782990       130.1518 
 849   0.0000       4.785583       130.2223 
 850   0.0000       4.796417       130.5172 
 851   0.0000       4.805832       130.7733 
 852   0.0000       4.826297       131.3302 
 853   0.0000       4.845978       131.8658 
 854   0.0000       4.855977       132.1378 
 855   0.0000       4.866577       132.4263 
 856   0.0000       4.880960       132.8177 
 857   0.0000       4.895956       133.2257 
 858   0.0000       4.900329       133.3447 
 859   0.0000       4.921957       133.9333 
 860   0.0000       4.924414       134.0001 
 861   0.0000       4.930693       134.1710 
 862   0.0000       4.941377       134.4617 
 863   0.0000       4.948518       134.6560 
 864   0.0000       4.960644       134.9860 
 865   0.0000       4.972098       135.2977 
 866   0.0000       4.980535       135.5273 
 867   0.0000       4.989454       135.7699 
 868   0.0000       4.993150       135.8705 
 869   0.0000       5.004701       136.1848 
 870   0.0000       5.008863       136.2981 
 871   0.0000       5.022823       136.6780 
 872   0.0000       5.031968       136.9268 
 873   0.0000       5.057845       137.6310 
 874   0.0000       5.065052       137.8271 
 875   0.0000       5.078619       138.1962 
 876   0.0000       5.084952       138.3686 
 877   0.0000       5.106823       138.9637 
 878   0.0000       5.119130       139.2986 
 879   0.0000       5.130734       139.6144 
 880   0.0000       5.149059       140.1130 
 881   0.0000       5.156717       140.3214 
 882   0.0000       5.168715       140.6479 
 883   0.0000       5.189502       141.2135 
 884   0.0000       5.203592       141.5969 
 885   0.0000       5.210419       141.7827 
 886   0.0000       5.221400       142.0815 
 887   0.0000       5.225795       142.2011 
 888   0.0000       5.236856       142.5021 
 889   0.0000       5.250123       142.8631 
 890   0.0000       5.260205       143.1375 
 891   0.0000       5.271976       143.4578 
 892   0.0000       5.282145       143.7345 
 893   0.0000       5.310472       144.5053 
 894   0.0000       5.320329       144.7735 
 895   0.0000       5.331182       145.0688 
 896   0.0000       5.338814       145.2765 
 897   0.0000       5.366609       146.0328 
 898   0.0000       5.374178       146.2388 
 899   0.0000       5.388514       146.6289 
 900   0.0000       5.394740       146.7983 
 901   0.0000       5.407675       147.1503 
 902   0.0000       5.421408       147.5240 
 903   0.0000       5.432450       147.8245 
 904   0.0000       5.439846       148.0257 
 905   0.0000       5.449086       148.2772 
 906   0.0000       5.465228       148.7164 
 907   0.0000       5.478437       149.0758 
 908   0.0000       5.488027       149.3368 
 909   0.0000       5.492887       149.4690 
 910   0.0000       5.499662       149.6534 
 911   0.0000       5.524456       150.3281 
 912   0.0000       5.535115       150.6181 
 913   0.0000       5.549008       150.9962 
 914   0.0000       5.568095       151.5156 
 915   0.0000       5.571665       151.6127 
 916   0.0000       5.590712       152.1310 
 917   0.0000       5.606779       152.5682 
 918   0.0000       5.614762       152.7854 
 919   0.0000       5.624432       153.0486 
 920   0.0000       5.636116       153.3665 
 921   0.0000       5.638003       153.4178 
 922   0.0000       5.652222       153.8048 
 923   0.0000       5.660735       154.0364 
 924   0.0000       5.670211       154.2943 
 925   0.0000       5.676101       154.4546 
 926   0.0000       5.689821       154.8279 
 927   0.0000       5.701279       155.1397 
 928   0.0000       5.711457       155.4167 
 929   0.0000       5.723037       155.7318 
 930   0.0000       5.738632       156.1561 
 931   0.0000       5.745886       156.3535 
 932   0.0000       5.760780       156.7588 
 933   0.0000       5.783488       157.3767 
 934   0.0000       5.787259       157.4793 
 935   0.0000       5.796474       157.7301 
 936   0.0000       5.808074       158.0457 
 937   0.0000       5.824834       158.5018 
 938   0.0000       5.846344       159.0871 
 939   0.0000       5.851462       159.2264 
 940   0.0000       5.858687       159.4230 
 941   0.0000       5.890237       160.2815 
 942   0.0000       5.904088       160.6584 
 943   0.0000       5.907677       160.7561 
 944   0.0000       5.934760       161.4930 
 945   0.0000       5.936627       161.5438 
 946   0.0000       5.986402       162.8983 
 947   0.0000       6.066420       165.0757 
 948   0.0000       6.088662       165.6809 
 949   0.0000       6.127566       166.7395 
 950   0.0000       6.146729       167.2610 
 951   0.0000       6.150525       167.3643 
 952   0.0000       6.162262       167.6837 
 953   0.0000       6.186146       168.3336 
 954   0.0000       6.214769       169.1125 
 955   0.0000       6.219204       169.2332 
 956   0.0000       6.226427       169.4297 
 957   0.0000       6.244326       169.9167 
 958   0.0000       6.252745       170.1458 
 959   0.0000       6.267704       170.5529 
 960   0.0000       6.305686       171.5864 
 961   0.0000       6.325771       172.1330 
 962   0.0000       6.345877       172.6801 
 963   0.0000       6.368997       173.3092 
 964   0.0000       6.392366       173.9451 
 965   0.0000       6.413587       174.5226 
 966   0.0000       6.417457       174.6279 
 967   0.0000       6.451843       175.5636 
 968   0.0000       6.455589       175.6655 
 969   0.0000       6.520099       177.4209 
 970   0.0000       6.644018       180.7929 
 971   0.0000       6.684196       181.8862 
 972   0.0000       6.839143       186.1025 
 973   0.0000       6.848671       186.3618 
 974   0.0000       6.884710       187.3425 
 975   0.0000       6.910940       188.0562 
 976   0.0000       6.921481       188.3431 
 977   0.0000       6.932966       188.6556 
 978   0.0000       6.955478       189.2682 
 979   0.0000       7.005674       190.6341 
 980   0.0000       7.020669       191.0421 
 981   0.0000       7.044949       191.7028 
 982   0.0000       7.094701       193.0566 
 983   0.0000       7.103298       193.2906 
 984   0.0000       7.148505       194.5207 
 985   0.0000       7.198463       195.8801 
 986   0.0000       7.339220       199.7103 
 987   0.0000       7.368809       200.5155 
 988   0.0000       7.520445       204.6417 
 989   0.0000       7.564629       205.8440 
 990   0.0000       7.592340       206.5981 
 991   0.0000       7.673973       208.8194 
 992   0.0000       7.740007       210.6163 
 993   0.0000       7.804417       212.3690 
 994   0.0000       7.824687       212.9206 
 995   0.0000       7.887217       214.6221 
 996   0.0000       8.057340       219.2514 
 997   0.0000       8.157241       221.9698 
 998   0.0000       8.407253       228.7730 
 999   0.0000       9.443102       256.9599 
 1000   0.0000       9.447929       257.0912 
 1001   0.0000       9.483287       258.0534 
 1002   0.0000       9.498204       258.4593 
 1003   0.0000       9.511098       258.8101 
 1004   0.0000       9.543912       259.7031 
 1005   0.0000       9.807077       266.8641 
 1006   0.0000      10.109290       275.0878 
 1007   0.0000      10.138418       275.8804 
 1008   0.0000      10.157189       276.3912 
 1009   0.0000      10.219828       278.0957 
 1010   0.0000      10.235989       278.5354 
 1011   0.0000      10.254805       279.0474 
 1012   0.0000      10.429141       283.7913 
 1013   0.0000      10.449927       284.3570 
 1014   0.0000      10.602869       288.5187 
 1015   0.0000      16.681834       453.9358 
 1016   0.0000      17.683858       481.2022 
 1017   0.0000      18.321892       498.5640 
 1018   0.0000      18.753849       510.3182 
 1019   0.0000      18.831096       512.4202 
 1020   0.0000      18.947812       515.5962 
 1021   0.0000      19.166802       521.5552 
 1022   0.0000      19.658351       534.9309 
 1023   0.0000      20.556469       559.3700 
 1024   0.0000      21.775626       592.5449 

                 SPIN DOWN ORBITALS
  NO   OCC          E(Eh)            E(eV) 
   0   1.0000    -261.539936     -7116.8635 
   1   1.0000    -104.773023     -2851.0189 
   2   1.0000    -104.772207     -2850.9967 
   3   1.0000    -104.766669     -2850.8460 
   4   1.0000     -32.049284      -872.1053 
   5   1.0000     -27.527474      -749.0606 
   6   1.0000     -27.527231      -749.0540 
   7   1.0000     -27.526582      -749.0364 
   8   1.0000     -20.530996      -558.6768 
   9   1.0000     -11.411666      -310.5272 
  10   1.0000     -11.341977      -308.6309 
  11   1.0000     -11.294261      -307.3325 
  12   1.0000     -11.286617      -307.1245 
  13   1.0000     -11.280215      -306.9503 
  14   1.0000     -11.264195      -306.5143 
  15   1.0000     -11.238644      -305.8191 
  16   1.0000     -11.231713      -305.6304 
  17   1.0000     -10.499502      -285.7060 
  18   1.0000     -10.498607      -285.6816 
  19   1.0000     -10.493114      -285.5322 
  20   1.0000      -7.965310      -216.7471 
  21   1.0000      -7.964957      -216.7375 
  22   1.0000      -7.964870      -216.7351 
  23   1.0000      -7.964526      -216.7258 
  24   1.0000      -7.964050      -216.7128 
  25   1.0000      -7.963948      -216.7100 
  26   1.0000      -7.959131      -216.5790 
  27   1.0000      -7.958324      -216.5570 
  28   1.0000      -7.958257      -216.5552 
  29   1.0000      -4.124696      -112.2387 
  30   1.0000      -2.646677       -72.0197 
  31   1.0000      -2.646488       -72.0146 
  32   1.0000      -2.645794       -71.9957 
  33   1.0000      -1.334097       -36.3026 
  34   1.0000      -1.189107       -32.3572 
  35   1.0000      -1.088950       -29.6318 
  36   1.0000      -1.037474       -28.2311 
  37   1.0000      -1.030895       -28.0521 
  38   1.0000      -1.022508       -27.8239 
  39   1.0000      -1.017595       -27.6902 
  40   1.0000      -1.015026       -27.6203 
  41   1.0000      -0.964518       -26.2459 
  42   1.0000      -0.931919       -25.3588 
  43   1.0000      -0.802777       -21.8447 
  44   1.0000      -0.766864       -20.8674 
  45   1.0000      -0.707992       -19.2654 
  46   1.0000      -0.689960       -18.7748 
  47   1.0000      -0.677151       -18.4262 
  48   1.0000      -0.638545       -17.3757 
  49   1.0000      -0.633871       -17.2485 
  50   1.0000      -0.624838       -17.0027 
  51   1.0000      -0.604373       -16.4458 
  52   1.0000      -0.599388       -16.3102 
  53   1.0000      -0.595456       -16.2032 
  54   1.0000      -0.582363       -15.8469 
  55   1.0000      -0.577443       -15.7130 
  56   1.0000      -0.556070       -15.1314 
  57   1.0000      -0.548010       -14.9121 
  58   1.0000      -0.538392       -14.6504 
  59   1.0000      -0.523765       -14.2524 
  60   1.0000      -0.517957       -14.0943 
  61   1.0000      -0.498380       -13.5616 
  62   1.0000      -0.467781       -12.7290 
  63   1.0000      -0.463119       -12.6021 
  64   1.0000      -0.451964       -12.2986 
  65   1.0000      -0.438722       -11.9382 
  66   1.0000      -0.434712       -11.8291 
  67   1.0000      -0.429891       -11.6979 
  68   1.0000      -0.428975       -11.6730 
  69   1.0000      -0.409274       -11.1369 
  70   1.0000      -0.399598       -10.8736 
  71   1.0000      -0.397955       -10.8289 
  72   0.0000       0.004463         0.1215 
  73   0.0000       0.011158         0.3036 
  74   0.0000       0.020009         0.5445 
  75   0.0000       0.020749         0.5646 
  76   0.0000       0.030299         0.8245 
  77   0.0000       0.037228         1.0130 
  78   0.0000       0.039796         1.0829 
  79   0.0000       0.043554         1.1852 
  80   0.0000       0.044290         1.2052 
  81   0.0000       0.047427         1.2906 
  82   0.0000       0.056356         1.5335 
  83   0.0000       0.059663         1.6235 
  84   0.0000       0.060995         1.6597 
  85   0.0000       0.065091         1.7712 
  86   0.0000       0.066828         1.8185 
  87   0.0000       0.070368         1.9148 
  88   0.0000       0.072641         1.9767 
  89   0.0000       0.078049         2.1238 
  90   0.0000       0.088505         2.4083 
  91   0.0000       0.089422         2.4333 
  92   0.0000       0.091954         2.5022 
  93   0.0000       0.093301         2.5388 
  94   0.0000       0.098864         2.6902 
  95   0.0000       0.101120         2.7516 
  96   0.0000       0.109337         2.9752 
  97   0.0000       0.114796         3.1238 
  98   0.0000       0.118337         3.2201 
  99   0.0000       0.122094         3.3224 
 100   0.0000       0.124753         3.3947 
 101   0.0000       0.126261         3.4357 
 102   0.0000       0.128010         3.4833 
 103   0.0000       0.129626         3.5273 
 104   0.0000       0.131822         3.5871 
 105   0.0000       0.132665         3.6100 
 106   0.0000       0.134344         3.6557 
 107   0.0000       0.135827         3.6961 
 108   0.0000       0.138714         3.7746 
 109   0.0000       0.139512         3.7963 
 110   0.0000       0.142143         3.8679 
 111   0.0000       0.148581         4.0431 
 112   0.0000       0.149036         4.0555 
 113   0.0000       0.151694         4.1278 
 114   0.0000       0.154154         4.1947 
 115   0.0000       0.154952         4.2164 
 116   0.0000       0.157096         4.2748 
 117   0.0000       0.162000         4.4083 
 118   0.0000       0.164524         4.4769 
 119   0.0000       0.167734         4.5643 
 120   0.0000       0.170601         4.6423 
 121   0.0000       0.175416         4.7733 
 122   0.0000       0.176703         4.8083 
 123   0.0000       0.180117         4.9012 
 124   0.0000       0.185614         5.0508 
 125   0.0000       0.189321         5.1517 
 126   0.0000       0.191342         5.2067 
 127   0.0000       0.196219         5.3394 
 128   0.0000       0.199473         5.4279 
 129   0.0000       0.202329         5.5056 
 130   0.0000       0.205601         5.5947 
 131   0.0000       0.208741         5.6801 
 132   0.0000       0.211326         5.7505 
 133   0.0000       0.213302         5.8042 
 134   0.0000       0.216796         5.8993 
 135   0.0000       0.224130         6.0989 
 136   0.0000       0.228268         6.2115 
 137   0.0000       0.231985         6.3126 
 138   0.0000       0.236357         6.4316 
 139   0.0000       0.238013         6.4767 
 140   0.0000       0.240700         6.5498 
 141   0.0000       0.242276         6.5927 
 142   0.0000       0.245769         6.6877 
 143   0.0000       0.247610         6.7378 
 144   0.0000       0.251953         6.8560 
 145   0.0000       0.254164         6.9162 
 146   0.0000       0.261371         7.1123 
 147   0.0000       0.263710         7.1759 
 148   0.0000       0.265483         7.2242 
 149   0.0000       0.266809         7.2602 
 150   0.0000       0.271435         7.3861 
 151   0.0000       0.275845         7.5061 
 152   0.0000       0.281566         7.6618 
 153   0.0000       0.284799         7.7498 
 154   0.0000       0.294859         8.0235 
 155   0.0000       0.296760         8.0753 
 156   0.0000       0.303382         8.2554 
 157   0.0000       0.307082         8.3561 
 158   0.0000       0.309337         8.4175 
 159   0.0000       0.311040         8.4638 
 160   0.0000       0.314893         8.5687 
 161   0.0000       0.317663         8.6441 
 162   0.0000       0.319719         8.7000 
 163   0.0000       0.322827         8.7846 
 164   0.0000       0.328839         8.9482 
 165   0.0000       0.331300         9.0151 
 166   0.0000       0.339034         9.2256 
 167   0.0000       0.341747         9.2994 
 168   0.0000       0.345898         9.4124 
 169   0.0000       0.351425         9.5627 
 170   0.0000       0.352467         9.5911 
 171   0.0000       0.355244         9.6667 
 172   0.0000       0.361474         9.8362 
 173   0.0000       0.364861         9.9284 
 174   0.0000       0.366678         9.9778 
 175   0.0000       0.369308        10.0494 
 176   0.0000       0.372042        10.1238 
 177   0.0000       0.376539        10.2461 
 178   0.0000       0.378239        10.2924 
 179   0.0000       0.382013        10.3951 
 180   0.0000       0.387681        10.5493 
 181   0.0000       0.388541        10.5727 
 182   0.0000       0.390273        10.6199 
 183   0.0000       0.392685        10.6855 
 184   0.0000       0.399746        10.8777 
 185   0.0000       0.402226        10.9451 
 186   0.0000       0.405192        11.0258 
 187   0.0000       0.408211        11.1080 
 188   0.0000       0.411904        11.2085 
 189   0.0000       0.413874        11.2621 
 190   0.0000       0.418356        11.3840 
 191   0.0000       0.421564        11.4713 
 192   0.0000       0.425480        11.5779 
 193   0.0000       0.427966        11.6455 
 194   0.0000       0.428989        11.6734 
 195   0.0000       0.433617        11.7993 
 196   0.0000       0.439384        11.9563 
 197   0.0000       0.446371        12.1464 
 198   0.0000       0.453026        12.3275 
 199   0.0000       0.453576        12.3424 
 200   0.0000       0.456789        12.4299 
 201   0.0000       0.460061        12.5189 
 202   0.0000       0.464428        12.6377 
 203   0.0000       0.466469        12.6933 
 204   0.0000       0.468118        12.7381 
 205   0.0000       0.472899        12.8682 
 206   0.0000       0.473992        12.8980 
 207   0.0000       0.479658        13.0522 
 208   0.0000       0.480100        13.0642 
 209   0.0000       0.482721        13.1355 
 210   0.0000       0.488322        13.2879 
 211   0.0000       0.489355        13.3160 
 212   0.0000       0.496325        13.5057 
 213   0.0000       0.498002        13.5513 
 214   0.0000       0.500318        13.6143 
 215   0.0000       0.501520        13.6470 
 216   0.0000       0.505156        13.7460 
 217   0.0000       0.507954        13.8221 
 218   0.0000       0.509447        13.8628 
 219   0.0000       0.510594        13.8940 
 220   0.0000       0.517349        14.0778 
 221   0.0000       0.523306        14.2399 
 222   0.0000       0.525197        14.2913 
 223   0.0000       0.529484        14.4080 
 224   0.0000       0.532437        14.4883 
 225   0.0000       0.538327        14.6486 
 226   0.0000       0.539618        14.6838 
 227   0.0000       0.542017        14.7490 
 228   0.0000       0.547383        14.8950 
 229   0.0000       0.550972        14.9927 
 230   0.0000       0.555526        15.1166 
 231   0.0000       0.558332        15.1930 
 232   0.0000       0.564169        15.3518 
 233   0.0000       0.565480        15.3875 
 234   0.0000       0.566467        15.4144 
 235   0.0000       0.570330        15.5195 
 236   0.0000       0.576276        15.6813 
 237   0.0000       0.582129        15.8405 
 238   0.0000       0.584592        15.9076 
 239   0.0000       0.588524        16.0145 
 240   0.0000       0.594936        16.1890 
 241   0.0000       0.596478        16.2310 
 242   0.0000       0.598567        16.2878 
 243   0.0000       0.604458        16.4481 
 244   0.0000       0.607816        16.5395 
 245   0.0000       0.609110        16.5747 
 246   0.0000       0.612637        16.6707 
 247   0.0000       0.617848        16.8125 
 248   0.0000       0.620050        16.8724 
 249   0.0000       0.622152        16.9296 
 250   0.0000       0.630379        17.1535 
 251   0.0000       0.631692        17.1892 
 252   0.0000       0.632882        17.2216 
 253   0.0000       0.640171        17.4199 
 254   0.0000       0.642430        17.4814 
 255   0.0000       0.644945        17.5498 
 256   0.0000       0.649902        17.6847 
 257   0.0000       0.654231        17.8025 
 258   0.0000       0.659163        17.9367 
 259   0.0000       0.659754        17.9528 
 260   0.0000       0.666411        18.1340 
 261   0.0000       0.672285        18.2938 
 262   0.0000       0.675843        18.3906 
 263   0.0000       0.680676        18.5221 
 264   0.0000       0.684704        18.6318 
 265   0.0000       0.691484        18.8162 
 266   0.0000       0.696098        18.9418 
 267   0.0000       0.701010        19.0755 
 268   0.0000       0.706236        19.2176 
 269   0.0000       0.709802        19.3147 
 270   0.0000       0.713200        19.4072 
 271   0.0000       0.716465        19.4960 
 272   0.0000       0.717862        19.5340 
 273   0.0000       0.721590        19.6355 
 274   0.0000       0.727964        19.8089 
 275   0.0000       0.734343        19.9825 
 276   0.0000       0.736776        20.0487 
 277   0.0000       0.744777        20.2664 
 278   0.0000       0.745727        20.2923 
 279   0.0000       0.757113        20.6021 
 280   0.0000       0.761166        20.7124 
 281   0.0000       0.764957        20.8155 
 282   0.0000       0.770876        20.9766 
 283   0.0000       0.774061        21.0633 
 284   0.0000       0.777064        21.1450 
[...]
  | sigma^2 in % of trace(Dip) retained ...   1.84e+01
  | sigma^2 in % of trace(Dpq) retained ...   1.44e-01
  | Av. % of trace(Di) retained         ...  99.998505119859
  | Av. % of trace(Dp) retained         ...  99.999999267830
  | sigma^2 in % of trace(Di) retained  ...   7.91e-07
  | sigma^2 in % of trace(Dp) retained  ...   3.53e-13
 Distributions of % trace(Dij) recovered:
  |       >= 99.9  ...   105 ( 20.5 % of all IJ-pairs)
  |   [80.0, 90.0) ...    34 (  6.6 % of all IJ-pairs)
  |   [90.0, 99.0) ...   282 ( 55.0 % of all IJ-pairs)
  |   [99.0, 99.9) ...    92 ( 17.9 % of all IJ-pairs)
 Distributions of % trace(Dip) recovered:
  |   [70.0, 80.0) ...     2 (  1.7 % of all IP-pairs)
  |   [80.0, 90.0) ...     7 (  5.9 % of all IP-pairs)
  |   [90.0, 99.0) ...    65 ( 54.6 % of all IP-pairs)
  |   [99.0, 99.9) ...    45 ( 37.8 % of all IP-pairs)
 Distributions of % trace(Dpq) recovered:
  |       >= 99.9  ...     5 ( 33.3 % of all PQ-pairs)
  |   [90.0, 99.0) ...     1 (  6.7 % of all PQ-pairs)
  |   [99.0, 99.9) ...     9 ( 60.0 % of all PQ-pairs)
 Distributions of % trace(Di) recovered :
  |       >= 99.9  ...    43 (100.0 % of all I-pairs )
 Distributions of % trace(Dp) recovered :
  |       >= 99.9  ...     5 (100.0 % of all P-pairs )

                       ===========================
                       1127 OF 1746 PAIRS ARE KEPT
                       ===========================

 Initial PAO correlation energy (all pairs)    ...  -2.6877422026 Eh
 Energy constituents in PAO basis (Eh):
  | Vijab(+0) ...  -2.2564584581
  | Viab (-1) ...  -0.1761344067
  | Vab  (-2) ...  -0.0573596318
  | Va   (-1) ...  -0.0000427961
  | Vija (+1) ...  -0.0737548014
  | Vij  (+2) ...  -0.0155342399
  | Via  (+0) ...  -0.1082944380
  | Vi   (+1) ...  -0.0001634306
 Initial PNO correlation energy                ...  -2.6531176257 Eh
 Energy constituents in PNO basis (Eh):
  | Vijab(+0) ...  -2.2378715621 (err=  0.0185868961)
  | Viab (-1) ...  -0.1617932411 (err=  0.0143411656)
  | Vab  (-2) ...  -0.0568587116 (err=  0.0005009202)
  | Va   (-1) ...  -0.0000240114 (err=  0.0000187848)
  | Vija (+1) ...  -0.0727526647 (err=  0.0010021366)
  | Vij  (+2) ...  -0.0154802298 (err=  0.0000540101)
  | Via  (+0) ...  -0.1081742326 (err=  0.0001202054)
  | Vi   (+1) ...  -0.0001629724 (err=  0.0000004582)
 Sum of total truncation errors ...   0.0346245769 Eh
  | Pair screening ...   0.0115400065 Eh
  | PNO truncation ...   0.0230845703 Eh

 UMP2 correlation energy (PAO) ...  -2.6828159630
  | alpha-alpha ...  -0.3850214552 (NP_aa=  947)
  | alpha-beta  ...  -1.9920931771 (NP_ab= 1721)
  | beta -beta  ...  -0.3057013307 (NP_bb=  741)
 UMP2 correlation energy (PNO) ...  -2.6478346918
  | alpha-alpha ...  -0.3728902817 (err=  0.0121311735, NP_aa=  599)
  | alpha-beta  ...  -1.9732977084 (err=  0.0187954687, NP_ab= 1102)
  | beta -beta  ...  -0.3016467017 (err=  0.0040546290, NP_bb=  470)
 Sum of total UMP2 truncation errors ...   0.0349812712 Eh
  | Pair screening ...   0.0115494621 Eh
  | PNO truncation ...   0.0234318091 Eh
 Timing for NEV-PNO construction (sec.)
  | Intermediate construction  ..           54.470
  | Amplitude construction     ..           75.542
  | Total time                 ..          130.012
 Making pair pair interaction lists ...      ok
 Total size for 2-ext PNO integrals ...     11.0 MB
Checking the number of SOMO/SOMO doubles PNOs ... 
 #Truncate: (72, 72)[177] -> [84] .. 
 #Truncate: (73, 73)[177] -> [84] .. 
 #Truncate: (74, 74)[179] -> [84] .. 
 #Truncate: (75, 75)[175] -> [84] .. 
 #Truncate: (76, 76)[178] -> [84] .. 

--------------------------------
LOCAL RI TRANSFORMATION (VABPAO)
--------------------------------

Number of PAOs:    1030
Basis functions:   1025 (343 shells)
Aux. functions:    2424 (644 shells)

Processing maps (0.0 sec)
Average map sizes:
   Aux shells -> PAOs           1030.0
   PAOs       -> AO shells       343.0

Calculating integrals (191.1 sec, 37370.165 MB)
Finished
-----------------------------
LOCAL RI TRANSFORMATION (IJV)
-----------------------------

Orbital window:      29 to 76
Basis functions:   1025 (343 shells)
Aux. functions:    2424 (644 shells)

Processing maps (0.0 sec)
Average map sizes:
   Aux shells -> MOs(i)           46.5
   Aux shells -> MOs(j)           48.0
   MOs        -> AO shells       342.3

Calculating integrals (22.3 sec, 41.358 MB)
Sorting integrals (0.3 sec, 41.330 MB)
Total time for the integral transformation: 22.7 sec


-------------------------------------
Pair Pair Term precalculation with     
RI-(ij|mn) and (im|jn) transformation  
ON THE FLY                             
-------------------------------------

   IBatch   1 (of   2)              ... done ( 1015.247 sec)
   IBatch   2 (of   2)              ... done ( 1317.548 sec)
Total EXT                           ...        2332.795 sec

---------------------
RI-PNO TRANSFORMATION
---------------------

Total Number of PNOs                   ... 34792
Total Number of IJ-PNOs                ... 30607
Total Number of IP-PNOs                ...  3241
Total Number of PQ-PNOs                ...   944
Total Number of IJ-pairs               ...   983
Total Number of PI-pairs               ...   119
Total Number of PQ-pairs               ...    25
Average number of PNOs per pair        ...    30
Maximal number of PNOs per pair        ...    84
>> Statistics for ij-pairs..
   #pairs with  1 -  5 PNOs   :    0
   #pairs with  6 - 10 PNOs   :    0
   #pairs with 11 - 15 PNOs   :   60
   #pairs with 16 - 20 PNOs   :  232
   #pairs with 21 - 25 PNOs   :  174
   #pairs with 26 - 30 PNOs   :  150
   #pairs with 31 - 35 PNOs   :   80
   #pairs with 36 - 40 PNOs   :   62
   #pairs with 41 - 45 PNOs   :   46
   #pairs with 46 - 50 PNOs   :   11
   #pairs with 51 - 55 PNOs   :   38
   #pairs with 56 - 60 PNOs   :   56
   #pairs with 61 - 65 PNOs   :   64
   #pairs with 66 - 70 PNOs   :   10
>> Statistics for ip-pairs..
   #pairs with  1 -  5 PNOs   :    0
   #pairs with  6 - 10 PNOs   :    4
   #pairs with 11 - 15 PNOs   :   14
   #pairs with 16 - 20 PNOs   :    6
   #pairs with 21 - 25 PNOs   :   21
   #pairs with 26 - 30 PNOs   :   19
   #pairs with 31 - 35 PNOs   :   40
   #pairs with 36 - 40 PNOs   :   15
   #pairs with 41 - 45 PNOs   :    0
   #pairs with 46 - 50 PNOs   :    0
>> Statistics for pq-pairs..
   #pairs with  1 -  5 PNOs   :    0
   #pairs with  6 - 10 PNOs   :    0
   #pairs with 11 - 15 PNOs   :    0
   #pairs with 16 - 20 PNOs   :    0
   #pairs with 21 - 25 PNOs   :    8
   #pairs with 26 - 30 PNOs   :   12
   #pairs with 31 - 35 PNOs   :    0
   #pairs with 36 - 40 PNOs   :    0
   #pairs with 41 - 45 PNOs   :    0
   #pairs with 46 - 50 PNOs   :    0
   #pairs with 81 - 85 PNOs   :    5

Generation of (ij|ab)[P] integrals            ... on
Generation of (ia|bc)[P],(ja|bc)[P] integrals ... on
Storage of 3 and 4 external integrals         ... on
Generation of ALL (ka|bc)[P] integrals        ... on
Keep RI integrals in memory                   ... off

Ibatch:  1 (of  1)
Starting 2-4 index PNO integral generation ... done

Timings:
Total PNO integral transformation time     ...       2091.380 sec
Size of the 3-external file                ...       282 MB
Size of the 4-external file                ...      1889 MB
Size of the IKJL file                      ...        19 MB
Size of the all 3-external file            ...      6776 MB
Size of the 1-external file                ...        22 MB

Size of the PAO/PNO coefficient matrices   ...     227.0 MB

Making pair/pair overlap matrices          ... done (  339.643 sec)
Size of the pair overlap file              ...    2478.0 MB
Total # unrestricted pairs ...       2171
  # of alpha-alpha pairs   ...        599
  # of alpha-beta pairs    ...       1102
  # of beta-beta pairs     ...        470
Constructing the guess amplitudes          ... done (    0.611 sec)

-------------------------
FINAL STARTUP INFORMATION
-------------------------

E(0)                                       ...  -3028.431015510
E(SL-UMP2 in NEV-PNO space)                ...     -2.683680972
Initial E(tot)                             ...  -3031.114696482
<T|T>                                      ...      0.532020217
Number of unrestricted pairs included      ... 2171
Total number of pairs                      ... 4095
----------------------------------------------------------
                     OPEN-SHELL COUPLED CLUSTER ITERATIONS
----------------------------------------------------------

Number of PNO amplitudes to be optimized        ...          2106477
Number of canonical amplitudes for strong pairs ...       1960863697
Untruncated number of canonical amplitudes      ...       3698645738

Iter       E(tot)           E(Corr)          Delta-E          Residual     Time
  0  -3031.121928702     -2.655066912      0.028614060      0.022123212 1862.96
                           *** Turning on DIIS ***
  1  -3031.237914996     -2.771053206     -0.115986295      0.010137894 1807.40
  2  -3031.301955470     -2.835093680     -0.064040473      0.008939698 2126.44
  3  -3031.322810338     -2.855948548     -0.020854869      0.004336246 2146.73
  4  -3031.329788160     -2.862926370     -0.006977822      0.002805989 2160.38
  5  -3031.333294028     -2.866432238     -0.003505868      0.002739700 2156.89
  6  -3031.334608947     -2.867747157     -0.001314919      0.001097561 2149.64
  7  -3031.335422671     -2.868560881     -0.000813724      0.000750819 2160.78
  8  -3031.335585257     -2.868723467     -0.000162586      0.000225790 2148.86
  9  -3031.335627424     -2.868765634     -0.000042167      0.000197372 2156.74
 10  -3031.335622833     -2.868761043      0.000004591      0.000094724 2146.87
 11  -3031.335633820     -2.868772030     -0.000010987      0.000077836 2158.55
 12  -3031.335640025     -2.868778235     -0.000006205      0.000032209 2150.14
 13  -3031.335643178     -2.868781388     -0.000003153      0.000019097 2145.41
 14  -3031.335643719     -2.868781929     -0.000000541      0.000008230 2148.46
               --- The CCSD iterations have converged ---

E(0)                                       ...  -3028.431015510
E(CORR)(strong-pairs)                      ...     -2.868781929
E(CORR)(weak-pairs)                        ...     -0.035846280
E(CORR)(corrected)                         ...     -2.904628209
E(TOT)                                     ...  -3031.335643719
Singles norm <S|S>**1/2                    ...      0.184884890 ( 0.060910096, 0.123974794)  
T1 diagnostic                              ...      0.019381203                              
<S**2>(linearized)                         ...      8.7507119 (ideal value:      8.7500000)

----------------------
LARGEST PNO AMPLITUDES
----------------------
  51b-> 76b  -1b-> -1b       0.056270
  30b-> 76b  -1b-> -1b       0.051857
  48b-> 72b  -1b-> -1b       0.048843
  29b-> 76b  -1b-> -1b       0.047603
  49b-> 74b  -1b-> -1b       0.047299
  44a-> 77a  44b-> 77b       0.047121
  52b-> 72b  -1b-> -1b       0.046814
  45a-> 78a  45b-> 78b       0.044360
  67a-> 77a  67b-> 77b       0.043619
  63a-> 77a  63b-> 77b       0.043603
  66a-> 77a  66b-> 77b       0.043590
  56a-> 77a  56b-> 77b       0.043350
  59a-> 77a  59b-> 77b       0.042863
  62a-> 77a  62b-> 77b       0.042378
  55a-> 78a  55b-> 78b       0.042283
  69a-> 77a  69b-> 77b       0.042202

Total # unrestricted pairs ...       1238
  # of alpha-alpha pairs   ...        348
  # of alpha-beta pairs    ...        619
  # of beta-beta pairs     ...        271

-------------------------------------------
DLPNO BASED TRIPLES CORRECTION
-------------------------------------------

Singles multiplier          ...  1.000000
Fragment selection                          .... not used
TCutTNO                     ... 1.000e-09
TCutMP2Pairs                ... 1.000e-05
TCutDOStrong                ... 2.000e-02
TCutMKNStrong               ... 1.000e-02
TCutDOWeak                  ... 4.000e-02
TCutMKNWeak                 ... 1.000e-01
NTCutTNO                    ... 1

Number of Triples that are to be computed         ...     35738

 . . . . . . . . .
10% done  
20% done  
30% done  
40% done  
50% done  
60% done  
70% done  
80% done  
90% done  
          Batch   1   done (  17305.458 sec)

Triples-Correction TCutTNO=   1.000e-09 (NWeakPairs = 0  1  2  3)  -0.115570006343   -0.001884790850    0.000000000000    0.000000000000
Triples-Correction  -0.117454797193

Triples timings:
Total time                      ... 18031.648 sec

Triples List generation         ...     0.000 sec
TNO generation                  ...   725.936 sec
Pair density generation         ...     0.094 sec
Look up tables                  ...     0.119 sec
Generating 3-index integrals    ... 11050.806 sec
Make 4-ind.int. from 3-ind.int  ...     3.937 sec
Projecting amplitudes (D + S)   ...  6003.132 sec
Sorting integrals for spin cases...    52.286 sec
Calculate W0/W1                 ...   157.625 sec
Energy contr. (sum over a,b,c)  ...    37.527 sec

Everything after 3-index        ...  6395.756 sec

Energy contribution AAA         ...    24.338 sec
Energy contribution AAB         ...   110.386 sec
Energy contribution ABB         ...    99.650 sec
Energy contribution BBB         ...    13.106 sec
prep                ...     3.300 sec
makeTTNO            ...  5943.606 sec
copyij              ...     0.134 sec
copyil              ...     4.254 sec
transposeij         ...     0.078 sec
newMatInDoubleProj  ...    56.940 sec
BlasInDoubleProj    ...  3210.343 sec
ProjSingles         ...    49.045 sec
ProjDoubles         ...  5954.086 sec
overall Doubles for projection      ... 3313254
used Doubles for projection         ... 3313254


Number of Triples   (0, 1, 2, 3 weak pairs; overall):  17172   12463       0       0  ( 29635)
Number of Atoms     (0, 1, 2, 3 weak pairs; overall):   20.3    14.7     0.0     0.0  (    29)
Number of PAOs      (0, 1, 2, 3 weak pairs; overall):  783.7   595.1     0.0     0.0  (  1025)
Number of AuxFcns   (0, 1, 2, 3 weak pairs; overall): 1001.2   575.6     0.0     0.0  (  2424)
Number of TNOs (0, 1, 2, 3 weak pairs         ):   78.4    55.7     0.0     0.0
Aver. Number of NTNO, Atoms, PAOs, AuxFcns / Triples:  29635    68.8    17.9   704.4   822.2

Triples Correction (T)                     ...     -0.117454797
    alpha-alpha-alpha ... -0.003861684 (  3.3%)
    alpha-alpha-beta  ... -0.055136251 ( 46.9%)
    alpha-beta -beta  ... -0.054377565 ( 46.3%)
    beta -beta -beta  ... -0.004079296 (  3.5%)
Final correlation energy                   ...     -3.022083006
E(CCSD)                                    ...  -3031.335643719
E(CCSD(T))                                 ...  -3031.453098517

----------------------------
STATISTICS FOR PAIR-ENERGIES
----------------------------
Minimum, maximum and average ratios of UMP and CCSD pair-energies ... 0.49, 1.42, 1.02


------------------------------------------------------------------------------- 
                                     TIMINGS                                   
------------------------------------------------------------------------------- 


Total execution time                   ...    58864.545 sec

Localization of occupied MO's          ...       10.390 sec (  0.0%)
Fock Matrix Formation                  ...     1419.192 sec (  2.4%)
Differential overlap integrals         ...        1.471 sec (  0.0%)
Organizing maps                        ...        1.703 sec (  0.0%)
RI 3-index integral generations        ...      277.902 sec (  0.5%)
RI-PNO integral transformation         ...     4835.215 sec (  8.2%)
Initial Guess                          ...     1915.609 sec (  3.3%)
DIIS Solver                            ...       15.530 sec (  0.0%)
State Vector Update                    ...        0.724 sec (  0.0%)
Sigma-vector construction              ...    31626.249 sec ( 53.7%)
  <0|H|D>                              ...        0.030 sec (  0.0% of sigma)
  <D|H|D>(0-ext)                       ...     5968.144 sec ( 18.9% of sigma)
  <D|H|D>(2-ext Fock)                  ...        1.629 sec (  0.0% of sigma)
  <D|H|D>(2-ext)                       ...     4319.144 sec ( 13.7% of sigma)
  <D|H|D>(4-ext)                       ...      153.343 sec (  0.5% of sigma)
  <D|H|D>(4-ext-corr)                  ...      959.479 sec (  3.0% of sigma)
  CCSD doubles correction              ...      558.762 sec (  1.8% of sigma)
  <S|H|S>                              ...      671.620 sec (  2.1% of sigma)
  <S|H|D>(1-ext)                       ...      235.175 sec (  0.7% of sigma)
  <D|H|S>(1-ext)                       ...        0.746 sec (  0.0% of sigma)
  <S|H|D>(3-ext)                       ...       22.503 sec (  0.1% of sigma)
  CCSD singles correction              ...        0.004 sec (  0.0% of sigma)
  Fock-dressing                        ...    10054.232 sec ( 31.8% of sigma)
  Singles amplitudes                   ...      102.201 sec (  0.3% of sigma)
  (ik|jl)-dressing                     ...     7057.718 sec ( 22.3% of sigma)
  (ij|ab),(ia|jb)-dressing             ...     1426.043 sec (  4.5% of sigma)
  Pair energies                        ...        0.139 sec (  0.0% of sigma)
Total Time for computing (T)           ...    19100.625 sec ( 32.4% of ALL)


-------------------------   --------------------
FINAL SINGLE POINT ENERGY     -3031.453098516527
-------------------------   --------------------


                            ***************************************
                            *     ORCA property calculations      *
                            ***************************************

                                    ---------------------
                                    Active property flags
                                    ---------------------
   (+) Dipole Moment


------------------------------------------------------------------------------
                       ORCA ELECTRIC PROPERTIES CALCULATION
------------------------------------------------------------------------------

Dipole Moment Calculation                       ... on
Quadrupole Moment Calculation                   ... off
Polarizability Calculation                      ... off
GBWName                                         ... simple-grid-170-235-b3lyp_d3bj-631gd-gas-singlepoint-DLPNO_CCSD_T1-NormalPNO-augtz-gas.gbw
Electron density file                           ... simple-grid-170-235-b3lyp_d3bj-631gd-gas-singlepoint-DLPNO_CCSD_T1-NormalPNO-augtz-gas.scfp.tmp
The origin for moment calculation is the CENTER OF MASS  = ( 0.296998,  0.029122  0.018972)

-------------
DIPOLE MOMENT
-------------
                                X             Y             Z
Electronic contribution:     39.30009       4.92563       2.39772
Nuclear contribution   :    -44.25265      -4.33919      -2.82675
                        -----------------------------------------
Total Dipole Moment    :     -4.95256       0.58644      -0.42903
                        -----------------------------------------
Magnitude (a.u.)       :      5.00558
Magnitude (Debye)      :     12.72317



--------------------
Rotational spectrum 
--------------------
 
Rotational constants in cm-1:     0.018937     0.012022     0.010868 
Rotational constants in MHz :   567.717348   360.399485   325.812599 

 Dipole components along the rotational axes: 
x,y,z [a.u.] :    -4.958260     0.536997    -0.427939 
x,y,z [Debye]:   -12.602894     1.364938    -1.087734 

 

Timings for individual modules:

Sum of individual times         ...    75310.585 sec (=1255.176 min)
GTO integral calculation        ...       12.543 sec (=   0.209 min)   0.0 %
SCF iterations                  ...    16416.457 sec (= 273.608 min)  21.8 %
MDCI module                     ...    58881.584 sec (= 981.360 min)  78.2 %
                             ****ORCA TERMINATED NORMALLY****
TOTAL RUN TIME: 0 days 20 hours 55 minutes 13 seconds 249 msec
