
                                 *****************
                                 * O   R   C   A *
                                 *****************

           --- An Ab Initio, DFT and Semiempirical electronic structure package ---

                  #######################################################
                  #                        -***-                        #
                  #          Department of theory and spectroscopy      #
                  #               Directorship: Frank Neese             #
                  #        Max Planck Institute fuer Kohlenforschung    #
                  #                Kaiser Wilhelm Platz 1               #
                  #                 D-45470 Muelheim/Ruhr               #
                  #                      Germany                        #
                  #                                                     #
                  #                  All rights reserved                #
                  #                        -***-                        #
                  #######################################################


                         Program Version 4.1.2  - RELEASE  -


 With contributions from (in alphabetic order):
   Daniel Aravena         : Magnetic Properties
   Michael Atanasov       : Ab Initio Ligand Field Theory
   Alexander A. Auer      : GIAO ZORA
   Ute Becker             : Parallelization
   Giovanni Bistoni       : ED, Open-shell LED
   Martin Brehm           : Molecular dynamics
   Dmytro Bykov           : SCF Hessian
   Vijay G. Chilkuri      : MRCI spin determinant printing
   Dipayan Datta          : RHF DLPNO-CCSD density
   Achintya Kumar Dutta   : EOM-CC, STEOM-CC
   Dmitry Ganyushin       : Spin-Orbit,Spin-Spin,Magnetic field MRCI
   Miquel Garcia          : C-PCM Hessian
   Yang Guo               : DLPNO-NEVPT2, CIM, IAO-localization
   Andreas Hansen         : Spin unrestricted coupled pair/coupled cluster methods
   Benjamin Helmich-Paris : CASSCF linear response (MC-RPA)
   Lee Huntington         : MR-EOM, pCC
   Robert Izsak           : Overlap fitted RIJCOSX, COSX-SCS-MP3, EOM
   Christian Kollmar      : KDIIS, OOCD, Brueckner-CCSD(T), CCSD density
   Simone Kossmann        : Meta GGA functionals, TD-DFT gradient, OOMP2, MP2 Hessian
   Martin Krupicka        : AUTO-CI
   Lucas Lang             : DCDCAS
   Dagmar Lenk            : GEPOL surface, SMD
   Dimitrios Liakos       : Extrapolation schemes; parallel MDCI
   Dimitrios Manganas     : ROCIS; embedding schemes
   Dimitrios Pantazis     : SARC Basis sets
   Taras Petrenko         : DFT Hessian,TD-DFT gradient, ASA, ECA, R-Raman, ABS, FL, XAS/XES, NRVS
   Peter Pinski           : DLPNO-MP2, DLPNO-MP2 Gradient
   Christoph Reimann      : Effective Core Potentials
   Marius Retegan         : Local ZFS, SOC
   Christoph Riplinger    : Optimizer, TS searches, QM/MM, DLPNO-CCSD(T), (RO)-DLPNO pert. Triples
   Tobias Risthaus        : Range-separated hybrids, TD-DFT gradient, RPA, STAB
   Michael Roemelt        : Restricted open shell CIS
   Masaaki Saitow         : Open-shell DLPNO
   Barbara Sandhoefer     : DKH picture change effects
   Avijit Sen             : IP-ROCIS
   Kantharuban Sivalingam : CASSCF convergence, NEVPT2, FIC-MRCI
   Bernardo de Souza      : ESD, SOC TD-DFT
   Georgi Stoychev        : AutoAux, RI-MP2 NMR
   Willem Van den Heuvel  : Paramagnetic NMR
   Boris Wezisla          : Elementary symmetry handling
   Frank Wennmohs         : Technical directorship


 We gratefully acknowledge several colleagues who have allowed us to
 interface, adapt or use parts of their codes:
   Stefan Grimme, W. Hujo, H. Kruse,             : VdW corrections, initial TS optimization,
                  C. Bannwarth                     DFT functionals, gCP, sTDA/sTD-DF
   Ed Valeev                                     : LibInt (2-el integral package), F12 methods
   Garnet Chan, S. Sharma, J. Yang, R. Olivares  : DMRG
   Ulf Ekstrom                                   : XCFun DFT Library
   Mihaly Kallay                                 : mrcc  (arbitrary order and MRCC methods)
   Andreas Klamt, Michael Diedenhofen            : otool_cosmo (COSMO solvation model)
   Jiri Pittner, Ondrej Demel                    : Mk-CCSD
   Frank Weinhold                                : gennbo (NPA and NBO analysis)
   Christopher J. Cramer and Donald G. Truhlar   : smd solvation model
   Lars Goerigk                                  : TD-DFT with DH, B97 family of functionals
   V. Asgeirsson, H. Jonsson                     : NEB implementation
   FAccTs GmbH                                   : IRC, NEB, NEB-TS, Multilevel


 Your calculation uses the libint2 library for the computation of 2-el integrals
 For citations please refer to: http://libint.valeyev.net

 This ORCA versions uses:
   CBLAS   interface :  Fast vector & matrix operations
   LAPACKE interface :  Fast linear algebra routines
   SCALAPACK package :  Parallel linear algebra routines


----- Orbital basis set information -----
Your calculation utilizes the basis: aug-cc-pVTZ 
    H, B-Ne : Obtained from the ccRepo (grant-hill.group.shef.ac.uk/ccrepo) Feb. 2017
              R. A. Kendall, T. H. Dunning, Jr., R. J. Harrison, J. Chem. Phys. 96, 6796 (1992)
         He : Obtained from the ccRepo (grant-hill.group.shef.ac.uk/ccrepo) Feb. 2017
              D. E. Woon, T. H. Dunning, Jr., J. Chem. Phys. 100, 2975 (1994)
  Li-Be, Na : Obtained from the ccRepo (grant-hill.group.shef.ac.uk/ccrepo) Feb. 2017
              B. P. Prascher, D. E. Woon, K. A. Peterson, T. H. Dunning, Jr., A. K. Wilson, Theor. Chem. Acc. 128, 69 (2011)
         Mg : Obtained from the Peterson Research Group Website (tyr0.chem.wsu.edu/~kipeters) Feb. 2017
              B. P. Prascher, D. E. Woon, K. A. Peterson, T. H. Dunning, Jr., A. K. Wilson, Theor. Chem. Acc. 128, 69 (2011)
      Al-Ar : Obtained from the ccRepo (grant-hill.group.shef.ac.uk/ccrepo) Feb. 2017
              D. E. Woon, T. H. Dunning, Jr., J. Chem. Phys. 98, 1358 (1993)
      Sc-Zn : Obtained from the ccRepo (grant-hill.group.shef.ac.uk/ccrepo) Feb. 2017
              N. B. Balabanov, K. A. Peterson, J. Chem. Phys. 123, 064107 (2005)
              N. B. Balabanov, K. A. Peterson, J. Chem. Phys. 125, 074110 (2006)
      Ga-Kr : Obtained from the ccRepo (grant-hill.group.shef.ac.uk/ccrepo) Feb. 2017
              A. K. Wilson, D. E. Woon, K. A. Peterson, T. H. Dunning, Jr., J. Chem. Phys. 110, 7667 (1999)
     Ag, Au : Obtained from the Peterson Research Group Website (tyr0.chem.wsu.edu/~kipeters) Feb. 2017
              K. A. Peterson, C. Puzzarini, Theor. Chem. Acc. 114, 283 (2005)

----- AuxJ basis set information -----
Your calculation utilizes the AutoAux generation procedure.
  G. L. Stoychev, A. A. Auer, F. Neese, J. Chem. Theory Comput. 13, 554 (2017)

----- AuxC basis set information -----
Your calculation utilizes the auxiliary basis: aug-cc-pVTZ/C 
  H-He, B-F, Al-Ar, Ga-Kr : Obtained from the EMSL Basis Set Exchange (bse.pnl.gov) Feb. 2017
                            F. Weigend, A. Kohn, C. Hattig, J. Chem. Phys. 116, 3175 (2002)
                   Be, Mg : Obtained from the TURBOMOLE 7.0 basis set library
                            C. Haettig, Phys. Chem. Chem. Phys. 7, 59 (2005)
                       Ne : Obtained from the EMSL Basis Set Exchange (bse.pnl.gov) Feb. 2017
                            C. Haettig, Phys. Chem. Chem. Phys. 7, 59 (2005)
                            F. Weigend, A. Kohn, C. Hattig, J. Chem. Phys. 116, 3175 (2002)
                    Sc-Zn : Obtained from the EMSL Basis Set Exchange (bse.pnl.gov) Feb. 2017
                            J. G. Hill, J. A. Platts, J. Chem. Phys. 128, 044104 (2008)

----- AuxJK basis set information -----
Your calculation utilizes the AutoAux generation procedure.
  G. L. Stoychev, A. A. Auer, F. Neese, J. Chem. Theory Comput. 13, 554 (2017)

================================================================================
                                        WARNINGS
                       Please study these warnings very carefully!
================================================================================


WARNING: your system is open-shell and RHF/RKS was chosen
  ===> : WILL SWITCH to UHF/UKS


WARNING: MDCI localization with Augmented Hessian Foster-Boys
  ===> : Switching off randomization!

WARNING: Post HF methods need fully converged wavefunctions
  ===> : Setting SCFConvForced true
         You can overwrite this default with %scf ConvForced false 


INFO   : the flag for use of LIBINT has been found!

================================================================================
                                       INPUT FILE
================================================================================
NAME = simple-grid-170-250-b3lyp_d3bj-631gd-gas-singlepoint-DLPNO_CCSD_T1-NormalPNO-augtz-gas.inp
|  1> ! aug-cc-pVTZ aug-cc-pVTZ/C DLPNO-CCSD(T1) TightSCF NormalPNO UNO MiniPrint AutoAux
|  2> %pal nproc 10 end
|  3> %maxcore 20000
|  4> %mdci
|  5>      density none
|  6> end
|  7> 
|  8> * xyz 0 6
|  9>  O     -0.29257100     -0.29529700     -0.72914500
| 10>  C     -1.33028700     -1.17770900     -0.51308100
| 11>  C     -2.59814200     -0.35406200      0.26419100
| 12>  C     -2.33494600      1.01624200     -0.13030700
| 13>  C     -2.70950300      1.52561500     -1.46112500
| 14> Fe      1.36648800      0.09709800     -0.03612200
| 15> Cl      1.69314900      2.17041300     -0.76246300
| 16>  C     -1.62271500      1.94136000      0.75918600
| 17> Cl      2.82030900     -1.41737700     -0.68396000
| 18> Cl      1.10772300      0.09910800      2.19956000
| 19>  H     -3.49573500     -0.72582900     -0.23740700
| 20>  H     -2.39711400      2.37595800      1.41839300
| 21>  H     -0.91011900      1.43449300      1.41577700
| 22>  H     -1.13612800      2.75409200      0.21610500
| 23>  H     -3.00603200      2.57896300     -1.40834900
| 24>  H     -1.76808200      1.50565000     -2.03788900
| 25>  H     -3.46339900      0.92972800     -1.97489200
| 26>  C     -2.66968600     -0.59938000      1.77452800
| 27>  H     -3.44256500      0.03145600      2.22773200
| 28>  H     -2.94017800     -1.63940800      1.96619300
| 29>  H     -1.72026800     -0.39976400      2.27513800
| 30>  C     -0.91121900     -2.36468700      0.35308400
| 31>  H     -1.72919300     -3.07448500      0.50954200
| 32>  H     -0.10663700     -2.87479600     -0.18861900
| 33>  H     -0.50950600     -2.04613700      1.31545600
| 34>  C     -1.86009700     -1.67026700     -1.86407300
| 35>  H     -1.04467700     -2.20458000     -2.36094100
| 36>  H     -2.70858800     -2.35205500     -1.74454900
| 37>  H     -2.15043400     -0.84458000     -2.51710800
| 38> *
| 39> 
| 40> 
| 41>                          ****END OF INPUT****
================================================================================

                       ****************************
                       * Single Point Calculation *
                       ****************************

---------------------------------
CARTESIAN COORDINATES (ANGSTROEM)
---------------------------------
  O     -0.292571   -0.295297   -0.729145
  C     -1.330287   -1.177709   -0.513081
  C     -2.598142   -0.354062    0.264191
  C     -2.334946    1.016242   -0.130307
  C     -2.709503    1.525615   -1.461125
  Fe     1.366488    0.097098   -0.036122
  Cl     1.693149    2.170413   -0.762463
  C     -1.622715    1.941360    0.759186
  Cl     2.820309   -1.417377   -0.683960
  Cl     1.107723    0.099108    2.199560
  H     -3.495735   -0.725829   -0.237407
  H     -2.397114    2.375958    1.418393
  H     -0.910119    1.434493    1.415777
  H     -1.136128    2.754092    0.216105
  H     -3.006032    2.578963   -1.408349
  H     -1.768082    1.505650   -2.037889
  H     -3.463399    0.929728   -1.974892
  C     -2.669686   -0.599380    1.774528
  H     -3.442565    0.031456    2.227732
  H     -2.940178   -1.639408    1.966193
  H     -1.720268   -0.399764    2.275138
  C     -0.911219   -2.364687    0.353084
  H     -1.729193   -3.074485    0.509542
  H     -0.106637   -2.874796   -0.188619
  H     -0.509506   -2.046137    1.315456
  C     -1.860097   -1.670267   -1.864073
  H     -1.044677   -2.204580   -2.360941
  H     -2.708588   -2.352055   -1.744549
  H     -2.150434   -0.844580   -2.517108

----------------------------
CARTESIAN COORDINATES (A.U.)
----------------------------
  NO LB      ZA    FRAG     MASS         X           Y           Z
   0 O     8.0000    0    15.999   -0.552879   -0.558030   -1.377884
   1 C     6.0000    0    12.011   -2.513878   -2.225547   -0.969583
   2 C     6.0000    0    12.011   -4.909777   -0.669080    0.499249
   3 C     6.0000    0    12.011   -4.412408    1.920419   -0.246245
   4 C     6.0000    0    12.011   -5.120219    2.882995   -2.761126
   5 Fe   26.0000    0    55.850    2.582288    0.183489   -0.068261
   6 Cl   17.0000    0    35.453    3.199588    4.101486   -1.440846
   7 C     6.0000    0    12.011   -3.066487    3.668639    1.434654
   8 Cl   17.0000    0    35.453    5.329612   -2.678454   -1.292497
   9 Cl   17.0000    0    35.453    2.093293    0.187287    4.156566
  10 H     1.0000    0     1.008   -6.605982   -1.371618   -0.448634
  11 H     1.0000    0     1.008   -4.529889    4.489910    2.680374
  12 H     1.0000    0     1.008   -1.719876    2.710799    2.675431
  13 H     1.0000    0     1.008   -2.146971    5.204480    0.408379
  14 H     1.0000    0     1.008   -5.680577    4.873534   -2.661394
  15 H     1.0000    0     1.008   -3.341191    2.845266   -3.851052
  16 H     1.0000    0     1.008   -6.544876    1.756931   -3.732005
  17 C     6.0000    0    12.011   -5.044975   -1.132664    3.353372
  18 H     1.0000    0     1.008   -6.505505    0.059443    4.209803
  19 H     1.0000    0     1.008   -5.556131   -3.098032    3.715566
  20 H     1.0000    0     1.008   -3.250835   -0.755444    4.299388
  21 C     6.0000    0    12.011   -1.721954   -4.468611    0.667232
  22 H     1.0000    0     1.008   -3.267701   -5.809935    0.962895
  23 H     1.0000    0     1.008   -0.201515   -5.432577   -0.356438
  24 H     1.0000    0     1.008   -0.962827   -3.866639    2.485852
  25 C     6.0000    0    12.011   -3.515074   -3.156347   -3.522587
  26 H     1.0000    0     1.008   -1.974153   -4.166052   -4.461532
  27 H     1.0000    0     1.008   -5.118490   -4.444740   -3.296720
  28 H     1.0000    0     1.008   -4.063731   -1.596025   -4.756645



           ************************************************************
           *        Program running with 10 parallel MPI-processes    *
           *              working on a common directory               *
           ************************************************************


           ************************************************************
           *        Program running with 10 parallel MPI-processes    *
           *              working on a common directory               *
           ************************************************************

Diagonalization of the overlap matrix:
Smallest eigenvalue                        ... 5.628e-07
Time for diagonalization                   ...    0.749 sec
Threshold for overlap eigenvalues          ... 1.000e-08
Number of eigenvalues below threshold      ... 0
Time for construction of square roots      ...    0.303 sec
Total time needed                          ...    1.058 sec

-------------------
DFT GRID GENERATION
-------------------

General Integration Accuracy     IntAcc      ...  4.340
Radial Grid Type                 RadialGrid  ... Gauss-Chebyshev
Angular Grid (max. acc.)         AngularGrid ... Lebedev-110
Angular grid pruning method      GridPruning ... 3 (G Style)
Weight generation scheme         WeightScheme... Becke
Basis function cutoff            BFCut       ...    1.0000e-11
Integration weight cutoff        WCut        ...    1.0000e-14
Grids for H and He will be reduced by one unit

# of grid points (after initial pruning)     ...  36112 (   0.0 sec)
# of grid points (after weights+screening)   ...  32294 (   0.1 sec)
nearest neighbour list constructed           ...    0.0 sec
Grid point re-assignment to atoms done       ...    0.0 sec
Grid point division into batches done        ...    0.0 sec
Reduced shell lists constructed in    0.2 sec

Total number of grid points                  ...    32294
Total number of batches                      ...      521
Average number of points per batch           ...       61
Average number of grid points per atom       ...     1114
Average number of shells per batch           ...   293.89 (85.68%)
Average number of basis functions per batch  ...   874.89 (85.36%)
Average number of large shells per batch     ...   243.04 (82.70%)
Average number of large basis fcns per batch ...   723.96 (82.75%)
Maximum spatial batch extension              ...   3.72,  3.40,  4.32 au
Average spatial batch extension              ...   0.18,  0.17,  0.17 au

Time for grid setup =    0.400 sec

Loading Hartree-Fock densities                     ... done
Calculating cut-offs                               ... done
Setting up the integral package                    ... done
Initializing the effective Hamiltonian             ... done
Starting the Coulomb interaction                   ... done (   1.1 sec)
Reading the grid                                   ... done
Mapping shells                                     ... done
Starting the XC term evaluation                    ... done (   0.9 sec)
Transforming the Hamiltonian                       ... done (   0.2 sec)
Diagonalizing the Hamiltonian                      ... done (   0.4 sec)
Back transforming the eigenvectors                 ... done (   0.1 sec)
Now organizing SCF variables                       ... done
--------------
SCF ITERATIONS
--------------
ITER       Energy         Delta-E        Max-DP      RMS-DP      [F,P]     Damp
               ***  Starting incremental Fock matrix formation  ***
  0  -3027.5707582064   0.000000000000 0.36689931  0.00125378  0.3031823 0.7000
  1  -3027.8224868267  -0.251728620349 0.26491346  0.00096697  0.1730944 0.7000
                               ***Turning on DIIS***
  2  -3027.9902729214  -0.167786094634 0.18477616  0.00070726  0.1097840 0.7000
  3  -3029.6922704106  -1.701997489256 0.41290814  0.00175782  0.0827167 0.0000
  4  -3028.2998140310   1.392456379582 0.04801445  0.00022593  0.0194890 0.0000
  5  -3028.4169977265  -0.117183695412 0.04010960  0.00017077  0.0115550 0.0000
  6  -3028.4404924140  -0.023494687589 0.02053989  0.00006848  0.0052628 0.0000
  7  -3028.4570841074  -0.016591693353 0.00959122  0.00003214  0.0032038 0.0000
  8  -3028.4535400245   0.003544082922 0.00597387  0.00001833  0.0013462 0.0000
  9  -3028.4444717394   0.009068285130 0.00243123  0.00001071  0.0006819 0.0000
 10  -3028.4341461914   0.010325547941 0.00083068  0.00000326  0.0003975 0.0000
 11  -3028.4398746488  -0.005728457370 0.00024912  0.00000184  0.0000722 0.0000
 12  -3028.4374788348   0.002395813979 0.00064548  0.00000157  0.0000169 0.0000
 13  -3028.4375582256  -0.000079390780 0.00034944  0.00000198  0.0000082 0.0000
 14  -3028.4376021338  -0.000043908212 0.00149623  0.00000299  0.0000047 0.0000
 15  -3028.4375435363   0.000058597492 0.00059195  0.00000218  0.0000026 0.0000
 16  -3028.4375631949  -0.000019658574 0.00138338  0.00000285  0.0000024 0.0000
                            ***DIIS convergence achieved***

               *****************************************************
               *                     SUCCESS                       *
               *           SCF CONVERGED AFTER  17 CYCLES          *
               *****************************************************

Total Energy       :        -3028.43757781 Eh          -82407.97603 eV
  Last Energy change         ...   -1.4617e-05  Tolerance :   1.0000e-08
  Last MAX-Density change    ...    1.0609e-03  Tolerance :   1.0000e-07
             **** THE GBW FILE WAS UPDATED (simple-grid-170-250-b3lyp_d3bj-631gd-gas-singlepoint-DLPNO_CCSD_T1-NormalPNO-augtz-gas.gbw) ****
             **** DENSITY FILE WAS UPDATED (simple-grid-170-250-b3lyp_d3bj-631gd-gas-singlepoint-DLPNO_CCSD_T1-NormalPNO-augtz-gas.scfp.tmp) ****
             **** ENERGY FILE WAS UPDATED (simple-grid-170-250-b3lyp_d3bj-631gd-gas-singlepoint-DLPNO_CCSD_T1-NormalPNO-augtz-gas.en.tmp) ****
----------------------
UHF SPIN CONTAMINATION
----------------------

Expectation value of <S**2>     :     8.764331
Ideal value S*(S+1) for S=2.5   :     8.750000
Deviation                       :     0.014331

----------------
ORBITAL ENERGIES
----------------
                 SPIN UP ORBITALS
  NO   OCC          E(Eh)            E(eV) 
   0   1.0000    -261.541209     -7116.8981 
   1   1.0000    -104.773168     -2851.0229 
   2   1.0000    -104.769316     -2850.9180 
   3   1.0000    -104.765624     -2850.8176 
   4   1.0000     -32.209097      -876.4541 
   5   1.0000     -27.685111      -753.3502 
   6   1.0000     -27.684790      -753.3414 
   7   1.0000     -27.684491      -753.3333 
   8   1.0000     -20.534019      -558.7591 
   9   1.0000     -11.410448      -310.4941 
  10   1.0000     -11.344955      -308.7119 
  11   1.0000     -11.297891      -307.4312 
  12   1.0000     -11.291883      -307.2678 
  13   1.0000     -11.281630      -306.9888 
  14   1.0000     -11.257709      -306.3378 
  15   1.0000     -11.240353      -305.8656 
  16   1.0000     -11.230978      -305.6104 
  17   1.0000     -10.499718      -285.7118 
  18   1.0000     -10.495821      -285.6058 
  19   1.0000     -10.492164      -285.5063 
  20   1.0000      -7.966632      -216.7831 
  21   1.0000      -7.965701      -216.7578 
  22   1.0000      -7.965667      -216.7568 
  23   1.0000      -7.962667      -216.6752 
  24   1.0000      -7.961909      -216.6545 
  25   1.0000      -7.961799      -216.6516 
  26   1.0000      -7.958954      -216.5741 
  27   1.0000      -7.958287      -216.5560 
  28   1.0000      -7.958194      -216.5535 
  29   1.0000      -4.564600      -124.2091 
  30   1.0000      -3.177144       -86.4545 
  31   1.0000      -3.176680       -86.4418 
  32   1.0000      -3.176348       -86.4328 
  33   1.0000      -1.357976       -36.9524 
  34   1.0000      -1.199581       -32.6422 
  35   1.0000      -1.091161       -29.6920 
  36   1.0000      -1.044493       -28.4221 
  37   1.0000      -1.041233       -28.3334 
  38   1.0000      -1.035947       -28.1895 
  39   1.0000      -1.032466       -28.0948 
  40   1.0000      -1.020444       -27.7677 
  41   1.0000      -0.966164       -26.2907 
  42   1.0000      -0.933941       -25.4138 
  43   1.0000      -0.904443       -24.6111 
  44   1.0000      -0.894335       -24.3361 
  45   1.0000      -0.894132       -24.3306 
  46   1.0000      -0.886813       -24.1314 
  47   1.0000      -0.885886       -24.1062 
  48   1.0000      -0.800871       -21.7928 
  49   1.0000      -0.762908       -20.7598 
  50   1.0000      -0.713295       -19.4097 
  51   1.0000      -0.692554       -18.8453 
  52   1.0000      -0.680419       -18.5151 
  53   1.0000      -0.642819       -17.4920 
  54   1.0000      -0.637680       -17.3522 
  55   1.0000      -0.627461       -17.0741 
  56   1.0000      -0.608509       -16.5584 
  57   1.0000      -0.601609       -16.3706 
  58   1.0000      -0.592643       -16.1266 
  59   1.0000      -0.587359       -15.9828 
  60   1.0000      -0.575331       -15.6555 
  61   1.0000      -0.556134       -15.1332 
  62   1.0000      -0.554792       -15.0967 
  63   1.0000      -0.538297       -14.6478 
  64   1.0000      -0.528903       -14.3922 
  65   1.0000      -0.523167       -14.2361 
  66   1.0000      -0.502297       -13.6682 
  67   1.0000      -0.464559       -12.6413 
  68   1.0000      -0.460051       -12.5186 
  69   1.0000      -0.442876       -12.0513 
  70   1.0000      -0.428730       -11.6663 
  71   1.0000      -0.420124       -11.4321 
  72   1.0000      -0.418427       -11.3860 
  73   1.0000      -0.411987       -11.2107 
  74   1.0000      -0.409474       -11.1424 
  75   1.0000      -0.407772       -11.0960 
  76   1.0000      -0.406410       -11.0590 
  77   0.0000       0.000177         0.0048 
  78   0.0000       0.004263         0.1160 
  79   0.0000       0.018554         0.5049 
  80   0.0000       0.019153         0.5212 
  81   0.0000       0.030012         0.8167 
  82   0.0000       0.036932         1.0050 
  83   0.0000       0.038246         1.0407 
  84   0.0000       0.044094         1.1999 
  85   0.0000       0.045344         1.2339 
  86   0.0000       0.047514         1.2929 
  87   0.0000       0.056856         1.5471 
  88   0.0000       0.058955         1.6042 
  89   0.0000       0.061591         1.6760 
  90   0.0000       0.065247         1.7755 
  91   0.0000       0.065814         1.7909 
  92   0.0000       0.069578         1.8933 
  93   0.0000       0.073587         2.0024 
  94   0.0000       0.076344         2.0774 
  95   0.0000       0.087742         2.3876 
  96   0.0000       0.089116         2.4250 
  97   0.0000       0.094010         2.5581 
  98   0.0000       0.094935         2.5833 
  99   0.0000       0.098350         2.6762 
 100   0.0000       0.098963         2.6929 
 101   0.0000       0.110111         2.9963 
 102   0.0000       0.113321         3.0836 
 103   0.0000       0.118981         3.2376 
 104   0.0000       0.121097         3.2952 
 105   0.0000       0.125684         3.4200 
 106   0.0000       0.126758         3.4493 
 107   0.0000       0.130524         3.5517 
 108   0.0000       0.132163         3.5963 
 109   0.0000       0.133765         3.6399 
 110   0.0000       0.138439         3.7671 
 111   0.0000       0.139488         3.7957 
 112   0.0000       0.143721         3.9108 
 113   0.0000       0.146952         3.9988 
 114   0.0000       0.151079         4.1111 
 115   0.0000       0.155328         4.2267 
 116   0.0000       0.156940         4.2706 
 117   0.0000       0.164898         4.4871 
 118   0.0000       0.166848         4.5402 
 119   0.0000       0.167095         4.5469 
 120   0.0000       0.169432         4.6105 
 121   0.0000       0.171389         4.6637 
 122   0.0000       0.173367         4.7175 
 123   0.0000       0.176735         4.8092 
 124   0.0000       0.182418         4.9638 
 125   0.0000       0.187992         5.1155 
 126   0.0000       0.189097         5.1456 
 127   0.0000       0.195235         5.3126 
 128   0.0000       0.197613         5.3773 
 129   0.0000       0.201703         5.4886 
 130   0.0000       0.203274         5.5314 
 131   0.0000       0.208248         5.6667 
 132   0.0000       0.208893         5.6843 
 133   0.0000       0.214169         5.8278 
 134   0.0000       0.216404         5.8887 
 135   0.0000       0.223228         6.0743 
 136   0.0000       0.224994         6.1224 
 137   0.0000       0.227265         6.1842 
 138   0.0000       0.230683         6.2772 
 139   0.0000       0.230947         6.2844 
 140   0.0000       0.233195         6.3456 
 141   0.0000       0.240289         6.5386 
 142   0.0000       0.242922         6.6102 
 143   0.0000       0.245333         6.6758 
 144   0.0000       0.249262         6.7828 
 145   0.0000       0.251808         6.8520 
 146   0.0000       0.253817         6.9067 
 147   0.0000       0.259018         7.0482 
 148   0.0000       0.260315         7.0835 
 149   0.0000       0.266229         7.2445 
 150   0.0000       0.269320         7.3286 
 151   0.0000       0.273012         7.4290 
 152   0.0000       0.276630         7.5275 
 153   0.0000       0.280501         7.6328 
 154   0.0000       0.282983         7.7004 
 155   0.0000       0.289828         7.8866 
 156   0.0000       0.294310         8.0086 
 157   0.0000       0.295576         8.0430 
 158   0.0000       0.301496         8.2041 
 159   0.0000       0.304185         8.2773 
 160   0.0000       0.305745         8.3198 
 161   0.0000       0.313997         8.5443 
 162   0.0000       0.319625         8.6974 
 163   0.0000       0.322301         8.7703 
 164   0.0000       0.328383         8.9358 
 165   0.0000       0.330549         8.9947 
 166   0.0000       0.334323         9.0974 
 167   0.0000       0.336256         9.1500 
 168   0.0000       0.340810         9.2739 
 169   0.0000       0.343403         9.3445 
 170   0.0000       0.344578         9.3764 
 171   0.0000       0.351081         9.5534 
 172   0.0000       0.354887         9.6570 
 173   0.0000       0.359932         9.7942 
 174   0.0000       0.362432         9.8623 
 175   0.0000       0.364386         9.9154 
 176   0.0000       0.368323        10.0226 
 177   0.0000       0.371548        10.1103 
 178   0.0000       0.375494        10.2177 
 179   0.0000       0.378604        10.3023 
 180   0.0000       0.383227        10.4281 
 181   0.0000       0.385401        10.4873 
 182   0.0000       0.388127        10.5615 
 183   0.0000       0.389539        10.5999 
 184   0.0000       0.392511        10.6808 
 185   0.0000       0.395400        10.7594 
 186   0.0000       0.397964        10.8292 
 187   0.0000       0.399930        10.8827 
 188   0.0000       0.404315        11.0020 
 189   0.0000       0.412808        11.2331 
 190   0.0000       0.417304        11.3554 
 191   0.0000       0.417636        11.3645 
 192   0.0000       0.423898        11.5348 
 193   0.0000       0.425153        11.5690 
 194   0.0000       0.429091        11.6762 
 195   0.0000       0.431425        11.7397 
 196   0.0000       0.438525        11.9329 
 197   0.0000       0.440452        11.9853 
 198   0.0000       0.442170        12.0321 
 199   0.0000       0.448944        12.2164 
 200   0.0000       0.449604        12.2343 
 201   0.0000       0.454789        12.3754 
 202   0.0000       0.457366        12.4456 
 203   0.0000       0.461691        12.5632 
 204   0.0000       0.467095        12.7103 
 205   0.0000       0.468534        12.7495 
 206   0.0000       0.472414        12.8550 
 207   0.0000       0.474874        12.9220 
 208   0.0000       0.480274        13.0689 
 209   0.0000       0.483260        13.1502 
 210   0.0000       0.484733        13.1903 
 211   0.0000       0.488331        13.2882 
 212   0.0000       0.490637        13.3509 
 213   0.0000       0.491715        13.3802 
 214   0.0000       0.493681        13.4337 
 215   0.0000       0.496552        13.5119 
 216   0.0000       0.498376        13.5615 
 217   0.0000       0.501677        13.6513 
 218   0.0000       0.503881        13.7113 
 219   0.0000       0.510041        13.8789 
 220   0.0000       0.514780        14.0079 
 221   0.0000       0.518062        14.0972 
 222   0.0000       0.521225        14.1833 
 223   0.0000       0.523908        14.2563 
 224   0.0000       0.528904        14.3922 
 225   0.0000       0.532211        14.4822 
 226   0.0000       0.541331        14.7304 
 227   0.0000       0.542742        14.7688 
 228   0.0000       0.545645        14.8478 
 229   0.0000       0.549364        14.9489 
 230   0.0000       0.552623        15.0376 
 231   0.0000       0.557221        15.1628 
 232   0.0000       0.559773        15.2322 
 233   0.0000       0.562334        15.3019 
 234   0.0000       0.566369        15.4117 
 235   0.0000       0.572209        15.5706 
 236   0.0000       0.574051        15.6207 
 237   0.0000       0.575077        15.6486 
 238   0.0000       0.576741        15.6939 
 239   0.0000       0.582994        15.8641 
 240   0.0000       0.589935        16.0530 
 241   0.0000       0.590876        16.0786 
 242   0.0000       0.595251        16.1976 
 243   0.0000       0.598326        16.2813 
 244   0.0000       0.604008        16.4359 
 245   0.0000       0.608693        16.5634 
 246   0.0000       0.612920        16.6784 
 247   0.0000       0.614422        16.7193 
 248   0.0000       0.617006        16.7896 
 249   0.0000       0.622867        16.9491 
 250   0.0000       0.624129        16.9834 
 251   0.0000       0.629234        17.1223 
 252   0.0000       0.634564        17.2674 
 253   0.0000       0.639296        17.3961 
 254   0.0000       0.641250        17.4493 
 255   0.0000       0.646400        17.5894 
 256   0.0000       0.647940        17.6314 
 257   0.0000       0.650270        17.6947 
 258   0.0000       0.657387        17.8884 
 259   0.0000       0.659266        17.9395 
 260   0.0000       0.665361        18.1054 
 261   0.0000       0.670065        18.2334 
 262   0.0000       0.674890        18.3647 
 263   0.0000       0.679673        18.4948 
 264   0.0000       0.685349        18.6493 
 265   0.0000       0.691310        18.8115 
 266   0.0000       0.693935        18.8829 
 267   0.0000       0.695279        18.9195 
 268   0.0000       0.697971        18.9928 
 269   0.0000       0.701700        19.0942 
 270   0.0000       0.708205        19.2712 
 271   0.0000       0.711834        19.3700 
 272   0.0000       0.713976        19.4283 
 273   0.0000       0.723035        19.6748 
 274   0.0000       0.725890        19.7525 
 275   0.0000       0.730997        19.8914 
 276   0.0000       0.733352        19.9555 
 277   0.0000       0.741565        20.1790 
 278   0.0000       0.743793        20.2396 
 279   0.0000       0.749607        20.3978 
 280   0.0000       0.754896        20.5418 
 281   0.0000       0.755243        20.5512 
 282   0.0000       0.765185        20.8217 
 283   0.0000       0.768228        20.9046 
 284   0.0000       0.780450        21.2371 
 285   0.0000       0.783083        21.3088 
 286   0.0000       0.786469        21.4009 
 287   0.0000       0.793763        21.5994 
 288   0.0000       0.797931        21.7128 
 289   0.0000       0.800444        21.7812 
 290   0.0000       0.812974        22.1221 
 291   0.0000       0.815177        22.1821 
 292   0.0000       0.818649        22.2766 
 293   0.0000       0.825822        22.4718 
 294   0.0000       0.833468        22.6798 
 295   0.0000       0.839043        22.8315 
 296   0.0000       0.842488        22.9253 
 297   0.0000       0.848038        23.0763 
 298   0.0000       0.848345        23.0846 
 299   0.0000       0.857618        23.3370 
 300   0.0000       0.859166        23.3791 
 301   0.0000       0.865383        23.5483 
 302   0.0000       0.868597        23.6357 
 303   0.0000       0.878579        23.9074 
 304   0.0000       0.881353        23.9828 
 305   0.0000       0.888604        24.1801 
 306   0.0000       0.891616        24.2621 
 307   0.0000       0.895674        24.3725 
 308   0.0000       0.898285        24.4436 
 309   0.0000       0.905180        24.6312 
 310   0.0000       0.906308        24.6619 
 311   0.0000       0.910923        24.7875 
 312   0.0000       0.916994        24.9527 
 313   0.0000       0.921915        25.0866 
 314   0.0000       0.923458        25.1286 
 315   0.0000       0.927893        25.2492 
 316   0.0000       0.933005        25.3884 
 317   0.0000       0.936130        25.4734 
 318   0.0000       0.941027        25.6066 
 319   0.0000       0.945124        25.7181 
 320   0.0000       0.946556        25.7571 
 321   0.0000       0.953416        25.9438 
 322   0.0000       0.956089        26.0165 
 323   0.0000       0.957339        26.0505 
 324   0.0000       0.960234        26.1293 
 325   0.0000       0.964551        26.2468 
 326   0.0000       0.969204        26.3734 
 327   0.0000       0.974116        26.5070 
 328   0.0000       0.975437        26.5430 
 329   0.0000       0.980323        26.6759 
 330   0.0000       0.983106        26.7517 
 331   0.0000       0.990695        26.9582 
 332   0.0000       0.994389        27.0587 
 333   0.0000       1.001606        27.2551 
 334   0.0000       1.003011        27.2933 
 335   0.0000       1.008322        27.4378 
 336   0.0000       1.008918        27.4541 
 337   0.0000       1.012402        27.5489 
 338   0.0000       1.016936        27.6722 
 339   0.0000       1.021985        27.8096 
 340   0.0000       1.027708        27.9653 
 341   0.0000       1.030364        28.0376 
 342   0.0000       1.032493        28.0956 
 343   0.0000       1.037948        28.2440 
 344   0.0000       1.041732        28.3470 
 345   0.0000       1.045375        28.4461 
 346   0.0000       1.050666        28.5901 
 347   0.0000       1.054262        28.6879 
 348   0.0000       1.054783        28.7021 
 349   0.0000       1.055549        28.7229 
 350   0.0000       1.059587        28.8328 
 351   0.0000       1.066122        29.0106 
 352   0.0000       1.067975        29.0611 
 353   0.0000       1.069769        29.1099 
 354   0.0000       1.074901        29.2495 
 355   0.0000       1.078373        29.3440 
 356   0.0000       1.083231        29.4762 
 357   0.0000       1.087784        29.6001 
 358   0.0000       1.092872        29.7386 
 359   0.0000       1.093862        29.7655 
 360   0.0000       1.102114        29.9901 
 361   0.0000       1.103227        30.0203 
 362   0.0000       1.109678        30.1959 
 363   0.0000       1.110859        30.2280 
 364   0.0000       1.120022        30.4773 
 365   0.0000       1.122007        30.5314 
 366   0.0000       1.123831        30.5810 
 367   0.0000       1.130314        30.7574 
 368   0.0000       1.134669        30.8759 
 369   0.0000       1.137491        30.9527 
 370   0.0000       1.141073        31.0502 
 371   0.0000       1.147841        31.2343 
 372   0.0000       1.150980        31.3198 
 373   0.0000       1.154174        31.4067 
 374   0.0000       1.159900        31.5625 
 375   0.0000       1.169239        31.8166 
 376   0.0000       1.173102        31.9217 
 377   0.0000       1.173831        31.9416 
 378   0.0000       1.178247        32.0617 
 379   0.0000       1.183615        32.2078 
 380   0.0000       1.189981        32.3810 
 381   0.0000       1.193003        32.4632 
 382   0.0000       1.204473        32.7754 
 383   0.0000       1.209508        32.9124 
 384   0.0000       1.210686        32.9444 
 385   0.0000       1.212607        32.9967 
 386   0.0000       1.220034        33.1988 
 387   0.0000       1.224938        33.3322 
 388   0.0000       1.227452        33.4007 
 389   0.0000       1.232030        33.5252 
 390   0.0000       1.235036        33.6071 
 391   0.0000       1.237680        33.6790 
 392   0.0000       1.244130        33.8545 
 393   0.0000       1.256194        34.1828 
 394   0.0000       1.260706        34.3056 
 395   0.0000       1.263155        34.3722 
 396   0.0000       1.265780        34.4436 
 397   0.0000       1.270350        34.5680 
 398   0.0000       1.273890        34.6643 
 399   0.0000       1.281698        34.8768 
 400   0.0000       1.282944        34.9107 
 401   0.0000       1.284863        34.9629 
 402   0.0000       1.290296        35.1107 
 403   0.0000       1.295464        35.2514 
 404   0.0000       1.302025        35.4299 
 405   0.0000       1.308391        35.6031 
 406   0.0000       1.314427        35.7674 
 407   0.0000       1.319792        35.9134 
 408   0.0000       1.320550        35.9340 
 409   0.0000       1.326626        36.0993 
 410   0.0000       1.333867        36.2964 
 411   0.0000       1.337897        36.4060 
 412   0.0000       1.340356        36.4729 
 413   0.0000       1.346527        36.6408 
 414   0.0000       1.353980        36.8437 
 415   0.0000       1.358207        36.9587 
 416   0.0000       1.362362        37.0718 
 417   0.0000       1.369288        37.2602 
 418   0.0000       1.376566        37.4583 
 419   0.0000       1.378885        37.5214 
 420   0.0000       1.390581        37.8396 
 421   0.0000       1.398583        38.0574 
 422   0.0000       1.400200        38.1014 
 423   0.0000       1.404887        38.2289 
 424   0.0000       1.414310        38.4853 
 425   0.0000       1.420507        38.6540 
 426   0.0000       1.424559        38.7642 
 427   0.0000       1.431007        38.9397 
 428   0.0000       1.432684        38.9853 
 429   0.0000       1.440873        39.2082 
 430   0.0000       1.443635        39.2833 
 431   0.0000       1.448946        39.4278 
 432   0.0000       1.453822        39.5605 
 433   0.0000       1.459639        39.7188 
 434   0.0000       1.464486        39.8507 
 435   0.0000       1.470902        40.0253 
 436   0.0000       1.472703        40.0743 
 437   0.0000       1.481310        40.3085 
 438   0.0000       1.484121        40.3850 
 439   0.0000       1.492829        40.6219 
 440   0.0000       1.496910        40.7330 
 441   0.0000       1.501230        40.8506 
 442   0.0000       1.512325        41.1525 
 443   0.0000       1.515425        41.2368 
 444   0.0000       1.520284        41.3690 
 445   0.0000       1.522244        41.4224 
 446   0.0000       1.528897        41.6034 
 447   0.0000       1.532914        41.7127 
 448   0.0000       1.540253        41.9124 
 449   0.0000       1.545903        42.0662 
 450   0.0000       1.548903        42.1478 
 451   0.0000       1.552306        42.2404 
 452   0.0000       1.556249        42.3477 
 453   0.0000       1.560626        42.4668 
 454   0.0000       1.562901        42.5287 
 455   0.0000       1.572994        42.8033 
 456   0.0000       1.580054        42.9955 
 457   0.0000       1.581547        43.0361 
 458   0.0000       1.582614        43.0651 
 459   0.0000       1.586682        43.1758 
 460   0.0000       1.596513        43.4433 
 461   0.0000       1.598428        43.4955 
 462   0.0000       1.604360        43.6569 
 463   0.0000       1.609641        43.8006 
 464   0.0000       1.620745        44.1027 
 465   0.0000       1.625135        44.2222 
 466   0.0000       1.626616        44.2625 
 467   0.0000       1.637133        44.5486 
 468   0.0000       1.641644        44.6714 
 469   0.0000       1.644596        44.7517 
 470   0.0000       1.649451        44.8838 
 471   0.0000       1.650256        44.9057 
 472   0.0000       1.661455        45.2105 
 473   0.0000       1.665554        45.3220 
 474   0.0000       1.670175        45.4478 
 475   0.0000       1.676227        45.6125 
 476   0.0000       1.678075        45.6627 
 477   0.0000       1.689048        45.9613 
 478   0.0000       1.691263        46.0216 
 479   0.0000       1.696082        46.1527 
 480   0.0000       1.700487        46.2726 
 481   0.0000       1.706114        46.4257 
 482   0.0000       1.715814        46.6897 
 483   0.0000       1.719057        46.7779 
 484   0.0000       1.727087        46.9964 
 485   0.0000       1.733512        47.1713 
 486   0.0000       1.735887        47.2359 
 487   0.0000       1.743353        47.4390 
 488   0.0000       1.752493        47.6878 
 489   0.0000       1.754521        47.7429 
 490   0.0000       1.758929        47.8629 
 491   0.0000       1.762200        47.9519 
 492   0.0000       1.767415        48.0938 
 493   0.0000       1.771625        48.2084 
 494   0.0000       1.779266        48.4163 
 495   0.0000       1.780055        48.4378 
 496   0.0000       1.790660        48.7263 
 497   0.0000       1.799900        48.9778 
 498   0.0000       1.804622        49.1062 
 499   0.0000       1.811944        49.3055 
 500   0.0000       1.814935        49.3869 
 501   0.0000       1.818190        49.4755 
 502   0.0000       1.825599        49.6771 
 503   0.0000       1.826716        49.7075 
 504   0.0000       1.833712        49.8978 
 505   0.0000       1.836933        49.9855 
 506   0.0000       1.842434        50.1352 
 507   0.0000       1.849344        50.3232 
 508   0.0000       1.859641        50.6034 
 509   0.0000       1.860762        50.6339 
 510   0.0000       1.864411        50.7332 
 511   0.0000       1.871156        50.9168 
 512   0.0000       1.879654        51.1480 
 513   0.0000       1.882347        51.2213 
 514   0.0000       1.885263        51.3006 
 515   0.0000       1.888958        51.4012 
 516   0.0000       1.896802        51.6146 
 517   0.0000       1.898282        51.6549 
 518   0.0000       1.907216        51.8980 
 519   0.0000       1.914388        52.0931 
 520   0.0000       1.923135        52.3312 
 521   0.0000       1.926279        52.4167 
 522   0.0000       1.929310        52.4992 
 523   0.0000       1.930729        52.5378 
 524   0.0000       1.938973        52.7621 
 525   0.0000       1.944909        52.9237 
 526   0.0000       1.952323        53.1254 
 527   0.0000       1.956038        53.2265 
 528   0.0000       1.958450        53.2921 
 529   0.0000       1.966760        53.5183 
 530   0.0000       1.975095        53.7451 
 531   0.0000       1.978469        53.8369 
 532   0.0000       1.981138        53.9095 
 533   0.0000       1.985240        54.0211 
 534   0.0000       1.993514        54.2463 
 535   0.0000       1.996932        54.3393 
 536   0.0000       2.006457        54.5985 
 537   0.0000       2.007615        54.6300 
 538   0.0000       2.012999        54.7765 
 539   0.0000       2.017257        54.8924 
 540   0.0000       2.029166        55.2164 
 541   0.0000       2.032458        55.3060 
 542   0.0000       2.042308        55.5740 
 543   0.0000       2.046858        55.6978 
 544   0.0000       2.057908        55.9985 
 545   0.0000       2.065559        56.2067 
 546   0.0000       2.070229        56.3338 
 547   0.0000       2.079860        56.5959 
 548   0.0000       2.087153        56.7943 
 549   0.0000       2.091275        56.9065 
 550   0.0000       2.103946        57.2513 
 551   0.0000       2.106501        57.3208 
 552   0.0000       2.113679        57.5161 
 553   0.0000       2.120519        57.7023 
 554   0.0000       2.124998        57.8241 
 555   0.0000       2.127487        57.8919 
 556   0.0000       2.134962        58.0953 
 557   0.0000       2.139905        58.2298 
 558   0.0000       2.153314        58.5946 
 559   0.0000       2.161027        58.8045 
 560   0.0000       2.170040        59.0498 
 561   0.0000       2.173443        59.1424 
 562   0.0000       2.178519        59.2805 
 563   0.0000       2.185406        59.4679 
 564   0.0000       2.188300        59.5467 
 565   0.0000       2.201456        59.9047 
 566   0.0000       2.206466        60.0410 
 567   0.0000       2.212571        60.2071 
 568   0.0000       2.226007        60.5727 
 569   0.0000       2.233139        60.7668 
 570   0.0000       2.234251        60.7971 
 571   0.0000       2.240680        60.9720 
 572   0.0000       2.249325        61.2072 
 573   0.0000       2.255379        61.3720 
 574   0.0000       2.265452        61.6461 
 575   0.0000       2.271760        61.8177 
 576   0.0000       2.274025        61.8794 
 577   0.0000       2.285692        62.1969 
 578   0.0000       2.292043        62.3697 
 579   0.0000       2.293169        62.4003 
 580   0.0000       2.307693        62.7955 
 581   0.0000       2.320591        63.1465 
 582   0.0000       2.335661        63.5566 
 583   0.0000       2.337068        63.5948 
 584   0.0000       2.343842        63.7792 
 585   0.0000       2.355595        64.0990 
 586   0.0000       2.360332        64.2279 
 587   0.0000       2.364925        64.3529 
 588   0.0000       2.370614        64.5077 
 589   0.0000       2.379591        64.7520 
 590   0.0000       2.383524        64.8590 
 591   0.0000       2.392740        65.1098 
 592   0.0000       2.393633        65.1341 
 593   0.0000       2.399907        65.3048 
 594   0.0000       2.405224        65.4495 
 595   0.0000       2.411962        65.6328 
 596   0.0000       2.425099        65.9903 
 597   0.0000       2.434597        66.2488 
 598   0.0000       2.446956        66.5851 
 599   0.0000       2.457614        66.8751 
 600   0.0000       2.460867        66.9636 
 601   0.0000       2.468852        67.1809 
 602   0.0000       2.474446        67.3331 
 603   0.0000       2.480029        67.4850 
 604   0.0000       2.495015        67.8928 
 605   0.0000       2.507788        68.2404 
 606   0.0000       2.512630        68.3721 
 607   0.0000       2.523770        68.6753 
 608   0.0000       2.533867        68.9500 
 609   0.0000       2.551267        69.4235 
 610   0.0000       2.554352        69.5075 
 611   0.0000       2.566783        69.8457 
 612   0.0000       2.574786        70.0635 
 613   0.0000       2.591648        70.5223 
 614   0.0000       2.600721        70.7692 
 615   0.0000       2.609970        71.0209 
 616   0.0000       2.626330        71.4661 
 617   0.0000       2.635209        71.7077 
 618   0.0000       2.648969        72.0821 
 619   0.0000       2.658407        72.3389 
 620   0.0000       2.663922        72.4890 
 621   0.0000       2.676795        72.8393 
 622   0.0000       2.679379        72.9096 
 623   0.0000       2.698105        73.4192 
 624   0.0000       2.702738        73.5452 
 625   0.0000       2.704669        73.5978 
 626   0.0000       2.709836        73.7384 
 627   0.0000       2.723134        74.1002 
 628   0.0000       2.730604        74.3035 
 629   0.0000       2.741251        74.5932 
 630   0.0000       2.758929        75.0743 
 631   0.0000       2.763035        75.1860 
 632   0.0000       2.765164        75.2439 
 633   0.0000       2.777542        75.5808 
 634   0.0000       2.800463        76.2045 
 635   0.0000       2.802502        76.2600 
 636   0.0000       2.815506        76.6138 
 637   0.0000       2.822644        76.8080 
 638   0.0000       2.841806        77.3295 
 639   0.0000       2.860510        77.8384 
 640   0.0000       2.874425        78.2171 
 641   0.0000       2.877594        78.3033 
 642   0.0000       2.898834        78.8813 
 643   0.0000       2.909780        79.1791 
 644   0.0000       2.917854        79.3988 
 645   0.0000       2.930381        79.7397 
 646   0.0000       2.937979        79.9465 
 647   0.0000       2.940883        80.0255 
 648   0.0000       2.955525        80.4239 
 649   0.0000       2.980549        81.1049 
 650   0.0000       2.992830        81.4390 
 651   0.0000       3.009614        81.8957 
 652   0.0000       3.042444        82.7891 
 653   0.0000       3.061759        83.3147 
 654   0.0000       3.069278        83.5193 
 655   0.0000       3.088201        84.0342 
 656   0.0000       3.098892        84.3251 
 657   0.0000       3.115797        84.7851 
 658   0.0000       3.129126        85.1479 
 659   0.0000       3.148270        85.6688 
 660   0.0000       3.158066        85.9353 
 661   0.0000       3.169513        86.2468 
 662   0.0000       3.177242        86.4572 
 663   0.0000       3.192917        86.8837 
 664   0.0000       3.195000        86.9404 
 665   0.0000       3.205965        87.2387 
 666   0.0000       3.219872        87.6172 
 667   0.0000       3.231229        87.9262 
 668   0.0000       3.240462        88.1775 
 669   0.0000       3.248578        88.3983 
 670   0.0000       3.255540        88.5877 
 671   0.0000       3.260152        88.7133 
 672   0.0000       3.276278        89.1521 
 673   0.0000       3.278876        89.2228 
 674   0.0000       3.299361        89.7802 
 675   0.0000       3.305766        89.9545 
 676   0.0000       3.317538        90.2748 
 677   0.0000       3.322688        90.4149 
 678   0.0000       3.334934        90.7482 
 679   0.0000       3.341165        90.9177 
 680   0.0000       3.349944        91.1566 
 681   0.0000       3.359341        91.4123 
 682   0.0000       3.363630        91.5290 
 683   0.0000       3.365542        91.5811 
 684   0.0000       3.367325        91.6296 
 685   0.0000       3.389984        92.2462 
 686   0.0000       3.400980        92.5454 
 687   0.0000       3.406723        92.7016 
 688   0.0000       3.414507        92.9135 
 689   0.0000       3.439611        93.5966 
 690   0.0000       3.446456        93.7828 
 691   0.0000       3.451847        93.9295 
 692   0.0000       3.462737        94.2259 
 693   0.0000       3.467073        94.3439 
 694   0.0000       3.476791        94.6083 
 695   0.0000       3.491578        95.0107 
 696   0.0000       3.493561        95.0646 
 697   0.0000       3.496105        95.1338 
 698   0.0000       3.512290        95.5743 
 699   0.0000       3.513725        95.6133 
 700   0.0000       3.525373        95.9303 
 701   0.0000       3.529257        96.0360 
 702   0.0000       3.540335        96.3374 
 703   0.0000       3.552896        96.6792 
 704   0.0000       3.555172        96.7412 
 705   0.0000       3.573367        97.2363 
 706   0.0000       3.578407        97.3734 
 707   0.0000       3.586615        97.5967 
 708   0.0000       3.589862        97.6851 
 709   0.0000       3.593435        97.7823 
 710   0.0000       3.604917        98.0948 
 711   0.0000       3.623646        98.6044 
 712   0.0000       3.628343        98.7322 
 713   0.0000       3.640881        99.0734 
 714   0.0000       3.642872        99.1276 
 715   0.0000       3.650859        99.3449 
 716   0.0000       3.665301        99.7379 
 717   0.0000       3.672426        99.9318 
 718   0.0000       3.674204        99.9802 
 719   0.0000       3.683527       100.2339 
 720   0.0000       3.699027       100.6556 
 721   0.0000       3.704317       100.7996 
 722   0.0000       3.711551       100.9964 
 723   0.0000       3.712732       101.0286 
 724   0.0000       3.732419       101.5643 
 725   0.0000       3.735516       101.6486 
 726   0.0000       3.745119       101.9099 
 727   0.0000       3.755061       102.1804 
 728   0.0000       3.765252       102.4577 
 729   0.0000       3.768798       102.5542 
 730   0.0000       3.775847       102.7460 
 731   0.0000       3.780813       102.8812 
 732   0.0000       3.786170       103.0269 
 733   0.0000       3.792051       103.1870 
 734   0.0000       3.802819       103.4800 
 735   0.0000       3.807671       103.6120 
 736   0.0000       3.821685       103.9933 
 737   0.0000       3.823467       104.0418 
 738   0.0000       3.828480       104.1782 
 739   0.0000       3.838810       104.4593 
 740   0.0000       3.845890       104.6520 
 741   0.0000       3.852615       104.8350 
 742   0.0000       3.858648       104.9991 
 743   0.0000       3.869922       105.3059 
 744   0.0000       3.883893       105.6861 
 745   0.0000       3.886890       105.7676 
 746   0.0000       3.891334       105.8886 
 747   0.0000       3.894779       105.9823 
 748   0.0000       3.900876       106.1482 
 749   0.0000       3.904145       106.2372 
 750   0.0000       3.914887       106.5295 
 751   0.0000       3.925915       106.8296 
 752   0.0000       3.927690       106.8779 
 753   0.0000       3.937256       107.1382 
 754   0.0000       3.940649       107.2305 
 755   0.0000       3.943343       107.3038 
 756   0.0000       3.951604       107.5286 
 757   0.0000       3.962571       107.8270 
 758   0.0000       3.968545       107.9896 
 759   0.0000       3.980576       108.3170 
 760   0.0000       3.985746       108.4577 
 761   0.0000       3.992106       108.6307 
 762   0.0000       3.994233       108.6886 
 763   0.0000       4.004082       108.9566 
 764   0.0000       4.008453       109.0755 
 765   0.0000       4.012207       109.1777 
 766   0.0000       4.023136       109.4751 
 767   0.0000       4.036432       109.8369 
 768   0.0000       4.040135       109.9377 
 769   0.0000       4.044634       110.0601 
 770   0.0000       4.057735       110.4166 
 771   0.0000       4.065539       110.6289 
 772   0.0000       4.073293       110.8399 
 773   0.0000       4.081731       111.0695 
 774   0.0000       4.084468       111.1440 
 775   0.0000       4.088756       111.2607 
 776   0.0000       4.101197       111.5993 
 777   0.0000       4.111012       111.8663 
 778   0.0000       4.118749       112.0768 
 779   0.0000       4.124054       112.2212 
 780   0.0000       4.127006       112.3015 
 781   0.0000       4.135828       112.5416 
 782   0.0000       4.141391       112.6930 
 783   0.0000       4.151689       112.9732 
 784   0.0000       4.153344       113.0182 
 785   0.0000       4.177671       113.6802 
 786   0.0000       4.183479       113.8383 
 787   0.0000       4.186491       113.9202 
 788   0.0000       4.204830       114.4193 
 789   0.0000       4.211884       114.6112 
 790   0.0000       4.225250       114.9749 
 791   0.0000       4.233391       115.1964 
 792   0.0000       4.243162       115.4623 
 793   0.0000       4.248013       115.5943 
 794   0.0000       4.252680       115.7213 
 795   0.0000       4.263651       116.0198 
 796   0.0000       4.266213       116.0895 
 797   0.0000       4.275643       116.3462 
 798   0.0000       4.281801       116.5137 
 799   0.0000       4.288937       116.7079 
 800   0.0000       4.297954       116.9533 
 801   0.0000       4.309477       117.2668 
 802   0.0000       4.323778       117.6560 
 803   0.0000       4.332273       117.8871 
 804   0.0000       4.335669       117.9795 
 805   0.0000       4.349395       118.3531 
 806   0.0000       4.356205       118.5384 
 807   0.0000       4.371601       118.9573 
 808   0.0000       4.375678       119.0682 
 809   0.0000       4.388685       119.4222 
 810   0.0000       4.391695       119.5041 
 811   0.0000       4.403350       119.8212 
 812   0.0000       4.405737       119.8862 
 813   0.0000       4.426268       120.4449 
 814   0.0000       4.435526       120.6968 
 815   0.0000       4.444466       120.9401 
 816   0.0000       4.449781       121.0847 
 817   0.0000       4.458077       121.3104 
 818   0.0000       4.464181       121.4765 
 819   0.0000       4.481354       121.9438 
 820   0.0000       4.487544       122.1123 
 821   0.0000       4.489400       122.1628 
 822   0.0000       4.498788       122.4183 
 823   0.0000       4.508074       122.6709 
 824   0.0000       4.519292       122.9762 
 825   0.0000       4.525428       123.1432 
 826   0.0000       4.539786       123.5338 
 827   0.0000       4.545234       123.6821 
 828   0.0000       4.554723       123.9403 
 829   0.0000       4.565736       124.2400 
 830   0.0000       4.584991       124.7639 
 831   0.0000       4.594245       125.0158 
 832   0.0000       4.605058       125.3100 
 833   0.0000       4.620357       125.7263 
 834   0.0000       4.626918       125.9048 
 835   0.0000       4.634712       126.1169 
 836   0.0000       4.657095       126.7260 
 837   0.0000       4.668190       127.0279 
 838   0.0000       4.684625       127.4751 
 839   0.0000       4.692384       127.6863 
 840   0.0000       4.697307       127.8202 
 841   0.0000       4.705716       128.0490 
 842   0.0000       4.714466       128.2872 
 843   0.0000       4.716859       128.3523 
 844   0.0000       4.732937       128.7898 
 845   0.0000       4.744272       129.0982 
 846   0.0000       4.755436       129.4020 
 847   0.0000       4.760091       129.5287 
 848   0.0000       4.777234       129.9952 
 849   0.0000       4.801506       130.6556 
 850   0.0000       4.805634       130.7680 
 851   0.0000       4.818048       131.1058 
 852   0.0000       4.837862       131.6449 
 853   0.0000       4.840733       131.7230 
 854   0.0000       4.855347       132.1207 
 855   0.0000       4.860712       132.2667 
 856   0.0000       4.866059       132.4122 
 857   0.0000       4.874450       132.6405 
 858   0.0000       4.896099       133.2296 
 859   0.0000       4.904314       133.4532 
 860   0.0000       4.915651       133.7617 
 861   0.0000       4.927868       134.0941 
 862   0.0000       4.937194       134.3479 
 863   0.0000       4.949423       134.6806 
 864   0.0000       4.953633       134.7952 
 865   0.0000       4.976684       135.4225 
 866   0.0000       4.988361       135.7402 
 867   0.0000       4.996082       135.9503 
 868   0.0000       5.006139       136.2240 
 869   0.0000       5.018628       136.5638 
 870   0.0000       5.021646       136.6459 
 871   0.0000       5.029281       136.8537 
 872   0.0000       5.033575       136.9705 
 873   0.0000       5.046105       137.3115 
 874   0.0000       5.069311       137.9430 
 875   0.0000       5.084594       138.3588 
 876   0.0000       5.095257       138.6490 
 877   0.0000       5.112848       139.1277 
 878   0.0000       5.126142       139.4894 
 879   0.0000       5.135742       139.7506 
 880   0.0000       5.147985       140.0838 
 881   0.0000       5.160661       140.4287 
 882   0.0000       5.164370       140.5296 
 883   0.0000       5.184758       141.0844 
 884   0.0000       5.190020       141.2276 
 885   0.0000       5.206752       141.6829 
 886   0.0000       5.222731       142.1177 
 887   0.0000       5.228485       142.2743 
 888   0.0000       5.247249       142.7849 
 889   0.0000       5.254433       142.9804 
 890   0.0000       5.266945       143.3209 
 891   0.0000       5.279476       143.6618 
 892   0.0000       5.290246       143.9549 
 893   0.0000       5.319952       144.7632 
 894   0.0000       5.327569       144.9705 
 895   0.0000       5.334229       145.1517 
 896   0.0000       5.357575       145.7870 
 897   0.0000       5.363882       145.9586 
 898   0.0000       5.371692       146.1712 
 899   0.0000       5.388807       146.6369 
 900   0.0000       5.404135       147.0540 
 901   0.0000       5.411229       147.2470 
 902   0.0000       5.423260       147.5744 
 903   0.0000       5.428834       147.7261 
 904   0.0000       5.446556       148.2083 
 905   0.0000       5.457084       148.4948 
 906   0.0000       5.463508       148.6696 
 907   0.0000       5.470577       148.8620 
 908   0.0000       5.484964       149.2535 
 909   0.0000       5.501475       149.7027 
 910   0.0000       5.508594       149.8965 
 911   0.0000       5.519325       150.1885 
 912   0.0000       5.535484       150.6282 
 913   0.0000       5.555183       151.1642 
 914   0.0000       5.563785       151.3983 
 915   0.0000       5.570542       151.5822 
 916   0.0000       5.582669       151.9122 
 917   0.0000       5.598560       152.3446 
 918   0.0000       5.612807       152.7322 
 919   0.0000       5.616460       152.8316 
 920   0.0000       5.620564       152.9433 
 921   0.0000       5.642018       153.5271 
 922   0.0000       5.649935       153.7425 
 923   0.0000       5.676004       154.4519 
 924   0.0000       5.678485       154.5194 
 925   0.0000       5.680773       154.5817 
 926   0.0000       5.707631       155.3125 
 927   0.0000       5.719339       155.6311 
 928   0.0000       5.722608       155.7201 
 929   0.0000       5.728440       155.8788 
 930   0.0000       5.732529       155.9900 
 931   0.0000       5.755762       156.6222 
 932   0.0000       5.768959       156.9813 
 933   0.0000       5.777192       157.2054 
 934   0.0000       5.793850       157.6587 
 935   0.0000       5.802847       157.9035 
 936   0.0000       5.808263       158.0509 
 937   0.0000       5.820011       158.3705 
 938   0.0000       5.837350       158.8424 
 939   0.0000       5.850784       159.2079 
 940   0.0000       5.882364       160.0672 
 941   0.0000       5.889388       160.2584 
 942   0.0000       5.903724       160.6485 
 943   0.0000       5.913447       160.9131 
 944   0.0000       5.932453       161.4303 
 945   0.0000       5.964627       162.3058 
 946   0.0000       6.044922       164.4907 
 947   0.0000       6.090248       165.7241 
 948   0.0000       6.096509       165.8944 
 949   0.0000       6.111322       166.2975 
 950   0.0000       6.138088       167.0259 
 951   0.0000       6.149048       167.3241 
 952   0.0000       6.195801       168.5963 
 953   0.0000       6.202205       168.7706 
 954   0.0000       6.209310       168.9639 
 955   0.0000       6.220351       169.2643 
 956   0.0000       6.243731       169.9006 
 957   0.0000       6.258567       170.3043 
 958   0.0000       6.281071       170.9166 
 959   0.0000       6.300675       171.4501 
 960   0.0000       6.327528       172.1808 
 961   0.0000       6.333884       172.3538 
 962   0.0000       6.338454       172.4781 
 963   0.0000       6.377398       173.5378 
 964   0.0000       6.403267       174.2418 
 965   0.0000       6.410950       174.4508 
 966   0.0000       6.429465       174.9546 
 967   0.0000       6.461733       175.8327 
 968   0.0000       6.481474       176.3699 
 969   0.0000       6.502321       176.9372 
 970   0.0000       6.651466       180.9956 
 971   0.0000       6.733195       183.2196 
 972   0.0000       6.823564       185.6786 
 973   0.0000       6.866970       186.8598 
 974   0.0000       6.893996       187.5952 
 975   0.0000       6.923933       188.4098 
 976   0.0000       6.935456       188.7233 
 977   0.0000       6.949954       189.1179 
 978   0.0000       6.978464       189.8937 
 979   0.0000       6.989636       190.1977 
 980   0.0000       6.996160       190.3752 
 981   0.0000       7.045610       191.7208 
 982   0.0000       7.086418       192.8312 
 983   0.0000       7.101546       193.2429 
 984   0.0000       7.135260       194.1603 
 985   0.0000       7.189119       195.6259 
 986   0.0000       7.319636       199.1774 
 987   0.0000       7.363586       200.3734 
 988   0.0000       7.481885       203.5924 
 989   0.0000       7.560673       205.7364 
 990   0.0000       7.573296       206.0798 
 991   0.0000       7.706253       209.6978 
 992   0.0000       7.721320       210.1078 
 993   0.0000       7.791093       212.0064 
 994   0.0000       7.851275       213.6440 
 995   0.0000       7.876456       214.3293 
 996   0.0000       8.077536       219.8009 
 997   0.0000       8.137159       221.4233 
 998   0.0000       8.421799       229.1688 
 999   0.0000       9.443938       256.9826 
 1000   0.0000       9.456265       257.3181 
 1001   0.0000       9.490831       258.2586 
 1002   0.0000       9.501946       258.5611 
 1003   0.0000       9.503886       258.6139 
 1004   0.0000       9.547428       259.7987 
 1005   0.0000       9.811347       266.9803 
 1006   0.0000      10.112128       275.1650 
 1007   0.0000      10.140095       275.9260 
 1008   0.0000      10.158322       276.4220 
 1009   0.0000      10.221213       278.1334 
 1010   0.0000      10.238195       278.5954 
 1011   0.0000      10.256035       279.0809 
 1012   0.0000      10.430048       283.8160 
 1013   0.0000      10.455035       284.4960 
 1014   0.0000      10.606172       288.6086 
 1015   0.0000      15.890369       432.3989 
 1016   0.0000      17.890423       486.8232 
 1017   0.0000      18.175289       494.5747 
 1018   0.0000      18.527357       504.1550 
 1019   0.0000      18.818404       512.0748 
 1020   0.0000      19.044358       518.2233 
 1021   0.0000      19.153446       521.1918 
 1022   0.0000      19.931056       542.3516 
 1023   0.0000      20.268204       551.5259 
 1024   0.0000      21.849587       594.5575 

                 SPIN DOWN ORBITALS
  NO   OCC          E(Eh)            E(eV) 
   0   1.0000    -261.537669     -7116.8018 
   1   1.0000    -104.771911     -2850.9886 
   2   1.0000    -104.768035     -2850.8832 
   3   1.0000    -104.764216     -2850.7792 
   4   1.0000     -32.047043      -872.0444 
   5   1.0000     -27.525223      -748.9994 
   6   1.0000     -27.524993      -748.9931 
   7   1.0000     -27.524341      -748.9754 
   8   1.0000     -20.527614      -558.5848 
   9   1.0000     -11.410454      -310.4943 
  10   1.0000     -11.344768      -308.7068 
  11   1.0000     -11.297887      -307.4311 
  12   1.0000     -11.291745      -307.2640 
  13   1.0000     -11.281660      -306.9896 
  14   1.0000     -11.257719      -306.3381 
  15   1.0000     -11.240245      -305.8626 
  16   1.0000     -11.230937      -305.6093 
  17   1.0000     -10.498356      -285.6748 
  18   1.0000     -10.494444      -285.5683 
  19   1.0000     -10.490657      -285.4653 
  20   1.0000      -7.964161      -216.7158 
  21   1.0000      -7.963834      -216.7069 
  22   1.0000      -7.963753      -216.7047 
  23   1.0000      -7.960394      -216.6133 
  24   1.0000      -7.959842      -216.5983 
  25   1.0000      -7.959742      -216.5956 
  26   1.0000      -7.956660      -216.5117 
  27   1.0000      -7.955891      -216.4908 
  28   1.0000      -7.955818      -216.4888 
  29   1.0000      -4.122406      -112.1764 
  30   1.0000      -2.644434       -71.9587 
  31   1.0000      -2.644151       -71.9510 
  32   1.0000      -2.643412       -71.9309 
  33   1.0000      -1.341280       -36.4981 
  34   1.0000      -1.198446       -32.6114 
  35   1.0000      -1.088561       -29.6213 
  36   1.0000      -1.042309       -28.3627 
  37   1.0000      -1.028343       -27.9826 
  38   1.0000      -1.019972       -27.7549 
  39   1.0000      -1.017002       -27.6740 
  40   1.0000      -1.012542       -27.5527 
  41   1.0000      -0.965360       -26.2688 
  42   1.0000      -0.932920       -25.3860 
  43   1.0000      -0.804797       -21.8996 
  44   1.0000      -0.770547       -20.9677 
  45   1.0000      -0.714141       -19.4328 
  46   1.0000      -0.692092       -18.8328 
  47   1.0000      -0.680907       -18.5284 
  48   1.0000      -0.644130       -17.5277 
  49   1.0000      -0.638373       -17.3710 
  50   1.0000      -0.625796       -17.0288 
  51   1.0000      -0.608259       -16.5516 
  52   1.0000      -0.601744       -16.3743 
  53   1.0000      -0.591475       -16.0949 
  54   1.0000      -0.587512       -15.9870 
  55   1.0000      -0.573882       -15.6161 
  56   1.0000      -0.556032       -15.1304 
  57   1.0000      -0.552945       -15.0464 
  58   1.0000      -0.537389       -14.6231 
  59   1.0000      -0.523411       -14.2427 
  60   1.0000      -0.521931       -14.2025 
  61   1.0000      -0.496450       -13.5091 
  62   1.0000      -0.464991       -12.6531 
  63   1.0000      -0.460500       -12.5308 
  64   1.0000      -0.448767       -12.2116 
  65   1.0000      -0.436352       -11.8737 
  66   1.0000      -0.432272       -11.7627 
  67   1.0000      -0.427499       -11.6328 
  68   1.0000      -0.426362       -11.6019 
  69   1.0000      -0.406439       -11.0598 
  70   1.0000      -0.396960       -10.8018 
  71   1.0000      -0.395021       -10.7491 
  72   0.0000       0.000110         0.0030 
  73   0.0000       0.004252         0.1157 
  74   0.0000       0.018543         0.5046 
  75   0.0000       0.019141         0.5209 
  76   0.0000       0.030039         0.8174 
  77   0.0000       0.036927         1.0048 
  78   0.0000       0.038239         1.0405 
  79   0.0000       0.043985         1.1969 
  80   0.0000       0.045254         1.2314 
  81   0.0000       0.047573         1.2945 
  82   0.0000       0.056858         1.5472 
  83   0.0000       0.058896         1.6026 
  84   0.0000       0.061558         1.6751 
  85   0.0000       0.065172         1.7734 
  86   0.0000       0.065815         1.7909 
  87   0.0000       0.069569         1.8931 
  88   0.0000       0.073467         1.9992 
  89   0.0000       0.076241         2.0746 
  90   0.0000       0.087609         2.3840 
  91   0.0000       0.088958         2.4207 
  92   0.0000       0.093981         2.5573 
  93   0.0000       0.094899         2.5823 
  94   0.0000       0.098321         2.6755 
  95   0.0000       0.098975         2.6933 
  96   0.0000       0.109867         2.9896 
  97   0.0000       0.113230         3.0812 
  98   0.0000       0.118999         3.2381 
  99   0.0000       0.120965         3.2916 
 100   0.0000       0.125518         3.4155 
 101   0.0000       0.125844         3.4244 
 102   0.0000       0.128175         3.4878 
 103   0.0000       0.130237         3.5439 
 104   0.0000       0.132399         3.6028 
 105   0.0000       0.132933         3.6173 
 106   0.0000       0.133793         3.6407 
 107   0.0000       0.136928         3.7260 
 108   0.0000       0.140583         3.8255 
 109   0.0000       0.140969         3.8360 
 110   0.0000       0.143408         3.9023 
 111   0.0000       0.145340         3.9549 
 112   0.0000       0.150129         4.0852 
 113   0.0000       0.152206         4.1417 
 114   0.0000       0.152491         4.1495 
 115   0.0000       0.157027         4.2729 
 116   0.0000       0.159299         4.3347 
 117   0.0000       0.165445         4.5020 
 118   0.0000       0.167591         4.5604 
 119   0.0000       0.167859         4.5677 
 120   0.0000       0.170073         4.6279 
 121   0.0000       0.173976         4.7341 
 122   0.0000       0.174305         4.7431 
 123   0.0000       0.178508         4.8574 
 124   0.0000       0.185212         5.0399 
 125   0.0000       0.189298         5.1511 
 126   0.0000       0.190839         5.1930 
 127   0.0000       0.197123         5.3640 
 128   0.0000       0.197984         5.3874 
 129   0.0000       0.201971         5.4959 
 130   0.0000       0.205688         5.5970 
 131   0.0000       0.210452         5.7267 
 132   0.0000       0.211153         5.7458 
 133   0.0000       0.216842         5.9006 
 134   0.0000       0.219767         5.9802 
 135   0.0000       0.225200         6.1280 
 136   0.0000       0.227941         6.2026 
 137   0.0000       0.231390         6.2964 
 138   0.0000       0.232419         6.3245 
 139   0.0000       0.233504         6.3540 
 140   0.0000       0.237407         6.4602 
 141   0.0000       0.243495         6.6258 
 142   0.0000       0.245892         6.6911 
 143   0.0000       0.249045         6.7768 
 144   0.0000       0.252307         6.8656 
 145   0.0000       0.253060         6.8861 
 146   0.0000       0.257355         7.0030 
 147   0.0000       0.262784         7.1507 
 148   0.0000       0.264605         7.2003 
 149   0.0000       0.269744         7.3401 
 150   0.0000       0.276046         7.5116 
 151   0.0000       0.278264         7.5720 
 152   0.0000       0.284420         7.7395 
 153   0.0000       0.286116         7.7856 
 154   0.0000       0.291183         7.9235 
 155   0.0000       0.295109         8.0303 
 156   0.0000       0.299500         8.1498 
 157   0.0000       0.300632         8.1806 
 158   0.0000       0.305244         8.3061 
 159   0.0000       0.308381         8.3915 
 160   0.0000       0.310410         8.4467 
 161   0.0000       0.317035         8.6270 
 162   0.0000       0.324207         8.8221 
 163   0.0000       0.329027         8.9533 
 164   0.0000       0.332372         9.0443 
 165   0.0000       0.334914         9.1135 
 166   0.0000       0.336586         9.1590 
 167   0.0000       0.340352         9.2614 
 168   0.0000       0.342779         9.3275 
 169   0.0000       0.345771         9.4089 
 170   0.0000       0.350921         9.5490 
 171   0.0000       0.355113         9.6631 
 172   0.0000       0.357239         9.7210 
 173   0.0000       0.361393         9.8340 
 174   0.0000       0.366091         9.9618 
 175   0.0000       0.370316        10.0768 
 176   0.0000       0.371074        10.0974 
 177   0.0000       0.374753        10.1976 
 178   0.0000       0.381155        10.3718 
 179   0.0000       0.383720        10.4415 
 180   0.0000       0.386194        10.5089 
 181   0.0000       0.388982        10.5847 
 182   0.0000       0.393309        10.7025 
 183   0.0000       0.395164        10.7529 
 184   0.0000       0.398731        10.8500 
 185   0.0000       0.400972        10.9110 
 186   0.0000       0.403994        10.9932 
 187   0.0000       0.405684        11.0392 
 188   0.0000       0.407042        11.0762 
 189   0.0000       0.415703        11.3119 
 190   0.0000       0.419045        11.4028 
 191   0.0000       0.420505        11.4425 
 192   0.0000       0.427891        11.6435 
 193   0.0000       0.428201        11.6519 
 194   0.0000       0.432156        11.7596 
 195   0.0000       0.434880        11.8337 
 196   0.0000       0.441158        12.0045 
 197   0.0000       0.444633        12.0991 
 198   0.0000       0.446045        12.1375 
 199   0.0000       0.450279        12.2527 
 200   0.0000       0.454484        12.3671 
 201   0.0000       0.457990        12.4625 
 202   0.0000       0.464857        12.6494 
 203   0.0000       0.465738        12.6734 
 204   0.0000       0.471678        12.8350 
 205   0.0000       0.472756        12.8643 
 206   0.0000       0.478799        13.0288 
 207   0.0000       0.479555        13.0494 
 208   0.0000       0.481848        13.1118 
 209   0.0000       0.485349        13.2070 
 210   0.0000       0.487208        13.2576 
 211   0.0000       0.492319        13.3967 
 212   0.0000       0.493366        13.4252 
 213   0.0000       0.496698        13.5158 
 214   0.0000       0.497969        13.5504 
 215   0.0000       0.498516        13.5653 
 216   0.0000       0.503888        13.7115 
 217   0.0000       0.505441        13.7537 
 218   0.0000       0.509831        13.8732 
 219   0.0000       0.515330        14.0229 
 220   0.0000       0.516517        14.0551 
 221   0.0000       0.524028        14.2595 
 222   0.0000       0.527582        14.3562 
 223   0.0000       0.529918        14.4198 
 224   0.0000       0.531613        14.4659 
 225   0.0000       0.534962        14.5571 
 226   0.0000       0.543352        14.7854 
 227   0.0000       0.545347        14.8396 
 228   0.0000       0.549054        14.9405 
 229   0.0000       0.551834        15.0162 
 230   0.0000       0.555069        15.1042 
 231   0.0000       0.559514        15.2252 
 232   0.0000       0.560922        15.2635 
 233   0.0000       0.564763        15.3680 
 234   0.0000       0.568378        15.4664 
 235   0.0000       0.574034        15.6203 
 236   0.0000       0.576086        15.6761 
 237   0.0000       0.577274        15.7084 
 238   0.0000       0.579925        15.7806 
 239   0.0000       0.584850        15.9146 
 240   0.0000       0.591911        16.1067 
 241   0.0000       0.592966        16.1354 
 242   0.0000       0.596981        16.2447 
 243   0.0000       0.600477        16.3398 
 244   0.0000       0.608072        16.5465 
 245   0.0000       0.611880        16.6501 
 246   0.0000       0.614418        16.7192 
 247   0.0000       0.615991        16.7620 
 248   0.0000       0.618271        16.8240 
 249   0.0000       0.625136        17.0108 
 250   0.0000       0.626992        17.0613 
 251   0.0000       0.631562        17.1857 
 252   0.0000       0.636981        17.3331 
 253   0.0000       0.641501        17.4561 
 254   0.0000       0.644218        17.5301 
 255   0.0000       0.648678        17.6514 
 256   0.0000       0.650938        17.7129 
 257   0.0000       0.651921        17.7397 
 258   0.0000       0.658042        17.9062 
 259   0.0000       0.663946        18.0669 
 260   0.0000       0.667237        18.1564 
 261   0.0000       0.674392        18.3511 
 262   0.0000       0.676433        18.4067 
 263   0.0000       0.681447        18.5431 
 264   0.0000       0.688094        18.7240 
 265   0.0000       0.695998        18.9391 
 266   0.0000       0.697315        18.9749 
 267   0.0000       0.697571        18.9819 
 268   0.0000       0.703238        19.1361 
 269   0.0000       0.704369        19.1668 
 270   0.0000       0.711764        19.3681 
 271   0.0000       0.715693        19.4750 
 272   0.0000       0.716711        19.5027 
 273   0.0000       0.729272        19.8445 
 274   0.0000       0.730568        19.8798 
 275   0.0000       0.733791        19.9675 
 276   0.0000       0.739086        20.1115 
 277   0.0000       0.744574        20.2609 
 278   0.0000       0.748019        20.3546 
 279   0.0000       0.752370        20.4730 
 280   0.0000       0.758741        20.6464 
 281   0.0000       0.759660        20.6714 
 282   0.0000       0.769135        20.9292 
 283   0.0000       0.772005        21.0073 
 284   0.0000       0.785145        21.3649 
 285   0.0000       0.787014        21.4158 
 286   0.0000       0.787661        21.4333 
[...]
  | sigma^2 in % of trace(Dij) retained ...   9.13e+00
  | sigma^2 in % of trace(Dip) retained ...   1.93e+01
  | sigma^2 in % of trace(Dpq) retained ...   1.20e-01
  | Av. % of trace(Di) retained         ...  99.998519741306
  | Av. % of trace(Dp) retained         ...  99.999998206013
  | sigma^2 in % of trace(Di) retained  ...   7.65e-07
  | sigma^2 in % of trace(Dp) retained  ...   2.56e-12
 Distributions of % trace(Dij) recovered:
  |       >= 99.9  ...   105 ( 20.6 % of all IJ-pairs)
  |   [80.0, 90.0) ...    36 (  7.1 % of all IJ-pairs)
  |   [90.0, 99.0) ...   275 ( 53.9 % of all IJ-pairs)
  |   [99.0, 99.9) ...    94 ( 18.4 % of all IJ-pairs)
 Distributions of % trace(Dip) recovered:
  |   [70.0, 80.0) ...     1 (  0.8 % of all IP-pairs)
  |   [80.0, 90.0) ...    10 (  8.3 % of all IP-pairs)
  |   [90.0, 99.0) ...    67 ( 55.8 % of all IP-pairs)
  |   [99.0, 99.9) ...    42 ( 35.0 % of all IP-pairs)
 Distributions of % trace(Dpq) recovered:
  |       >= 99.9  ...     5 ( 33.3 % of all PQ-pairs)
  |   [99.0, 99.9) ...    10 ( 66.7 % of all PQ-pairs)
 Distributions of % trace(Di) recovered :
  |       >= 99.9  ...    43 (100.0 % of all I-pairs )
 Distributions of % trace(Dp) recovered :
  |       >= 99.9  ...     5 (100.0 % of all P-pairs )

                       ===========================
                       1122 OF 1727 PAIRS ARE KEPT
                       ===========================

 Initial PAO correlation energy (all pairs)    ...  -2.6885695328 Eh
 Energy constituents in PAO basis (Eh):
  | Vijab(+0) ...  -2.2579736042
  | Viab (-1) ...  -0.1758448128
  | Vab  (-2) ...  -0.0573642925
  | Va   (-1) ...  -0.0000416802
  | Vija (+1) ...  -0.0734519596
  | Vij  (+2) ...  -0.0155139147
  | Via  (+0) ...  -0.1082186754
  | Vi   (+1) ...  -0.0001605933
 Initial PNO correlation energy                ...  -2.6539022064 Eh
 Energy constituents in PNO basis (Eh):
  | Vijab(+0) ...  -2.2391903692 (err=  0.0187832350)
  | Viab (-1) ...  -0.1615944646 (err=  0.0142503482)
  | Vab  (-2) ...  -0.0569055205 (err=  0.0004587720)
  | Va   (-1) ...  -0.0000236220 (err=  0.0000180582)
  | Vija (+1) ...  -0.0724480960 (err=  0.0010038636)
  | Vij  (+2) ...  -0.0154659109 (err=  0.0000480038)
  | Via  (+0) ...  -0.1081139525 (err=  0.0001047229)
  | Vi   (+1) ...  -0.0001602706 (err=  0.0000003228)
 Sum of total truncation errors ...   0.0346673264 Eh
  | Pair screening ...   0.0116589435 Eh
  | PNO truncation ...   0.0230083828 Eh

 UMP2 correlation energy (PAO) ...  -2.6836948245
  | alpha-alpha ...  -0.3855461867 (NP_aa=  935)
  | alpha-beta  ...  -1.9920148153 (NP_ab= 1702)
  | beta -beta  ...  -0.3061338225 (NP_bb=  734)
 UMP2 correlation energy (PNO) ...  -2.6486693847
  | alpha-alpha ...  -0.3734352296 (err=  0.0121109571, NP_aa=  597)
  | alpha-beta  ...  -1.9731997255 (err=  0.0188150898, NP_ab= 1097)
  | beta -beta  ...  -0.3020344297 (err=  0.0040993929, NP_bb=  467)
 Sum of total UMP2 truncation errors ...   0.0350254398 Eh
  | Pair screening ...   0.0116708967 Eh
  | PNO truncation ...   0.0233545430 Eh
 Timing for NEV-PNO construction (sec.)
  | Intermediate construction  ..           50.273
  | Amplitude construction     ..           70.665
  | Total time                 ..          120.937
 Making pair pair interaction lists ...      ok
 Total size for 2-ext PNO integrals ...     11.0 MB
Checking the number of SOMO/SOMO doubles PNOs ... 
 #Truncate: (72, 72)[175] -> [85] .. 
 #Truncate: (73, 73)[170] -> [85] .. 
 #Truncate: (74, 74)[172] -> [85] .. 
 #Truncate: (75, 75)[171] -> [85] .. 
 #Truncate: (76, 76)[173] -> [85] .. 

--------------------------------
LOCAL RI TRANSFORMATION (VABPAO)
--------------------------------

Number of PAOs:    1030
Basis functions:   1025 (343 shells)
Aux. functions:    2424 (644 shells)

Processing maps (0.0 sec)
Average map sizes:
   Aux shells -> PAOs           1030.0
   PAOs       -> AO shells       343.0

Calculating integrals (197.4 sec, 37370.165 MB)
Finished
-----------------------------
LOCAL RI TRANSFORMATION (IJV)
-----------------------------

Orbital window:      29 to 76
Basis functions:   1025 (343 shells)
Aux. functions:    2424 (644 shells)

Processing maps (0.0 sec)
Average map sizes:
   Aux shells -> MOs(i)           46.7
   Aux shells -> MOs(j)           48.0
   MOs        -> AO shells       339.2

Calculating integrals (24.0 sec, 41.607 MB)
Sorting integrals (0.3 sec, 41.579 MB)
Total time for the integral transformation: 24.4 sec


-------------------------------------
Pair Pair Term precalculation with     
RI-(ij|mn) and (im|jn) transformation  
ON THE FLY                             
-------------------------------------

   IBatch   1 (of   2)              ... done ( 1353.816 sec)
   IBatch   2 (of   2)              ... done ( 1426.534 sec)
Total EXT                           ...        2780.350 sec

---------------------
RI-PNO TRANSFORMATION
---------------------

Total Number of PNOs                   ... 34803
Total Number of IJ-PNOs                ... 30594
Total Number of IP-PNOs                ...  3252
Total Number of PQ-PNOs                ...   957
Total Number of IJ-pairs               ...   977
Total Number of PI-pairs               ...   120
Total Number of PQ-pairs               ...    25
Average number of PNOs per pair        ...    31
Maximal number of PNOs per pair        ...    85
>> Statistics for ij-pairs..
   #pairs with  1 -  5 PNOs   :    0
   #pairs with  6 - 10 PNOs   :    0
   #pairs with 11 - 15 PNOs   :   48
   #pairs with 16 - 20 PNOs   :  244
   #pairs with 21 - 25 PNOs   :  168
   #pairs with 26 - 30 PNOs   :  158
   #pairs with 31 - 35 PNOs   :   68
   #pairs with 36 - 40 PNOs   :   58
   #pairs with 41 - 45 PNOs   :   52
   #pairs with 46 - 50 PNOs   :   13
   #pairs with 51 - 55 PNOs   :   35
   #pairs with 56 - 60 PNOs   :   53
   #pairs with 61 - 65 PNOs   :   67
   #pairs with 66 - 70 PNOs   :   13
>> Statistics for ip-pairs..
   #pairs with  1 -  5 PNOs   :    0
   #pairs with  6 - 10 PNOs   :    5
   #pairs with 11 - 15 PNOs   :   15
   #pairs with 16 - 20 PNOs   :    5
   #pairs with 21 - 25 PNOs   :   23
   #pairs with 26 - 30 PNOs   :   15
   #pairs with 31 - 35 PNOs   :   42
   #pairs with 36 - 40 PNOs   :   15
   #pairs with 41 - 45 PNOs   :    0
   #pairs with 46 - 50 PNOs   :    0
>> Statistics for pq-pairs..
   #pairs with  1 -  5 PNOs   :    0
   #pairs with  6 - 10 PNOs   :    0
   #pairs with 11 - 15 PNOs   :    0
   #pairs with 16 - 20 PNOs   :    0
   #pairs with 21 - 25 PNOs   :    4
   #pairs with 26 - 30 PNOs   :   16
   #pairs with 31 - 35 PNOs   :    0
   #pairs with 36 - 40 PNOs   :    0
   #pairs with 41 - 45 PNOs   :    0
   #pairs with 46 - 50 PNOs   :    0
   #pairs with 81 - 85 PNOs   :    5

Generation of (ij|ab)[P] integrals            ... on
Generation of (ia|bc)[P],(ja|bc)[P] integrals ... on
Storage of 3 and 4 external integrals         ... on
Generation of ALL (ka|bc)[P] integrals        ... on
Keep RI integrals in memory                   ... off

Ibatch:  1 (of  1)
Starting 2-4 index PNO integral generation ... done

Timings:
Total PNO integral transformation time     ...       2227.972 sec
Size of the 3-external file                ...       285 MB
Size of the 4-external file                ...      1919 MB
Size of the IKJL file                      ...        19 MB
Size of the all 3-external file            ...      6840 MB
Size of the 1-external file                ...        22 MB

Size of the PAO/PNO coefficient matrices   ...     226.7 MB

Making pair/pair overlap matrices          ... done (  338.244 sec)
Size of the pair overlap file              ...    2476.0 MB
Total # unrestricted pairs ...       2161
  # of alpha-alpha pairs   ...        597
  # of alpha-beta pairs    ...       1097
  # of beta-beta pairs     ...        467
Constructing the guess amplitudes          ... done (    0.610 sec)

-------------------------
FINAL STARTUP INFORMATION
-------------------------

E(0)                                       ...  -3028.429574279
E(SL-UMP2 in NEV-PNO space)                ...     -2.684611653
Initial E(tot)                             ...  -3031.114185933
<T|T>                                      ...      0.531556643
Number of unrestricted pairs included      ... 2161
Total number of pairs                      ... 4095
----------------------------------------------------------
                     OPEN-SHELL COUPLED CLUSTER ITERATIONS
----------------------------------------------------------

Number of PNO amplitudes to be optimized        ...          2117594
Number of canonical amplitudes for strong pairs ...       1951824442
Untruncated number of canonical amplitudes      ...       3698645738

Iter       E(tot)           E(Corr)          Delta-E          Residual     Time
  0  -3031.121361114     -2.655844566      0.028767087      0.022580330 1993.55
                           *** Turning on DIIS ***
  1  -3031.236997809     -2.771481261     -0.115636694      0.009094165 2194.81
  2  -3031.300825475     -2.835308928     -0.063827667      0.009889455 2210.52
  3  -3031.321568003     -2.856051455     -0.020742527      0.003919808 2182.80
  4  -3031.328508152     -2.862991604     -0.006940149      0.003339720 2184.55
  5  -3031.332013069     -2.866496521     -0.003504917      0.002452103 2243.95
  6  -3031.333330908     -2.867814360     -0.001317839      0.001076151 2249.51
  7  -3031.334139191     -2.868622644     -0.000808284      0.000658959 2281.87
  8  -3031.334289838     -2.868773290     -0.000150647      0.000189506 2306.11
  9  -3031.334333201     -2.868816653     -0.000043363      0.000173613 2287.32
 10  -3031.334328334     -2.868811786      0.000004867      0.000068874 2274.72
 11  -3031.334338513     -2.868821965     -0.000010180      0.000067583 2189.94
 12  -3031.334344501     -2.868827953     -0.000005988      0.000025733 2185.43
 13  -3031.334347124     -2.868830576     -0.000002623      0.000016391 2171.25
 14  -3031.334347494     -2.868830946     -0.000000370      0.000006902 1851.60
               --- The CCSD iterations have converged ---

E(0)                                       ...  -3028.429574279
E(CORR)(strong-pairs)                      ...     -2.868830946
E(CORR)(weak-pairs)                        ...     -0.035942268
E(CORR)(corrected)                         ...     -2.904773214
E(TOT)                                     ...  -3031.334347494
Singles norm <S|S>**1/2                    ...      0.185674900 ( 0.061829199, 0.123845701)  
T1 diagnostic                              ...      0.019464018                              
<S**2>(linearized)                         ...      8.7507036 (ideal value:      8.7500000)

----------------------
LARGEST PNO AMPLITUDES
----------------------
  30b-> 76b  -1b-> -1b       0.057987
  51b-> 76b  -1b-> -1b       0.055074
  49b-> 74b  -1b-> -1b       0.049123
  45a-> 78a  45b-> 78b       0.045763
  48b-> 72b  -1b-> -1b       0.045332
  63a-> 77a  63b-> 77b       0.044421
  52b-> 72b  -1b-> -1b       0.044099
  29b-> 72b  -1b-> -1b       0.043638
  67a-> 77a  67b-> 77b       0.043508
  55a-> 78a  55b-> 78b       0.043298
  59a-> 77a  59b-> 77b       0.042843
  44a-> 77a  44b-> 77b       0.042802
  71a-> 77a  71b-> 77b       0.042739
  62a-> 77a  62b-> 77b       0.042447
  69a-> 77a  69b-> 77b       0.042301
  52b-> 76b  -1b-> -1b       0.042069

Total # unrestricted pairs ...       1210
  # of alpha-alpha pairs   ...        338
  # of alpha-beta pairs    ...        605
  # of beta-beta pairs     ...        267

-------------------------------------------
DLPNO BASED TRIPLES CORRECTION
-------------------------------------------

Singles multiplier          ...  1.000000
Fragment selection                          .... not used
TCutTNO                     ... 1.000e-09
TCutMP2Pairs                ... 1.000e-05
TCutDOStrong                ... 2.000e-02
TCutMKNStrong               ... 1.000e-02
TCutDOWeak                  ... 4.000e-02
TCutMKNWeak                 ... 1.000e-01
NTCutTNO                    ... 1

Number of Triples that are to be computed         ...     35166

 . . . . . . . . .
10% done  
20% done  
30% done  
40% done  
50% done  
60% done  
70% done  
80% done  
90% done  
          Batch   1   done (  19288.877 sec)

Triples-Correction TCutTNO=   1.000e-09 (NWeakPairs = 0  1  2  3)  -0.115601292087   -0.001825455566    0.000000000000    0.000000000000
Triples-Correction  -0.117426747653

Triples timings:
Total time                      ... 19969.617 sec

Triples List generation         ...     0.000 sec
TNO generation                  ...   680.194 sec
Pair density generation         ...     0.087 sec
Look up tables                  ...     0.121 sec
Generating 3-index integrals    ... 13084.076 sec
Make 4-ind.int. from 3-ind.int  ...     3.802 sec
Projecting amplitudes (D + S)   ...  5936.851 sec
Sorting integrals for spin cases...    54.701 sec
Calculate W0/W1                 ...   168.884 sec
Energy contr. (sum over a,b,c)  ...    40.610 sec

Everything after 3-index        ...  6345.792 sec

Energy contribution AAA         ...    25.444 sec
Energy contribution AAB         ...   116.847 sec
Energy contribution ABB         ...   107.419 sec
Energy contribution BBB         ...    14.522 sec
prep                ...     3.387 sec
makeTTNO            ...  5877.313 sec
copyij              ...     0.137 sec
copyil              ...     4.415 sec
transposeij         ...     0.079 sec
newMatInDoubleProj  ...    56.087 sec
BlasInDoubleProj    ...  3174.453 sec
ProjSingles         ...    48.923 sec
ProjDoubles         ...  5887.927 sec
overall Doubles for projection      ... 3225600
used Doubles for projection         ... 3225600


Number of Triples   (0, 1, 2, 3 weak pairs; overall):  16937   12211       0       0  ( 29148)
Number of Atoms     (0, 1, 2, 3 weak pairs; overall):   20.2    14.7     0.0     0.0  (    29)
Number of PAOs      (0, 1, 2, 3 weak pairs; overall):  780.4   596.0     0.0     0.0  (  1025)
Number of AuxFcns   (0, 1, 2, 3 weak pairs; overall):  955.3   581.8     0.0     0.0  (  2424)
Number of TNOs (0, 1, 2, 3 weak pairs         ):   78.7    55.9     0.0     0.0
Aver. Number of NTNO, Atoms, PAOs, AuxFcns / Triples:  29148    69.1    17.9   703.2   798.8

Triples Correction (T)                     ...     -0.117426748
    alpha-alpha-alpha ... -0.003873771 (  3.3%)
    alpha-alpha-beta  ... -0.055139213 ( 47.0%)
    alpha-beta -beta  ... -0.054339886 ( 46.3%)
    beta -beta -beta  ... -0.004073878 (  3.5%)
Final correlation energy                   ...     -3.022199962
E(CCSD)                                    ...  -3031.334347494
E(CCSD(T))                                 ...  -3031.451774241

----------------------------
STATISTICS FOR PAIR-ENERGIES
----------------------------
Minimum, maximum and average ratios of UMP and CCSD pair-energies ... 0.50, 1.41, 1.02


------------------------------------------------------------------------------- 
                                     TIMINGS                                   
------------------------------------------------------------------------------- 


Total execution time                   ...    61911.082 sec

Localization of occupied MO's          ...        9.376 sec (  0.0%)
Fock Matrix Formation                  ...     1412.497 sec (  2.3%)
Differential overlap integrals         ...        1.371 sec (  0.0%)
Organizing maps                        ...        1.698 sec (  0.0%)
RI 3-index integral generations        ...      283.610 sec (  0.5%)
RI-PNO integral transformation         ...     5676.433 sec (  9.2%)
Initial Guess                          ...     1902.063 sec (  3.1%)
DIIS Solver                            ...       22.246 sec (  0.0%)
State Vector Update                    ...        0.827 sec (  0.0%)
Sigma-vector construction              ...    32807.910 sec ( 53.0%)
  <0|H|D>                              ...        0.032 sec (  0.0% of sigma)
  <D|H|D>(0-ext)                       ...     5986.400 sec ( 18.2% of sigma)
  <D|H|D>(2-ext Fock)                  ...        1.795 sec (  0.0% of sigma)
  <D|H|D>(2-ext)                       ...     5006.999 sec ( 15.3% of sigma)
  <D|H|D>(4-ext)                       ...      155.399 sec (  0.5% of sigma)
  <D|H|D>(4-ext-corr)                  ...      966.145 sec (  2.9% of sigma)
  CCSD doubles correction              ...      570.029 sec (  1.7% of sigma)
  <S|H|S>                              ...      760.131 sec (  2.3% of sigma)
  <S|H|D>(1-ext)                       ...      282.175 sec (  0.9% of sigma)
  <D|H|S>(1-ext)                       ...        1.155 sec (  0.0% of sigma)
  <S|H|D>(3-ext)                       ...       25.881 sec (  0.1% of sigma)
  CCSD singles correction              ...        0.005 sec (  0.0% of sigma)
  Fock-dressing                        ...     9802.213 sec ( 29.9% of sigma)
  Singles amplitudes                   ...      122.743 sec (  0.4% of sigma)
  (ik|jl)-dressing                     ...     7123.168 sec ( 21.7% of sigma)
  (ij|ab),(ia|jb)-dressing             ...     1783.940 sec (  5.4% of sigma)
  Pair energies                        ...        0.161 sec (  0.0% of sigma)
Total Time for computing (T)           ...    20168.099 sec ( 32.6% of ALL)


-------------------------   --------------------
FINAL SINGLE POINT ENERGY     -3031.451774241476
-------------------------   --------------------


                            ***************************************
                            *     ORCA property calculations      *
                            ***************************************

                                    ---------------------
                                    Active property flags
                                    ---------------------
   (+) Dipole Moment


------------------------------------------------------------------------------
                       ORCA ELECTRIC PROPERTIES CALCULATION
------------------------------------------------------------------------------

Dipole Moment Calculation                       ... on
Quadrupole Moment Calculation                   ... off
Polarizability Calculation                      ... off
GBWName                                         ... simple-grid-170-250-b3lyp_d3bj-631gd-gas-singlepoint-DLPNO_CCSD_T1-NormalPNO-augtz-gas.gbw
Electron density file                           ... simple-grid-170-250-b3lyp_d3bj-631gd-gas-singlepoint-DLPNO_CCSD_T1-NormalPNO-augtz-gas.scfp.tmp
The origin for moment calculation is the CENTER OF MASS  = ( 0.296194,  0.039748  0.013426)

-------------
DIPOLE MOMENT
-------------
                                X             Y             Z
Electronic contribution:     38.88827       6.33930       1.64722
Nuclear contribution   :    -44.13297      -5.92241      -2.00048
                        -----------------------------------------
Total Dipole Moment    :     -5.24470       0.41688      -0.35326
                        -----------------------------------------
Magnitude (a.u.)       :      5.27309
Magnitude (Debye)      :     13.40313



--------------------
Rotational spectrum 
--------------------
 
Rotational constants in cm-1:     0.018906     0.011908     0.010902 
Rotational constants in MHz :   566.794015   356.985744   326.835127 

 Dipole components along the rotational axes: 
x,y,z [a.u.] :    -5.242917    -0.402447    -0.394136 
x,y,z [Debye]:   -13.326435    -1.022939    -1.001815 

 

Timings for individual modules:

Sum of individual times         ...    78371.407 sec (=1306.190 min)
GTO integral calculation        ...       15.130 sec (=   0.252 min)   0.0 %
SCF iterations                  ...    16424.417 sec (= 273.740 min)  21.0 %
MDCI module                     ...    61931.860 sec (=1032.198 min)  79.0 %
                             ****ORCA TERMINATED NORMALLY****
TOTAL RUN TIME: 0 days 21 hours 46 minutes 14 seconds 173 msec
