
                                 *****************
                                 * O   R   C   A *
                                 *****************

           --- An Ab Initio, DFT and Semiempirical electronic structure package ---

                  #######################################################
                  #                        -***-                        #
                  #          Department of theory and spectroscopy      #
                  #               Directorship: Frank Neese             #
                  #        Max Planck Institute fuer Kohlenforschung    #
                  #                Kaiser Wilhelm Platz 1               #
                  #                 D-45470 Muelheim/Ruhr               #
                  #                      Germany                        #
                  #                                                     #
                  #                  All rights reserved                #
                  #                        -***-                        #
                  #######################################################


                         Program Version 4.1.2  - RELEASE  -


 With contributions from (in alphabetic order):
   Daniel Aravena         : Magnetic Properties
   Michael Atanasov       : Ab Initio Ligand Field Theory
   Alexander A. Auer      : GIAO ZORA
   Ute Becker             : Parallelization
   Giovanni Bistoni       : ED, Open-shell LED
   Martin Brehm           : Molecular dynamics
   Dmytro Bykov           : SCF Hessian
   Vijay G. Chilkuri      : MRCI spin determinant printing
   Dipayan Datta          : RHF DLPNO-CCSD density
   Achintya Kumar Dutta   : EOM-CC, STEOM-CC
   Dmitry Ganyushin       : Spin-Orbit,Spin-Spin,Magnetic field MRCI
   Miquel Garcia          : C-PCM Hessian
   Yang Guo               : DLPNO-NEVPT2, CIM, IAO-localization
   Andreas Hansen         : Spin unrestricted coupled pair/coupled cluster methods
   Benjamin Helmich-Paris : CASSCF linear response (MC-RPA)
   Lee Huntington         : MR-EOM, pCC
   Robert Izsak           : Overlap fitted RIJCOSX, COSX-SCS-MP3, EOM
   Christian Kollmar      : KDIIS, OOCD, Brueckner-CCSD(T), CCSD density
   Simone Kossmann        : Meta GGA functionals, TD-DFT gradient, OOMP2, MP2 Hessian
   Martin Krupicka        : AUTO-CI
   Lucas Lang             : DCDCAS
   Dagmar Lenk            : GEPOL surface, SMD
   Dimitrios Liakos       : Extrapolation schemes; parallel MDCI
   Dimitrios Manganas     : ROCIS; embedding schemes
   Dimitrios Pantazis     : SARC Basis sets
   Taras Petrenko         : DFT Hessian,TD-DFT gradient, ASA, ECA, R-Raman, ABS, FL, XAS/XES, NRVS
   Peter Pinski           : DLPNO-MP2, DLPNO-MP2 Gradient
   Christoph Reimann      : Effective Core Potentials
   Marius Retegan         : Local ZFS, SOC
   Christoph Riplinger    : Optimizer, TS searches, QM/MM, DLPNO-CCSD(T), (RO)-DLPNO pert. Triples
   Tobias Risthaus        : Range-separated hybrids, TD-DFT gradient, RPA, STAB
   Michael Roemelt        : Restricted open shell CIS
   Masaaki Saitow         : Open-shell DLPNO
   Barbara Sandhoefer     : DKH picture change effects
   Avijit Sen             : IP-ROCIS
   Kantharuban Sivalingam : CASSCF convergence, NEVPT2, FIC-MRCI
   Bernardo de Souza      : ESD, SOC TD-DFT
   Georgi Stoychev        : AutoAux, RI-MP2 NMR
   Willem Van den Heuvel  : Paramagnetic NMR
   Boris Wezisla          : Elementary symmetry handling
   Frank Wennmohs         : Technical directorship


 We gratefully acknowledge several colleagues who have allowed us to
 interface, adapt or use parts of their codes:
   Stefan Grimme, W. Hujo, H. Kruse,             : VdW corrections, initial TS optimization,
                  C. Bannwarth                     DFT functionals, gCP, sTDA/sTD-DF
   Ed Valeev                                     : LibInt (2-el integral package), F12 methods
   Garnet Chan, S. Sharma, J. Yang, R. Olivares  : DMRG
   Ulf Ekstrom                                   : XCFun DFT Library
   Mihaly Kallay                                 : mrcc  (arbitrary order and MRCC methods)
   Andreas Klamt, Michael Diedenhofen            : otool_cosmo (COSMO solvation model)
   Jiri Pittner, Ondrej Demel                    : Mk-CCSD
   Frank Weinhold                                : gennbo (NPA and NBO analysis)
   Christopher J. Cramer and Donald G. Truhlar   : smd solvation model
   Lars Goerigk                                  : TD-DFT with DH, B97 family of functionals
   V. Asgeirsson, H. Jonsson                     : NEB implementation
   FAccTs GmbH                                   : IRC, NEB, NEB-TS, Multilevel


 Your calculation uses the libint2 library for the computation of 2-el integrals
 For citations please refer to: http://libint.valeyev.net

 This ORCA versions uses:
   CBLAS   interface :  Fast vector & matrix operations
   LAPACKE interface :  Fast linear algebra routines
   SCALAPACK package :  Parallel linear algebra routines


----- Orbital basis set information -----
Your calculation utilizes the basis: aug-cc-pVTZ 
    H, B-Ne : Obtained from the ccRepo (grant-hill.group.shef.ac.uk/ccrepo) Feb. 2017
              R. A. Kendall, T. H. Dunning, Jr., R. J. Harrison, J. Chem. Phys. 96, 6796 (1992)
         He : Obtained from the ccRepo (grant-hill.group.shef.ac.uk/ccrepo) Feb. 2017
              D. E. Woon, T. H. Dunning, Jr., J. Chem. Phys. 100, 2975 (1994)
  Li-Be, Na : Obtained from the ccRepo (grant-hill.group.shef.ac.uk/ccrepo) Feb. 2017
              B. P. Prascher, D. E. Woon, K. A. Peterson, T. H. Dunning, Jr., A. K. Wilson, Theor. Chem. Acc. 128, 69 (2011)
         Mg : Obtained from the Peterson Research Group Website (tyr0.chem.wsu.edu/~kipeters) Feb. 2017
              B. P. Prascher, D. E. Woon, K. A. Peterson, T. H. Dunning, Jr., A. K. Wilson, Theor. Chem. Acc. 128, 69 (2011)
      Al-Ar : Obtained from the ccRepo (grant-hill.group.shef.ac.uk/ccrepo) Feb. 2017
              D. E. Woon, T. H. Dunning, Jr., J. Chem. Phys. 98, 1358 (1993)
      Sc-Zn : Obtained from the ccRepo (grant-hill.group.shef.ac.uk/ccrepo) Feb. 2017
              N. B. Balabanov, K. A. Peterson, J. Chem. Phys. 123, 064107 (2005)
              N. B. Balabanov, K. A. Peterson, J. Chem. Phys. 125, 074110 (2006)
      Ga-Kr : Obtained from the ccRepo (grant-hill.group.shef.ac.uk/ccrepo) Feb. 2017
              A. K. Wilson, D. E. Woon, K. A. Peterson, T. H. Dunning, Jr., J. Chem. Phys. 110, 7667 (1999)
     Ag, Au : Obtained from the Peterson Research Group Website (tyr0.chem.wsu.edu/~kipeters) Feb. 2017
              K. A. Peterson, C. Puzzarini, Theor. Chem. Acc. 114, 283 (2005)

----- AuxJ basis set information -----
Your calculation utilizes the AutoAux generation procedure.
  G. L. Stoychev, A. A. Auer, F. Neese, J. Chem. Theory Comput. 13, 554 (2017)

----- AuxC basis set information -----
Your calculation utilizes the auxiliary basis: aug-cc-pVTZ/C 
  H-He, B-F, Al-Ar, Ga-Kr : Obtained from the EMSL Basis Set Exchange (bse.pnl.gov) Feb. 2017
                            F. Weigend, A. Kohn, C. Hattig, J. Chem. Phys. 116, 3175 (2002)
                   Be, Mg : Obtained from the TURBOMOLE 7.0 basis set library
                            C. Haettig, Phys. Chem. Chem. Phys. 7, 59 (2005)
                       Ne : Obtained from the EMSL Basis Set Exchange (bse.pnl.gov) Feb. 2017
                            C. Haettig, Phys. Chem. Chem. Phys. 7, 59 (2005)
                            F. Weigend, A. Kohn, C. Hattig, J. Chem. Phys. 116, 3175 (2002)
                    Sc-Zn : Obtained from the EMSL Basis Set Exchange (bse.pnl.gov) Feb. 2017
                            J. G. Hill, J. A. Platts, J. Chem. Phys. 128, 044104 (2008)

----- AuxJK basis set information -----
Your calculation utilizes the AutoAux generation procedure.
  G. L. Stoychev, A. A. Auer, F. Neese, J. Chem. Theory Comput. 13, 554 (2017)

================================================================================
                                        WARNINGS
                       Please study these warnings very carefully!
================================================================================


WARNING: your system is open-shell and RHF/RKS was chosen
  ===> : WILL SWITCH to UHF/UKS


WARNING: MDCI localization with Augmented Hessian Foster-Boys
  ===> : Switching off randomization!

WARNING: Post HF methods need fully converged wavefunctions
  ===> : Setting SCFConvForced true
         You can overwrite this default with %scf ConvForced false 


INFO   : the flag for use of LIBINT has been found!

================================================================================
                                       INPUT FILE
================================================================================
NAME = simple-grid-205-235-b3lyp_d3bj-631gd-gas-singlepoint-DLPNO_CCSD_T1-NormalPNO-augtz-gas.inp
|  1> ! aug-cc-pVTZ aug-cc-pVTZ/C DLPNO-CCSD(T1) TightSCF NormalPNO UNO MiniPrint AutoAux
|  2> %pal nproc 10 end
|  3> %maxcore 20000
|  4> %mdci
|  5>      density none
|  6> end
|  7> 
|  8> * xyz 0 6
|  9>  O     -0.32995400     -0.12128300     -0.62481200
| 10>  C     -1.26371300     -1.03949300     -0.55041200
| 11>  C     -2.97756000     -0.12287500      0.10153500
| 12>  C     -2.31389800      1.05607600     -0.17721100
| 13>  C     -2.34677900      1.68236000     -1.52910400
| 14> Fe      1.42573500      0.07081800      0.03699500
| 15> Cl      2.00057600      2.05219100     -0.72617100
| 16>  C     -1.56453000      1.81758200      0.86094100
| 17> Cl      2.52063400     -1.65808000     -0.76842900
| 18> Cl      1.30012400      0.01275400      2.24953600
| 19>  H     -3.65214900     -0.48162200     -0.67271100
| 20>  H     -2.27216700      2.52940600      1.31396000
| 21>  H     -1.16968200      1.19121400      1.66092100
| 22>  H     -0.74632300      2.39339300      0.42154800
| 23>  H     -2.69725100      2.71731000     -1.42082500
| 24>  H     -1.32732100      1.73598600     -1.92848700
| 25>  H     -3.00307900      1.16485900     -2.23090600
| 26>  C     -3.35391500     -0.54299100      1.50484300
| 27>  H     -4.24098800      0.01787100      1.82551400
| 28>  H     -3.61080300     -1.60412700      1.54645800
| 29>  H     -2.56428300     -0.35549200      2.23517900
| 30>  C     -1.07855700     -2.10203500      0.50777400
| 31>  H     -1.92782200     -2.78352400      0.57655800
| 32>  H     -0.19873100     -2.67717700      0.18587600
| 33>  H     -0.84430000     -1.67577400      1.48327500
| 34>  C     -1.72448700     -1.55861100     -1.89784300
| 35>  H     -0.87698800     -2.12863200     -2.30062000
| 36>  H     -2.58799800     -2.22309600     -1.81868700
| 37>  H     -1.93163700     -0.74837300     -2.59748200
| 38> *
| 39> 
| 40> 
| 41>                          ****END OF INPUT****
================================================================================

                       ****************************
                       * Single Point Calculation *
                       ****************************

---------------------------------
CARTESIAN COORDINATES (ANGSTROEM)
---------------------------------
  O     -0.329954   -0.121283   -0.624812
  C     -1.263713   -1.039493   -0.550412
  C     -2.977560   -0.122875    0.101535
  C     -2.313898    1.056076   -0.177211
  C     -2.346779    1.682360   -1.529104
  Fe     1.425735    0.070818    0.036995
  Cl     2.000576    2.052191   -0.726171
  C     -1.564530    1.817582    0.860941
  Cl     2.520634   -1.658080   -0.768429
  Cl     1.300124    0.012754    2.249536
  H     -3.652149   -0.481622   -0.672711
  H     -2.272167    2.529406    1.313960
  H     -1.169682    1.191214    1.660921
  H     -0.746323    2.393393    0.421548
  H     -2.697251    2.717310   -1.420825
  H     -1.327321    1.735986   -1.928487
  H     -3.003079    1.164859   -2.230906
  C     -3.353915   -0.542991    1.504843
  H     -4.240988    0.017871    1.825514
  H     -3.610803   -1.604127    1.546458
  H     -2.564283   -0.355492    2.235179
  C     -1.078557   -2.102035    0.507774
  H     -1.927822   -2.783524    0.576558
  H     -0.198731   -2.677177    0.185876
  H     -0.844300   -1.675774    1.483275
  C     -1.724487   -1.558611   -1.897843
  H     -0.876988   -2.128632   -2.300620
  H     -2.587998   -2.223096   -1.818687
  H     -1.931637   -0.748373   -2.597482

----------------------------
CARTESIAN COORDINATES (A.U.)
----------------------------
  NO LB      ZA    FRAG     MASS         X           Y           Z
   0 O     8.0000    0    15.999   -0.623523   -0.229192   -1.180724
   1 C     6.0000    0    12.011   -2.388071   -1.964357   -1.040128
   2 C     6.0000    0    12.011   -5.626773   -0.232200    0.191873
   3 C     6.0000    0    12.011   -4.372634    1.995694   -0.334880
   4 C     6.0000    0    12.011   -4.434770    3.179200   -2.889588
   5 Fe   26.0000    0    55.850    2.694249    0.133827    0.069910
   6 Cl   17.0000    0    35.453    3.780541    3.878079   -1.372264
   7 C     6.0000    0    12.011   -2.956533    3.434732    1.626943
   8 Cl   17.0000    0    35.453    4.763308   -3.133317   -1.452120
   9 Cl   17.0000    0    35.453    2.456878    0.024102    4.251007
  10 H     1.0000    0     1.008   -6.901561   -0.910134   -1.271240
  11 H     1.0000    0     1.008   -4.293773    4.779885    2.483025
  12 H     1.0000    0     1.008   -2.210379    2.251068    3.138686
  13 H     1.0000    0     1.008   -1.410346    4.522857    0.796610
  14 H     1.0000    0     1.008   -5.097066    5.134972   -2.684970
  15 H     1.0000    0     1.008   -2.508273    3.280538   -3.644312
  16 H     1.0000    0     1.008   -5.674997    2.201264   -4.215801
  17 C     6.0000    0    12.011   -6.337981   -1.026104    2.843741
  18 H     1.0000    0     1.008   -8.014306    0.033771    3.449722
  19 H     1.0000    0     1.008   -6.823429   -3.031361    2.922382
  20 H     1.0000    0     1.008   -4.845793   -0.671783    4.223876
  21 C     6.0000    0    12.011   -2.038177   -3.972270    0.959554
  22 H     1.0000    0     1.008   -3.643056   -5.260098    1.089537
  23 H     1.0000    0     1.008   -0.375547   -5.059131    0.351255
  24 H     1.0000    0     1.008   -1.595496   -3.166754    2.802984
  25 C     6.0000    0    12.011   -3.258808   -2.945348   -3.586404
  26 H     1.0000    0     1.008   -1.657267   -4.022532   -4.347542
  27 H     1.0000    0     1.008   -4.890607   -4.201043   -3.436820
  28 H     1.0000    0     1.008   -3.650265   -1.414220   -4.908530



           ************************************************************
           *        Program running with 10 parallel MPI-processes    *
           *              working on a common directory               *
           ************************************************************


           ************************************************************
           *        Program running with 10 parallel MPI-processes    *
           *              working on a common directory               *
           ************************************************************

Diagonalization of the overlap matrix:
Smallest eigenvalue                        ... 6.079e-07
Time for diagonalization                   ...    0.348 sec
Threshold for overlap eigenvalues          ... 1.000e-08
Number of eigenvalues below threshold      ... 0
Time for construction of square roots      ...    0.300 sec
Total time needed                          ...    0.653 sec

-------------------
DFT GRID GENERATION
-------------------

General Integration Accuracy     IntAcc      ...  4.340
Radial Grid Type                 RadialGrid  ... Gauss-Chebyshev
Angular Grid (max. acc.)         AngularGrid ... Lebedev-110
Angular grid pruning method      GridPruning ... 3 (G Style)
Weight generation scheme         WeightScheme... Becke
Basis function cutoff            BFCut       ...    1.0000e-11
Integration weight cutoff        WCut        ...    1.0000e-14
Grids for H and He will be reduced by one unit

# of grid points (after initial pruning)     ...  36112 (   0.0 sec)
# of grid points (after weights+screening)   ...  32308 (   0.1 sec)
nearest neighbour list constructed           ...    0.0 sec
Grid point re-assignment to atoms done       ...    0.0 sec
Grid point division into batches done        ...    0.0 sec
Reduced shell lists constructed in    0.3 sec

Total number of grid points                  ...    32308
Total number of batches                      ...      521
Average number of points per batch           ...       62
Average number of grid points per atom       ...     1114
Average number of shells per batch           ...   293.91 (85.69%)
Average number of basis functions per batch  ...   873.83 (85.25%)
Average number of large shells per batch     ...   242.91 (82.65%)
Average number of large basis fcns per batch ...   720.98 (82.51%)
Maximum spatial batch extension              ...   2.56,  3.27,  4.53 au
Average spatial batch extension              ...   0.17,  0.19,  0.17 au

Time for grid setup =    0.427 sec

Loading Hartree-Fock densities                     ... done
Calculating cut-offs                               ... done
Setting up the integral package                    ... done
Initializing the effective Hamiltonian             ... done
Starting the Coulomb interaction                   ... done (   1.1 sec)
Reading the grid                                   ... done
Mapping shells                                     ... done
Starting the XC term evaluation                    ... done (   1.0 sec)
Transforming the Hamiltonian                       ... done (   0.2 sec)
Diagonalizing the Hamiltonian                      ... done (   0.4 sec)
Back transforming the eigenvectors                 ... done (   0.1 sec)
Now organizing SCF variables                       ... done
--------------
SCF ITERATIONS
--------------
ITER       Energy         Delta-E        Max-DP      RMS-DP      [F,P]     Damp
               ***  Starting incremental Fock matrix formation  ***
  0  -3027.5685578433   0.000000000000 0.20634643  0.00118320  0.2770279 0.7000
  1  -3027.8169526348  -0.248394791516 0.15380404  0.00091533  0.1663990 0.7000
                               ***Turning on DIIS***
  2  -3027.9840263242  -0.167073689403 0.11080220  0.00067059  0.1092868 0.7000
  3  -3029.6577996589  -1.673773334755 0.26231416  0.00166970  0.0820744 0.0000
  4  -3028.2891837769   1.368615882049 0.04684979  0.00023387  0.0193450 0.0000
  5  -3028.4094987521  -0.120314975250 0.04008669  0.00017457  0.0118146 0.0000
  6  -3028.4401262255  -0.030627473322 0.02061528  0.00007006  0.0054445 0.0000
  7  -3028.4534172560  -0.013291030507 0.00909364  0.00003195  0.0033664 0.0000
  8  -3028.4492673170   0.004149938973 0.00600860  0.00001853  0.0013896 0.0000
  9  -3028.4404056994   0.008861617640 0.00230860  0.00001056  0.0007284 0.0000
 10  -3028.4294998767   0.010905822698 0.00099781  0.00000337  0.0004265 0.0000
 11  -3028.4356979854  -0.006198108718 0.00039917  0.00000194  0.0000772 0.0000
 12  -3028.4331415684   0.002556417015 0.00084258  0.00000196  0.0000308 0.0000
 13  -3028.4331802296  -0.000038661211 0.00097606  0.00000261  0.0000099 0.0000
 14  -3028.4332362624  -0.000056032789 0.00078675  0.00000234  0.0000067 0.0000
 15  -3028.4331750698   0.000061192616 0.00127461  0.00000250  0.0000030 0.0000
 16  -3028.4331992499  -0.000024180095 0.00121629  0.00000309  0.0000020 0.0000
 17  -3028.4332132966  -0.000014046716 0.00119362  0.00000259  0.0000016 0.0000
 18  -3028.4331950722   0.000018224357 0.00233658  0.00000466  0.0000014 0.0000
 19  -3028.4332070252  -0.000011953037 0.00175779  0.00000397  0.0000012 0.0000
               *** Restarting incremental Fock matrix formation ***
                                   *** Resetting DIIS ***
                            ***DIIS convergence achieved***

               *****************************************************
               *                     SUCCESS                       *
               *           SCF CONVERGED AFTER  20 CYCLES          *
               *****************************************************

Total Energy       :        -3028.43320499 Eh          -82407.85704 eV
  Last Energy change         ...    2.0380e-06  Tolerance :   1.0000e-08
  Last MAX-Density change    ...    9.5276e-03  Tolerance :   1.0000e-07
             **** THE GBW FILE WAS UPDATED (simple-grid-205-235-b3lyp_d3bj-631gd-gas-singlepoint-DLPNO_CCSD_T1-NormalPNO-augtz-gas.gbw) ****
             **** DENSITY FILE WAS UPDATED (simple-grid-205-235-b3lyp_d3bj-631gd-gas-singlepoint-DLPNO_CCSD_T1-NormalPNO-augtz-gas.scfp.tmp) ****
             **** ENERGY FILE WAS UPDATED (simple-grid-205-235-b3lyp_d3bj-631gd-gas-singlepoint-DLPNO_CCSD_T1-NormalPNO-augtz-gas.en.tmp) ****
----------------------
UHF SPIN CONTAMINATION
----------------------

Expectation value of <S**2>     :     8.764441
Ideal value S*(S+1) for S=2.5   :     8.750000
Deviation                       :     0.014441

----------------
ORBITAL ENERGIES
----------------
                 SPIN UP ORBITALS
  NO   OCC          E(Eh)            E(eV) 
   0   1.0000    -261.555592     -7117.2895 
   1   1.0000    -104.779809     -2851.2035 
   2   1.0000    -104.777629     -2851.1442 
   3   1.0000    -104.776938     -2851.1254 
   4   1.0000     -32.223466      -876.8451 
   5   1.0000     -27.699509      -753.7419 
   6   1.0000     -27.699080      -753.7303 
   7   1.0000     -27.698884      -753.7249 
   8   1.0000     -20.562678      -559.5389 
   9   1.0000     -11.397858      -310.1515 
  10   1.0000     -11.345230      -308.7194 
  11   1.0000     -11.273488      -306.7672 
  12   1.0000     -11.266701      -306.5825 
  13   1.0000     -11.260414      -306.4114 
  14   1.0000     -11.257491      -306.3319 
  15   1.0000     -11.257041      -306.3197 
  16   1.0000     -11.254071      -306.2388 
  17   1.0000     -10.506417      -285.8941 
  18   1.0000     -10.504180      -285.8333 
  19   1.0000     -10.503515      -285.8152 
  20   1.0000      -7.973296      -216.9644 
  21   1.0000      -7.972459      -216.9416 
  22   1.0000      -7.972418      -216.9405 
  23   1.0000      -7.970992      -216.9017 
  24   1.0000      -7.970363      -216.8846 
  25   1.0000      -7.970286      -216.8825 
  26   1.0000      -7.970204      -216.8803 
  27   1.0000      -7.969614      -216.8642 
  28   1.0000      -7.969533      -216.8620 
  29   1.0000      -4.578814      -124.5959 
  30   1.0000      -3.191560       -86.8468 
  31   1.0000      -3.190752       -86.8248 
  32   1.0000      -3.190309       -86.8127 
  33   1.0000      -1.410444       -38.3801 
  34   1.0000      -1.169079       -31.8123 
  35   1.0000      -1.087010       -29.5790 
  36   1.0000      -1.051331       -28.6082 
  37   1.0000      -1.045905       -28.4605 
  38   1.0000      -1.043828       -28.4040 
  39   1.0000      -1.040257       -28.3068 
  40   1.0000      -0.996767       -27.1234 
  41   1.0000      -0.985611       -26.8198 
  42   1.0000      -0.930799       -25.3283 
  43   1.0000      -0.919395       -25.0180 
  44   1.0000      -0.908304       -24.7162 
  45   1.0000      -0.908187       -24.7130 
  46   1.0000      -0.898939       -24.4614 
  47   1.0000      -0.898741       -24.4560 
  48   1.0000      -0.789294       -21.4778 
  49   1.0000      -0.759918       -20.6784 
  50   1.0000      -0.694986       -18.9115 
  51   1.0000      -0.693008       -18.8577 
  52   1.0000      -0.679126       -18.4800 
  53   1.0000      -0.660839       -17.9823 
  54   1.0000      -0.645936       -17.5768 
  55   1.0000      -0.622781       -16.9467 
  56   1.0000      -0.602117       -16.3844 
  57   1.0000      -0.594475       -16.1765 
  58   1.0000      -0.586480       -15.9589 
  59   1.0000      -0.577885       -15.7250 
  60   1.0000      -0.573821       -15.6145 
  61   1.0000      -0.564141       -15.3511 
  62   1.0000      -0.554451       -15.0874 
  63   1.0000      -0.551752       -15.0139 
  64   1.0000      -0.540881       -14.7181 
  65   1.0000      -0.524403       -14.2697 
  66   1.0000      -0.515417       -14.0252 
  67   1.0000      -0.481228       -13.0949 
  68   1.0000      -0.465462       -12.6659 
  69   1.0000      -0.456556       -12.4235 
  70   1.0000      -0.432409       -11.7664 
  71   1.0000      -0.428347       -11.6559 
  72   1.0000      -0.426695       -11.6110 
  73   1.0000      -0.418451       -11.3866 
  74   1.0000      -0.416934       -11.3454 
  75   1.0000      -0.416122       -11.3233 
  76   1.0000      -0.382704       -10.4139 
  77   0.0000       0.009884         0.2689 
  78   0.0000       0.020489         0.5575 
  79   0.0000       0.022000         0.5986 
  80   0.0000       0.030086         0.8187 
  81   0.0000       0.036732         0.9995 
  82   0.0000       0.038561         1.0493 
  83   0.0000       0.041381         1.1260 
  84   0.0000       0.044162         1.2017 
  85   0.0000       0.045391         1.2351 
  86   0.0000       0.048857         1.3295 
  87   0.0000       0.056323         1.5326 
  88   0.0000       0.059133         1.6091 
  89   0.0000       0.062390         1.6977 
  90   0.0000       0.065620         1.7856 
  91   0.0000       0.068116         1.8535 
  92   0.0000       0.072413         1.9705 
  93   0.0000       0.074003         2.0137 
  94   0.0000       0.077893         2.1196 
  95   0.0000       0.090344         2.4584 
  96   0.0000       0.090968         2.4754 
  97   0.0000       0.091768         2.4971 
  98   0.0000       0.096308         2.6207 
  99   0.0000       0.100938         2.7467 
 100   0.0000       0.101966         2.7746 
 101   0.0000       0.110148         2.9973 
 102   0.0000       0.114312         3.1106 
 103   0.0000       0.120455         3.2778 
 104   0.0000       0.123329         3.3559 
 105   0.0000       0.125942         3.4270 
 106   0.0000       0.127478         3.4689 
 107   0.0000       0.128835         3.5058 
 108   0.0000       0.131532         3.5792 
 109   0.0000       0.134406         3.6574 
 110   0.0000       0.138236         3.7616 
 111   0.0000       0.139057         3.7839 
 112   0.0000       0.142543         3.8788 
 113   0.0000       0.148223         4.0333 
 114   0.0000       0.151173         4.1136 
 115   0.0000       0.151721         4.1285 
 116   0.0000       0.155805         4.2397 
 117   0.0000       0.160278         4.3614 
 118   0.0000       0.165206         4.4955 
 119   0.0000       0.167368         4.5543 
 120   0.0000       0.168766         4.5924 
 121   0.0000       0.171634         4.6704 
 122   0.0000       0.173974         4.7341 
 123   0.0000       0.176599         4.8055 
 124   0.0000       0.181289         4.9331 
 125   0.0000       0.187452         5.1008 
 126   0.0000       0.190148         5.1742 
 127   0.0000       0.193688         5.2705 
 128   0.0000       0.196369         5.3435 
 129   0.0000       0.200816         5.4645 
 130   0.0000       0.202135         5.5004 
 131   0.0000       0.205001         5.5784 
 132   0.0000       0.206677         5.6240 
 133   0.0000       0.210518         5.7285 
 134   0.0000       0.212707         5.7881 
 135   0.0000       0.215088         5.8528 
 136   0.0000       0.218029         5.9329 
 137   0.0000       0.223431         6.0799 
 138   0.0000       0.229279         6.2390 
 139   0.0000       0.231047         6.2871 
 140   0.0000       0.234572         6.3830 
 141   0.0000       0.236660         6.4398 
 142   0.0000       0.237876         6.4729 
 143   0.0000       0.244912         6.6644 
 144   0.0000       0.247825         6.7437 
 145   0.0000       0.251822         6.8524 
 146   0.0000       0.252707         6.8765 
 147   0.0000       0.253516         6.8985 
 148   0.0000       0.261223         7.1082 
 149   0.0000       0.262893         7.1537 
 150   0.0000       0.268273         7.3001 
 151   0.0000       0.269765         7.3407 
 152   0.0000       0.275271         7.4905 
 153   0.0000       0.280693         7.6380 
 154   0.0000       0.283437         7.7127 
 155   0.0000       0.287310         7.8181 
 156   0.0000       0.289543         7.8789 
 157   0.0000       0.297907         8.1064 
 158   0.0000       0.302249         8.2246 
 159   0.0000       0.305835         8.3222 
 160   0.0000       0.307213         8.3597 
 161   0.0000       0.312475         8.5029 
 162   0.0000       0.318129         8.6567 
 163   0.0000       0.320583         8.7235 
 164   0.0000       0.324968         8.8428 
 165   0.0000       0.330275         8.9872 
 166   0.0000       0.333069         9.0633 
 167   0.0000       0.336628         9.1601 
 168   0.0000       0.340804         9.2737 
 169   0.0000       0.345378         9.3982 
 170   0.0000       0.349315         9.5054 
 171   0.0000       0.356296         9.6953 
 172   0.0000       0.357916         9.7394 
 173   0.0000       0.360396         9.8069 
 174   0.0000       0.362308         9.8589 
 175   0.0000       0.365165         9.9367 
 176   0.0000       0.368432        10.0255 
 177   0.0000       0.370003        10.0683 
 178   0.0000       0.372189        10.1278 
 179   0.0000       0.375947        10.2301 
 180   0.0000       0.381591        10.3836 
 181   0.0000       0.385039        10.4774 
 182   0.0000       0.388823        10.5804 
 183   0.0000       0.391462        10.6522 
 184   0.0000       0.391752        10.6601 
 185   0.0000       0.396601        10.7921 
 186   0.0000       0.398576        10.8458 
 187   0.0000       0.401730        10.9316 
 188   0.0000       0.404190        10.9986 
 189   0.0000       0.408510        11.1161 
 190   0.0000       0.413326        11.2472 
 191   0.0000       0.415422        11.3042 
 192   0.0000       0.418443        11.3864 
 193   0.0000       0.423526        11.5247 
 194   0.0000       0.431905        11.7527 
 195   0.0000       0.433019        11.7830 
 196   0.0000       0.437436        11.9032 
 197   0.0000       0.440587        11.9890 
 198   0.0000       0.445922        12.1342 
 199   0.0000       0.448764        12.2115 
 200   0.0000       0.453879        12.3507 
 201   0.0000       0.455076        12.3832 
 202   0.0000       0.457446        12.4477 
 203   0.0000       0.461416        12.5558 
 204   0.0000       0.464960        12.6522 
 205   0.0000       0.469438        12.7740 
 206   0.0000       0.472585        12.8597 
 207   0.0000       0.475899        12.9499 
 208   0.0000       0.476778        12.9738 
 209   0.0000       0.479654        13.0520 
 210   0.0000       0.482342        13.1252 
 211   0.0000       0.485342        13.2068 
 212   0.0000       0.487824        13.2744 
 213   0.0000       0.495732        13.4896 
 214   0.0000       0.498183        13.5562 
 215   0.0000       0.503886        13.7114 
 216   0.0000       0.505916        13.7667 
 217   0.0000       0.506481        13.7821 
 218   0.0000       0.510001        13.8778 
 219   0.0000       0.511358        13.9148 
 220   0.0000       0.514093        13.9892 
 221   0.0000       0.515498        14.0274 
 222   0.0000       0.521218        14.1831 
 223   0.0000       0.525499        14.2996 
 224   0.0000       0.529545        14.4096 
 225   0.0000       0.532780        14.4977 
 226   0.0000       0.536292        14.5933 
 227   0.0000       0.542690        14.7673 
 228   0.0000       0.543601        14.7921 
 229   0.0000       0.547293        14.8926 
 230   0.0000       0.551127        14.9969 
 231   0.0000       0.554094        15.0777 
 232   0.0000       0.558415        15.1952 
 233   0.0000       0.563248        15.3268 
 234   0.0000       0.567603        15.4453 
 235   0.0000       0.570756        15.5311 
 236   0.0000       0.572398        15.5757 
 237   0.0000       0.577765        15.7218 
 238   0.0000       0.579335        15.7645 
 239   0.0000       0.584306        15.8998 
 240   0.0000       0.591272        16.0893 
 241   0.0000       0.593867        16.1599 
 242   0.0000       0.598354        16.2821 
 243   0.0000       0.601106        16.3569 
 244   0.0000       0.602353        16.3909 
 245   0.0000       0.608700        16.5636 
 246   0.0000       0.611004        16.6263 
 247   0.0000       0.616546        16.7771 
 248   0.0000       0.620147        16.8750 
 249   0.0000       0.622001        16.9255 
 250   0.0000       0.629732        17.1359 
 251   0.0000       0.635869        17.3029 
 252   0.0000       0.637087        17.3360 
 253   0.0000       0.640657        17.4332 
 254   0.0000       0.643980        17.5236 
 255   0.0000       0.645256        17.5583 
 256   0.0000       0.649990        17.6871 
 257   0.0000       0.652189        17.7470 
 258   0.0000       0.655778        17.8446 
 259   0.0000       0.657619        17.8947 
 260   0.0000       0.659220        17.9383 
 261   0.0000       0.666659        18.1407 
 262   0.0000       0.672615        18.3028 
 263   0.0000       0.676580        18.4107 
 264   0.0000       0.678274        18.4568 
 265   0.0000       0.684089        18.6150 
 266   0.0000       0.690652        18.7936 
 267   0.0000       0.693979        18.8841 
 268   0.0000       0.696465        18.9518 
 269   0.0000       0.700299        19.0561 
 270   0.0000       0.705343        19.1934 
 271   0.0000       0.710999        19.3473 
 272   0.0000       0.716669        19.5016 
 273   0.0000       0.719076        19.5671 
 274   0.0000       0.728554        19.8249 
 275   0.0000       0.731855        19.9148 
 276   0.0000       0.736635        20.0449 
 277   0.0000       0.738936        20.1075 
 278   0.0000       0.743840        20.2409 
 279   0.0000       0.746581        20.3155 
 280   0.0000       0.752658        20.4809 
 281   0.0000       0.756388        20.5824 
 282   0.0000       0.762346        20.7445 
 283   0.0000       0.772599        21.0235 
 284   0.0000       0.776320        21.1247 
 285   0.0000       0.778639        21.1879 
 286   0.0000       0.784093        21.3363 
 287   0.0000       0.792544        21.5662 
 288   0.0000       0.797834        21.7102 
 289   0.0000       0.807927        21.9848 
 290   0.0000       0.812273        22.1031 
 291   0.0000       0.815072        22.1792 
 292   0.0000       0.826737        22.4966 
 293   0.0000       0.827523        22.5181 
 294   0.0000       0.830515        22.5995 
 295   0.0000       0.834206        22.6999 
 296   0.0000       0.842323        22.9208 
 297   0.0000       0.849268        23.1098 
 298   0.0000       0.852091        23.1866 
 299   0.0000       0.859267        23.3818 
 300   0.0000       0.861846        23.4520 
 301   0.0000       0.871721        23.7207 
 302   0.0000       0.880420        23.9575 
 303   0.0000       0.881119        23.9765 
 304   0.0000       0.882296        24.0085 
 305   0.0000       0.888129        24.1672 
 306   0.0000       0.894097        24.3296 
 307   0.0000       0.901656        24.5353 
 308   0.0000       0.904308        24.6075 
 309   0.0000       0.907538        24.6954 
 310   0.0000       0.910002        24.7624 
 311   0.0000       0.912184        24.8218 
 312   0.0000       0.918518        24.9941 
 313   0.0000       0.919015        25.0077 
 314   0.0000       0.923978        25.1427 
 315   0.0000       0.931760        25.3545 
 316   0.0000       0.938397        25.5351 
 317   0.0000       0.941432        25.6177 
 318   0.0000       0.943816        25.6825 
 319   0.0000       0.945875        25.7386 
 320   0.0000       0.951823        25.9004 
 321   0.0000       0.955873        26.0106 
 322   0.0000       0.956918        26.0391 
 323   0.0000       0.959180        26.1006 
 324   0.0000       0.964938        26.2573 
 325   0.0000       0.965430        26.2707 
 326   0.0000       0.967659        26.3313 
 327   0.0000       0.972614        26.4662 
 328   0.0000       0.979411        26.6511 
 329   0.0000       0.983084        26.7511 
 330   0.0000       0.986348        26.8399 
 331   0.0000       0.988228        26.8911 
 332   0.0000       0.991272        26.9739 
 333   0.0000       0.997802        27.1516 
 334   0.0000       1.000243        27.2180 
 335   0.0000       1.003677        27.3114 
 336   0.0000       1.006309        27.3831 
 337   0.0000       1.009377        27.4665 
 338   0.0000       1.012612        27.5546 
 339   0.0000       1.016949        27.6726 
 340   0.0000       1.024644        27.8820 
 341   0.0000       1.026435        27.9307 
 342   0.0000       1.029778        28.0217 
 343   0.0000       1.032410        28.0933 
 344   0.0000       1.037744        28.2385 
 345   0.0000       1.040047        28.3011 
 346   0.0000       1.042399        28.3651 
 347   0.0000       1.044900        28.4332 
 348   0.0000       1.049754        28.5652 
 349   0.0000       1.056826        28.7577 
 350   0.0000       1.058336        28.7988 
 351   0.0000       1.064522        28.9671 
 352   0.0000       1.066142        29.0112 
 353   0.0000       1.070722        29.1358 
 354   0.0000       1.075771        29.2732 
 355   0.0000       1.078471        29.3467 
 356   0.0000       1.081973        29.4420 
 357   0.0000       1.083057        29.4715 
 358   0.0000       1.088658        29.6239 
 359   0.0000       1.090150        29.6645 
 360   0.0000       1.101375        29.9699 
 361   0.0000       1.102857        30.0103 
 362   0.0000       1.105045        30.0698 
 363   0.0000       1.108539        30.1649 
 364   0.0000       1.112911        30.2838 
 365   0.0000       1.118763        30.4431 
 366   0.0000       1.121823        30.5263 
 367   0.0000       1.127161        30.6716 
 368   0.0000       1.131647        30.7937 
 369   0.0000       1.133049        30.8318 
 370   0.0000       1.139333        31.0028 
 371   0.0000       1.144997        31.1569 
 372   0.0000       1.148621        31.2556 
 373   0.0000       1.152243        31.3541 
 374   0.0000       1.162024        31.6203 
 375   0.0000       1.163343        31.6562 
 376   0.0000       1.170258        31.8443 
 377   0.0000       1.173551        31.9339 
 378   0.0000       1.173738        31.9390 
 379   0.0000       1.180848        32.1325 
 380   0.0000       1.184874        32.2421 
 381   0.0000       1.190188        32.3867 
 382   0.0000       1.195082        32.5198 
 383   0.0000       1.199821        32.6488 
 384   0.0000       1.205961        32.8159 
 385   0.0000       1.214012        33.0349 
 386   0.0000       1.214972        33.0611 
 387   0.0000       1.216657        33.1069 
 388   0.0000       1.221107        33.2280 
 389   0.0000       1.230384        33.4805 
 390   0.0000       1.236343        33.6426 
 391   0.0000       1.240210        33.7478 
 392   0.0000       1.242650        33.8142 
 393   0.0000       1.245750        33.8986 
 394   0.0000       1.253153        34.1000 
 395   0.0000       1.258998        34.2591 
 396   0.0000       1.261996        34.3407 
 397   0.0000       1.267312        34.4853 
 398   0.0000       1.271483        34.5988 
 399   0.0000       1.276995        34.7488 
 400   0.0000       1.280636        34.8479 
 401   0.0000       1.285336        34.9758 
 402   0.0000       1.288339        35.0575 
 403   0.0000       1.293265        35.1915 
 404   0.0000       1.301871        35.4257 
 405   0.0000       1.306775        35.5591 
 406   0.0000       1.310119        35.6501 
 407   0.0000       1.317621        35.8543 
 408   0.0000       1.325684        36.0737 
 409   0.0000       1.330925        36.2163 
 410   0.0000       1.332971        36.2720 
 411   0.0000       1.335869        36.3508 
 412   0.0000       1.341562        36.5058 
 413   0.0000       1.350393        36.7461 
 414   0.0000       1.353113        36.8201 
 415   0.0000       1.360884        37.0315 
 416   0.0000       1.368107        37.2281 
 417   0.0000       1.368602        37.2416 
 418   0.0000       1.371635        37.3241 
 419   0.0000       1.375087        37.4180 
 420   0.0000       1.384139        37.6643 
 421   0.0000       1.388875        37.7932 
 422   0.0000       1.396402        37.9980 
 423   0.0000       1.401753        38.1436 
 424   0.0000       1.409026        38.3415 
 425   0.0000       1.410066        38.3698 
 426   0.0000       1.418396        38.5965 
 427   0.0000       1.424424        38.7606 
 428   0.0000       1.432035        38.9677 
 429   0.0000       1.435282        39.0560 
 430   0.0000       1.439927        39.1824 
 431   0.0000       1.441462        39.2242 
 432   0.0000       1.448593        39.4182 
 433   0.0000       1.458907        39.6989 
 434   0.0000       1.463922        39.8353 
 435   0.0000       1.464910        39.8622 
 436   0.0000       1.476057        40.1655 
 437   0.0000       1.478591        40.2345 
 438   0.0000       1.482573        40.3429 
 439   0.0000       1.486058        40.4377 
 440   0.0000       1.496791        40.7298 
 441   0.0000       1.499337        40.7990 
 442   0.0000       1.503000        40.8987 
 443   0.0000       1.507832        41.0302 
 444   0.0000       1.509819        41.0843 
 445   0.0000       1.515477        41.2382 
 446   0.0000       1.520522        41.3755 
 447   0.0000       1.525154        41.5016 
 448   0.0000       1.538835        41.8738 
 449   0.0000       1.542435        41.9718 
 450   0.0000       1.545151        42.0457 
 451   0.0000       1.548658        42.1411 
 452   0.0000       1.555513        42.3277 
 453   0.0000       1.561983        42.5037 
 454   0.0000       1.567596        42.6565 
 455   0.0000       1.570866        42.7454 
 456   0.0000       1.575711        42.8773 
 457   0.0000       1.581568        43.0367 
 458   0.0000       1.583170        43.0802 
 459   0.0000       1.587674        43.2028 
 460   0.0000       1.596280        43.4370 
 461   0.0000       1.601808        43.5874 
 462   0.0000       1.606685        43.7201 
 463   0.0000       1.610125        43.8137 
 464   0.0000       1.615955        43.9724 
 465   0.0000       1.623405        44.1751 
 466   0.0000       1.628563        44.3155 
 467   0.0000       1.629767        44.3482 
 468   0.0000       1.638312        44.5807 
 469   0.0000       1.640436        44.6385 
 470   0.0000       1.656955        45.0880 
 471   0.0000       1.660687        45.1896 
 472   0.0000       1.664645        45.2973 
 473   0.0000       1.667221        45.3674 
 474   0.0000       1.671027        45.4710 
 475   0.0000       1.678428        45.6724 
 476   0.0000       1.680317        45.7238 
 477   0.0000       1.688584        45.9487 
 478   0.0000       1.694261        46.1032 
 479   0.0000       1.699436        46.2440 
 480   0.0000       1.701101        46.2893 
 481   0.0000       1.705637        46.4128 
 482   0.0000       1.709608        46.5208 
 483   0.0000       1.716572        46.7103 
 484   0.0000       1.720406        46.8146 
 485   0.0000       1.725621        46.9565 
 486   0.0000       1.733159        47.1617 
 487   0.0000       1.738869        47.3170 
 488   0.0000       1.749531        47.6072 
 489   0.0000       1.749729        47.6125 
 490   0.0000       1.760872        47.9158 
 491   0.0000       1.765450        48.0403 
 492   0.0000       1.767082        48.0847 
 493   0.0000       1.774741        48.2931 
 494   0.0000       1.776682        48.3460 
 495   0.0000       1.778160        48.3862 
 496   0.0000       1.781071        48.4654 
 497   0.0000       1.788321        48.6627 
 498   0.0000       1.795153        48.8486 
 499   0.0000       1.801286        49.0155 
 500   0.0000       1.809611        49.2420 
 501   0.0000       1.812122        49.3103 
 502   0.0000       1.812864        49.3305 
 503   0.0000       1.815990        49.4156 
 504   0.0000       1.821554        49.5670 
 505   0.0000       1.825815        49.6829 
 506   0.0000       1.836120        49.9634 
 507   0.0000       1.844417        50.1891 
 508   0.0000       1.847136        50.2631 
 509   0.0000       1.851390        50.3789 
 510   0.0000       1.855300        50.4853 
 511   0.0000       1.860252        50.6200 
 512   0.0000       1.870617        50.9021 
 513   0.0000       1.878959        51.1291 
 514   0.0000       1.887455        51.3603 
 515   0.0000       1.889842        51.4252 
 516   0.0000       1.891093        51.4593 
 517   0.0000       1.897174        51.6247 
 518   0.0000       1.898813        51.6693 
 519   0.0000       1.905641        51.8551 
 520   0.0000       1.907919        51.9171 
 521   0.0000       1.911600        52.0173 
 522   0.0000       1.920846        52.2689 
 523   0.0000       1.930317        52.5266 
 524   0.0000       1.933400        52.6105 
 525   0.0000       1.935025        52.6547 
 526   0.0000       1.946856        52.9766 
 527   0.0000       1.947105        52.9834 
 528   0.0000       1.953716        53.1633 
 529   0.0000       1.959196        53.3124 
 530   0.0000       1.967572        53.5404 
 531   0.0000       1.968920        53.5770 
 532   0.0000       1.980011        53.8788 
 533   0.0000       1.984357        53.9971 
 534   0.0000       1.990692        54.1695 
 535   0.0000       1.995826        54.3092 
 536   0.0000       1.997508        54.3549 
 537   0.0000       2.006226        54.5922 
 538   0.0000       2.012413        54.7605 
 539   0.0000       2.022114        55.0245 
 540   0.0000       2.029295        55.2199 
 541   0.0000       2.036581        55.4182 
 542   0.0000       2.041420        55.5499 
 543   0.0000       2.043506        55.6066 
 544   0.0000       2.049450        55.7684 
 545   0.0000       2.061886        56.1068 
 546   0.0000       2.068932        56.2985 
 547   0.0000       2.074682        56.4550 
 548   0.0000       2.081421        56.6383 
 549   0.0000       2.090839        56.8946 
 550   0.0000       2.093454        56.9658 
 551   0.0000       2.098495        57.1030 
 552   0.0000       2.111995        57.4703 
 553   0.0000       2.114940        57.5504 
 554   0.0000       2.121676        57.7337 
 555   0.0000       2.125597        57.8404 
 556   0.0000       2.133093        58.0444 
 557   0.0000       2.142782        58.3081 
 558   0.0000       2.145266        58.3757 
 559   0.0000       2.152452        58.5712 
 560   0.0000       2.157017        58.6954 
 561   0.0000       2.166421        58.9513 
 562   0.0000       2.170582        59.0645 
 563   0.0000       2.184150        59.4337 
 564   0.0000       2.195395        59.7397 
 565   0.0000       2.198538        59.8253 
 566   0.0000       2.209231        60.1162 
 567   0.0000       2.210375        60.1474 
 568   0.0000       2.215298        60.2813 
 569   0.0000       2.224714        60.5375 
 570   0.0000       2.227361        60.6096 
 571   0.0000       2.239985        60.9531 
 572   0.0000       2.248616        61.1879 
 573   0.0000       2.250675        61.2440 
 574   0.0000       2.258009        61.4435 
 575   0.0000       2.267209        61.6939 
 576   0.0000       2.272970        61.8507 
 577   0.0000       2.280259        62.0490 
 578   0.0000       2.287034        62.2334 
 579   0.0000       2.291697        62.3603 
 580   0.0000       2.294424        62.4344 
 581   0.0000       2.304536        62.7096 
 582   0.0000       2.311829        62.9081 
 583   0.0000       2.319117        63.1064 
 584   0.0000       2.328766        63.3689 
 585   0.0000       2.339702        63.6665 
 586   0.0000       2.342759        63.7497 
 587   0.0000       2.346820        63.8602 
 588   0.0000       2.360300        64.2270 
 589   0.0000       2.375419        64.6385 
 590   0.0000       2.382795        64.8391 
 591   0.0000       2.386036        64.9273 
 592   0.0000       2.394225        65.1502 
 593   0.0000       2.401400        65.3454 
 594   0.0000       2.410466        65.5921 
 595   0.0000       2.418346        65.8065 
 596   0.0000       2.426659        66.0327 
 597   0.0000       2.434915        66.2574 
 598   0.0000       2.439975        66.3951 
 599   0.0000       2.445508        66.5456 
 600   0.0000       2.456159        66.8355 
 601   0.0000       2.460747        66.9603 
 602   0.0000       2.471467        67.2520 
 603   0.0000       2.483767        67.5867 
 604   0.0000       2.493083        67.8402 
 605   0.0000       2.498547        67.9889 
 606   0.0000       2.503983        68.1368 
 607   0.0000       2.513503        68.3959 
 608   0.0000       2.528732        68.8103 
 609   0.0000       2.538553        69.0775 
 610   0.0000       2.552571        69.4590 
 611   0.0000       2.569947        69.9318 
 612   0.0000       2.573368        70.0249 
 613   0.0000       2.586259        70.3757 
 614   0.0000       2.591479        70.5177 
 615   0.0000       2.607648        70.9577 
 616   0.0000       2.623887        71.3996 
 617   0.0000       2.626538        71.4717 
 618   0.0000       2.645450        71.9864 
 619   0.0000       2.659738        72.3751 
 620   0.0000       2.665968        72.5447 
 621   0.0000       2.676781        72.8389 
 622   0.0000       2.681522        72.9679 
 623   0.0000       2.687654        73.1348 
 624   0.0000       2.700279        73.4783 
 625   0.0000       2.704214        73.5854 
 626   0.0000       2.717525        73.9476 
 627   0.0000       2.718326        73.9694 
 628   0.0000       2.731908        74.3390 
 629   0.0000       2.738771        74.5258 
 630   0.0000       2.748710        74.7962 
 631   0.0000       2.758228        75.0552 
 632   0.0000       2.773428        75.4688 
 633   0.0000       2.781340        75.6841 
 634   0.0000       2.788463        75.8779 
 635   0.0000       2.794132        76.0322 
 636   0.0000       2.808040        76.4107 
 637   0.0000       2.823304        76.8260 
 638   0.0000       2.824077        76.8470 
 639   0.0000       2.861208        77.8574 
 640   0.0000       2.865561        77.9759 
 641   0.0000       2.879177        78.3464 
 642   0.0000       2.891982        78.6948 
 643   0.0000       2.903124        78.9980 
 644   0.0000       2.919405        79.4411 
 645   0.0000       2.919999        79.4572 
 646   0.0000       2.943040        80.0842 
 647   0.0000       2.946956        80.1907 
 648   0.0000       2.949437        80.2583 
 649   0.0000       2.957984        80.4908 
 650   0.0000       2.990349        81.3715 
 651   0.0000       3.004678        81.7614 
 652   0.0000       3.017565        82.1121 
 653   0.0000       3.037479        82.6540 
 654   0.0000       3.058393        83.2231 
 655   0.0000       3.062376        83.3315 
 656   0.0000       3.073426        83.6322 
 657   0.0000       3.082539        83.8801 
 658   0.0000       3.097677        84.2921 
 659   0.0000       3.116913        84.8155 
 660   0.0000       3.124242        85.0149 
 661   0.0000       3.149004        85.6887 
 662   0.0000       3.159541        85.9755 
 663   0.0000       3.168128        86.2092 
 664   0.0000       3.188517        86.7640 
 665   0.0000       3.197187        86.9999 
 666   0.0000       3.201191        87.1088 
 667   0.0000       3.220137        87.6244 
 668   0.0000       3.226184        87.7889 
 669   0.0000       3.236100        88.0587 
 670   0.0000       3.247545        88.3702 
 671   0.0000       3.260380        88.7195 
 672   0.0000       3.268012        88.9271 
 673   0.0000       3.271210        89.0142 
 674   0.0000       3.282877        89.3316 
 675   0.0000       3.295427        89.6731 
 676   0.0000       3.301340        89.8340 
 677   0.0000       3.312191        90.1293 
 678   0.0000       3.315214        90.2116 
 679   0.0000       3.331292        90.6491 
 680   0.0000       3.341420        90.9247 
 681   0.0000       3.345287        91.0299 
 682   0.0000       3.352761        91.2333 
 683   0.0000       3.355199        91.2996 
 684   0.0000       3.361168        91.4620 
 685   0.0000       3.377747        91.9132 
 686   0.0000       3.388001        92.1922 
 687   0.0000       3.397571        92.4526 
 688   0.0000       3.420406        93.0740 
 689   0.0000       3.430349        93.3445 
 690   0.0000       3.440545        93.6220 
 691   0.0000       3.450870        93.9029 
 692   0.0000       3.460821        94.1737 
 693   0.0000       3.461640        94.1960 
 694   0.0000       3.479922        94.6935 
 695   0.0000       3.485901        94.8562 
 696   0.0000       3.491129        94.9985 
 697   0.0000       3.497934        95.1836 
 698   0.0000       3.507364        95.4402 
 699   0.0000       3.513098        95.5962 
 700   0.0000       3.518192        95.7349 
 701   0.0000       3.529880        96.0529 
 702   0.0000       3.544098        96.4398 
 703   0.0000       3.551286        96.6354 
 704   0.0000       3.554184        96.7143 
 705   0.0000       3.574965        97.2798 
 706   0.0000       3.582803        97.4930 
 707   0.0000       3.586666        97.5981 
 708   0.0000       3.588840        97.6573 
 709   0.0000       3.596920        97.8772 
 710   0.0000       3.611368        98.2703 
 711   0.0000       3.612855        98.3108 
 712   0.0000       3.620864        98.5287 
 713   0.0000       3.623856        98.6101 
 714   0.0000       3.632479        98.8448 
 715   0.0000       3.642841        99.1267 
 716   0.0000       3.653371        99.4133 
 717   0.0000       3.665422        99.7412 
 718   0.0000       3.676131       100.0326 
 719   0.0000       3.683611       100.2362 
 720   0.0000       3.693177       100.4965 
 721   0.0000       3.695163       100.5505 
 722   0.0000       3.695755       100.5666 
 723   0.0000       3.714839       101.0859 
 724   0.0000       3.716884       101.1416 
 725   0.0000       3.729254       101.4782 
 726   0.0000       3.730747       101.5188 
 727   0.0000       3.735799       101.6562 
 728   0.0000       3.750369       102.0527 
 729   0.0000       3.758147       102.2644 
 730   0.0000       3.763261       102.4035 
 731   0.0000       3.774319       102.7044 
 732   0.0000       3.782765       102.9343 
 733   0.0000       3.784002       102.9679 
 734   0.0000       3.797111       103.3247 
 735   0.0000       3.804055       103.5136 
 736   0.0000       3.812875       103.7536 
 737   0.0000       3.814803       103.8061 
 738   0.0000       3.817302       103.8741 
 739   0.0000       3.830641       104.2370 
 740   0.0000       3.834864       104.3520 
 741   0.0000       3.836397       104.3937 
 742   0.0000       3.846574       104.6706 
 743   0.0000       3.853738       104.8655 
 744   0.0000       3.863416       105.1289 
 745   0.0000       3.884455       105.7014 
 746   0.0000       3.885657       105.7341 
 747   0.0000       3.894171       105.9658 
 748   0.0000       3.901448       106.1638 
 749   0.0000       3.908705       106.3613 
 750   0.0000       3.915272       106.5400 
 751   0.0000       3.917907       106.6117 
 752   0.0000       3.918464       106.6268 
 753   0.0000       3.925423       106.8162 
 754   0.0000       3.934649       107.0672 
 755   0.0000       3.935641       107.0942 
 756   0.0000       3.947284       107.4111 
 757   0.0000       3.952461       107.5519 
 758   0.0000       3.959259       107.7369 
 759   0.0000       3.966555       107.9355 
 760   0.0000       3.975291       108.1732 
 761   0.0000       3.979645       108.2916 
 762   0.0000       3.991205       108.6062 
 763   0.0000       4.001427       108.8844 
 764   0.0000       4.005895       109.0059 
 765   0.0000       4.011071       109.1468 
 766   0.0000       4.013089       109.2017 
 767   0.0000       4.029841       109.6575 
 768   0.0000       4.039549       109.9217 
 769   0.0000       4.041693       109.9801 
 770   0.0000       4.052703       110.2796 
 771   0.0000       4.057493       110.4100 
 772   0.0000       4.068005       110.6960 
 773   0.0000       4.075121       110.8897 
 774   0.0000       4.080645       111.0400 
 775   0.0000       4.091046       111.3230 
 776   0.0000       4.104065       111.6773 
 777   0.0000       4.107158       111.7615 
 778   0.0000       4.109644       111.8291 
 779   0.0000       4.125544       112.2618 
 780   0.0000       4.130744       112.4033 
 781   0.0000       4.136488       112.5596 
 782   0.0000       4.143418       112.7481 
 783   0.0000       4.149821       112.9224 
 784   0.0000       4.155475       113.0762 
 785   0.0000       4.164132       113.3118 
 786   0.0000       4.176497       113.6483 
 787   0.0000       4.186629       113.9240 
 788   0.0000       4.200616       114.3046 
 789   0.0000       4.205922       114.4490 
 790   0.0000       4.207746       114.4986 
 791   0.0000       4.224382       114.9513 
 792   0.0000       4.227846       115.0455 
 793   0.0000       4.235145       115.2442 
 794   0.0000       4.245955       115.5383 
 795   0.0000       4.249828       115.6437 
 796   0.0000       4.256899       115.8361 
 797   0.0000       4.268287       116.1460 
 798   0.0000       4.271613       116.2365 
 799   0.0000       4.285446       116.6129 
 800   0.0000       4.295374       116.8831 
 801   0.0000       4.306291       117.1801 
 802   0.0000       4.311412       117.3195 
 803   0.0000       4.322355       117.6173 
 804   0.0000       4.327762       117.7644 
 805   0.0000       4.333958       117.9330 
 806   0.0000       4.344213       118.2120 
 807   0.0000       4.364494       118.7639 
 808   0.0000       4.367961       118.8582 
 809   0.0000       4.381452       119.2254 
 810   0.0000       4.382951       119.2662 
 811   0.0000       4.397518       119.6626 
 812   0.0000       4.401251       119.7641 
 813   0.0000       4.415086       120.1406 
 814   0.0000       4.427154       120.4690 
 815   0.0000       4.429469       120.5320 
 816   0.0000       4.435954       120.7084 
 817   0.0000       4.441220       120.8517 
 818   0.0000       4.458609       121.3249 
 819   0.0000       4.460036       121.3638 
 820   0.0000       4.481761       121.9549 
 821   0.0000       4.489274       122.1594 
 822   0.0000       4.495917       122.3401 
 823   0.0000       4.506816       122.6367 
 824   0.0000       4.516131       122.8902 
 825   0.0000       4.521952       123.0486 
 826   0.0000       4.538659       123.5032 
 827   0.0000       4.539836       123.5352 
 828   0.0000       4.547159       123.7345 
 829   0.0000       4.563123       124.1689 
 830   0.0000       4.573218       124.4436 
 831   0.0000       4.593301       124.9901 
 832   0.0000       4.603176       125.2588 
 833   0.0000       4.608491       125.4034 
 834   0.0000       4.616522       125.6220 
 835   0.0000       4.621477       125.7568 
 836   0.0000       4.635130       126.1283 
 837   0.0000       4.638591       126.2225 
 838   0.0000       4.659173       126.7826 
 839   0.0000       4.673342       127.1681 
 840   0.0000       4.684438       127.4700 
 841   0.0000       4.690570       127.6369 
 842   0.0000       4.705359       128.0393 
 843   0.0000       4.718843       128.4062 
 844   0.0000       4.722221       128.4982 
 845   0.0000       4.739520       128.9689 
 846   0.0000       4.748344       129.2090 
 847   0.0000       4.769496       129.7846 
 848   0.0000       4.779215       130.0490 
 849   0.0000       4.786629       130.2508 
 850   0.0000       4.792051       130.3983 
 851   0.0000       4.798091       130.5627 
 852   0.0000       4.813700       130.9874 
 853   0.0000       4.817802       131.0990 
 854   0.0000       4.827987       131.3762 
 855   0.0000       4.848863       131.9443 
 856   0.0000       4.854037       132.0851 
 857   0.0000       4.873345       132.6105 
 858   0.0000       4.883581       132.8890 
 859   0.0000       4.895539       133.2144 
 860   0.0000       4.908419       133.5649 
 861   0.0000       4.911934       133.6605 
 862   0.0000       4.925797       134.0378 
 863   0.0000       4.940335       134.4333 
 864   0.0000       4.958980       134.9407 
 865   0.0000       4.959490       134.9546 
 866   0.0000       4.973549       135.3371 
 867   0.0000       4.981918       135.5649 
 868   0.0000       5.003540       136.1532 
 869   0.0000       5.006593       136.2363 
 870   0.0000       5.021237       136.6348 
 871   0.0000       5.027399       136.8025 
 872   0.0000       5.037795       137.0854 
 873   0.0000       5.051697       137.4637 
 874   0.0000       5.064501       137.8121 
 875   0.0000       5.072048       138.0174 
 876   0.0000       5.075024       138.0984 
 877   0.0000       5.095449       138.6542 
 878   0.0000       5.118591       139.2839 
 879   0.0000       5.127529       139.5272 
 880   0.0000       5.136492       139.7710 
 881   0.0000       5.152974       140.2196 
 882   0.0000       5.167405       140.6122 
 883   0.0000       5.171802       140.7319 
 884   0.0000       5.180771       140.9759 
 885   0.0000       5.191652       141.2720 
 886   0.0000       5.208166       141.7214 
 887   0.0000       5.226396       142.2175 
 888   0.0000       5.231028       142.3435 
 889   0.0000       5.241897       142.6393 
 890   0.0000       5.254314       142.9772 
 891   0.0000       5.269847       143.3998 
 892   0.0000       5.282760       143.7512 
 893   0.0000       5.291643       143.9929 
 894   0.0000       5.318065       144.7119 
 895   0.0000       5.327566       144.9704 
 896   0.0000       5.346413       145.4833 
 897   0.0000       5.360421       145.8645 
 898   0.0000       5.366052       146.0177 
 899   0.0000       5.378581       146.3586 
 900   0.0000       5.382899       146.4761 
 901   0.0000       5.394871       146.8019 
 902   0.0000       5.402778       147.0171 
 903   0.0000       5.411162       147.2452 
 904   0.0000       5.413984       147.3220 
 905   0.0000       5.424044       147.5957 
 906   0.0000       5.434886       147.8908 
 907   0.0000       5.453423       148.3952 
 908   0.0000       5.455932       148.4634 
 909   0.0000       5.477207       149.0424 
 910   0.0000       5.497584       149.5969 
 911   0.0000       5.510783       149.9560 
 912   0.0000       5.535220       150.6210 
 913   0.0000       5.541974       150.8048 
 914   0.0000       5.559749       151.2885 
 915   0.0000       5.565830       151.4539 
 916   0.0000       5.581303       151.8750 
 917   0.0000       5.584481       151.9614 
 918   0.0000       5.599417       152.3679 
 919   0.0000       5.603419       152.4768 
 920   0.0000       5.619523       152.9150 
 921   0.0000       5.622438       152.9943 
 922   0.0000       5.640548       153.4871 
 923   0.0000       5.654920       153.8782 
 924   0.0000       5.658151       153.9661 
 925   0.0000       5.674148       154.4014 
 926   0.0000       5.681038       154.5889 
 927   0.0000       5.690836       154.8555 
 928   0.0000       5.703992       155.2135 
 929   0.0000       5.721750       155.6967 
 930   0.0000       5.732517       155.9897 
 931   0.0000       5.733941       156.0285 
 932   0.0000       5.746862       156.3801 
 933   0.0000       5.757821       156.6783 
 934   0.0000       5.768961       156.9814 
 935   0.0000       5.787122       157.4756 
 936   0.0000       5.796930       157.7425 
 937   0.0000       5.812007       158.1528 
 938   0.0000       5.814893       158.2313 
 939   0.0000       5.838545       158.8749 
 940   0.0000       5.855966       159.3489 
 941   0.0000       5.879876       159.9996 
 942   0.0000       5.910581       160.8351 
 943   0.0000       5.932415       161.4292 
 944   0.0000       5.953656       162.0072 
 945   0.0000       5.978589       162.6857 
 946   0.0000       6.051941       164.6817 
 947   0.0000       6.098526       165.9493 
 948   0.0000       6.124912       166.6673 
 949   0.0000       6.137679       167.0147 
 950   0.0000       6.149238       167.3293 
 951   0.0000       6.175214       168.0361 
 952   0.0000       6.187015       168.3572 
 953   0.0000       6.208228       168.9345 
 954   0.0000       6.220090       169.2573 
 955   0.0000       6.232048       169.5826 
 956   0.0000       6.244899       169.9323 
 957   0.0000       6.256490       170.2477 
 958   0.0000       6.266248       170.5133 
 959   0.0000       6.299804       171.4264 
 960   0.0000       6.327851       172.1896 
 961   0.0000       6.336846       172.4343 
 962   0.0000       6.347690       172.7294 
 963   0.0000       6.362132       173.1224 
 964   0.0000       6.397180       174.0761 
 965   0.0000       6.405991       174.3159 
 966   0.0000       6.444554       175.3652 
 967   0.0000       6.465186       175.9267 
 968   0.0000       6.516593       177.3255 
 969   0.0000       6.532349       177.7542 
 970   0.0000       6.597853       179.5367 
 971   0.0000       6.722521       182.9291 
 972   0.0000       6.836807       186.0390 
 973   0.0000       6.862626       186.7415 
 974   0.0000       6.884334       187.3323 
 975   0.0000       6.903410       187.8513 
 976   0.0000       6.945945       189.0088 
 977   0.0000       6.948471       189.0775 
 978   0.0000       6.968144       189.6128 
 979   0.0000       6.996185       190.3759 
 980   0.0000       7.021413       191.0623 
 981   0.0000       7.034193       191.4101 
 982   0.0000       7.071345       192.4211 
 983   0.0000       7.095519       193.0789 
 984   0.0000       7.183551       195.4743 
 985   0.0000       7.197167       195.8449 
 986   0.0000       7.366303       200.4473 
 987   0.0000       7.400790       201.3857 
 988   0.0000       7.489308       203.7944 
 989   0.0000       7.513010       204.4394 
 990   0.0000       7.570393       206.0009 
 991   0.0000       7.625959       207.5129 
 992   0.0000       7.696805       209.4407 
 993   0.0000       7.761050       211.1889 
 994   0.0000       7.839955       213.3360 
 995   0.0000       7.927462       215.7172 
 996   0.0000       8.043829       218.8837 
 997   0.0000       8.129695       221.2202 
 998   0.0000       8.332257       226.7322 
 999   0.0000       9.432456       256.6702 
 1000   0.0000       9.452513       257.2160 
 1001   0.0000       9.465035       257.5567 
 1002   0.0000       9.470983       257.7185 
 1003   0.0000       9.485324       258.1088 
 1004   0.0000       9.516040       258.9446 
 1005   0.0000       9.744237       265.1542 
 1006   0.0000      10.097935       274.7788 
 1007   0.0000      10.123997       275.4880 
 1008   0.0000      10.140297       275.9315 
 1009   0.0000      10.219388       278.0837 
 1010   0.0000      10.222234       278.1611 
 1011   0.0000      10.259082       279.1638 
 1012   0.0000      10.387797       282.6663 
 1013   0.0000      10.429121       283.7908 
 1014   0.0000      10.548957       287.0517 
 1015   0.0000      17.182085       467.5483 
 1016   0.0000      18.053976       491.2737 
 1017   0.0000      18.396975       500.6071 
 1018   0.0000      18.550593       504.7873 
 1019   0.0000      18.816865       512.0329 
 1020   0.0000      18.955503       515.8054 
 1021   0.0000      19.031428       517.8715 
 1022   0.0000      20.338074       553.4271 
 1023   0.0000      20.816808       566.4542 
 1024   0.0000      22.032635       599.5385 

                 SPIN DOWN ORBITALS
  NO   OCC          E(Eh)            E(eV) 
   0   1.0000    -261.552043     -7117.1929 
   1   1.0000    -104.778424     -2851.1659 
   2   1.0000    -104.776235     -2851.1063 
   3   1.0000    -104.775484     -2851.0859 
   4   1.0000     -32.061412      -872.4354 
   5   1.0000     -27.539423      -749.3858 
   6   1.0000     -27.539313      -749.3828 
   7   1.0000     -27.538922      -749.3722 
   8   1.0000     -20.557712      -559.4038 
   9   1.0000     -11.397804      -310.1500 
  10   1.0000     -11.345166      -308.7177 
  11   1.0000     -11.273249      -306.7607 
  12   1.0000     -11.266702      -306.5825 
  13   1.0000     -11.260309      -306.4086 
  14   1.0000     -11.257517      -306.3326 
  15   1.0000     -11.257073      -306.3205 
  16   1.0000     -11.254041      -306.2380 
  17   1.0000     -10.504930      -285.8537 
  18   1.0000     -10.502690      -285.7927 
  19   1.0000     -10.501958      -285.7728 
  20   1.0000      -7.970808      -216.8967 
  21   1.0000      -7.970259      -216.8818 
  22   1.0000      -7.970185      -216.8797 
  23   1.0000      -7.968666      -216.8384 
  24   1.0000      -7.967957      -216.8191 
  25   1.0000      -7.967880      -216.8170 
  26   1.0000      -7.967863      -216.8166 
  27   1.0000      -7.967211      -216.7988 
  28   1.0000      -7.967125      -216.7965 
  29   1.0000      -4.136514      -112.5603 
  30   1.0000      -2.658229       -72.3341 
  31   1.0000      -2.658192       -72.3331 
  32   1.0000      -2.657541       -72.3154 
  33   1.0000      -1.397791       -38.0358 
  34   1.0000      -1.168071       -31.7848 
  35   1.0000      -1.084295       -29.5052 
  36   1.0000      -1.039577       -28.2883 
  37   1.0000      -1.036850       -28.2141 
  38   1.0000      -1.025191       -27.8969 
  39   1.0000      -1.023238       -27.8437 
  40   1.0000      -0.996227       -27.1087 
  41   1.0000      -0.985234       -26.8096 
  42   1.0000      -0.926873       -25.2215 
  43   1.0000      -0.802683       -21.8421 
  44   1.0000      -0.760410       -20.6918 
  45   1.0000      -0.694350       -18.8942 
  46   1.0000      -0.693982       -18.8842 
  47   1.0000      -0.680614       -18.5204 
  48   1.0000      -0.659971       -17.9587 
  49   1.0000      -0.645726       -17.5711 
  50   1.0000      -0.622644       -16.9430 
  51   1.0000      -0.601207       -16.3597 
  52   1.0000      -0.594406       -16.1746 
  53   1.0000      -0.586411       -15.9571 
  54   1.0000      -0.577576       -15.7167 
  55   1.0000      -0.573612       -15.6088 
  56   1.0000      -0.564126       -15.3507 
  57   1.0000      -0.553676       -15.0663 
  58   1.0000      -0.551498       -15.0070 
  59   1.0000      -0.535791       -14.5796 
  60   1.0000      -0.524168       -14.2633 
  61   1.0000      -0.507419       -13.8076 
  62   1.0000      -0.478964       -13.0333 
  63   1.0000      -0.469743       -12.7824 
  64   1.0000      -0.466805       -12.7024 
  65   1.0000      -0.440601       -11.9894 
  66   1.0000      -0.437556       -11.9065 
  67   1.0000      -0.435956       -11.8630 
  68   1.0000      -0.423205       -11.5160 
  69   1.0000      -0.416002       -11.3200 
  70   1.0000      -0.402652       -10.9567 
  71   1.0000      -0.379995       -10.3402 
  72   0.0000       0.009882         0.2689 
  73   0.0000       0.020457         0.5567 
  74   0.0000       0.021979         0.5981 
  75   0.0000       0.030103         0.8191 
  76   0.0000       0.036419         0.9910 
  77   0.0000       0.038522         1.0482 
  78   0.0000       0.041300         1.1238 
  79   0.0000       0.044045         1.1985 
  80   0.0000       0.045417         1.2359 
  81   0.0000       0.048185         1.3112 
  82   0.0000       0.056316         1.5324 
  83   0.0000       0.059118         1.6087 
  84   0.0000       0.062273         1.6945 
  85   0.0000       0.065424         1.7803 
  86   0.0000       0.068066         1.8522 
  87   0.0000       0.072360         1.9690 
  88   0.0000       0.073993         2.0135 
  89   0.0000       0.077667         2.1134 
  90   0.0000       0.089981         2.4485 
  91   0.0000       0.090870         2.4727 
  92   0.0000       0.091560         2.4915 
  93   0.0000       0.096279         2.6199 
  94   0.0000       0.100729         2.7410 
  95   0.0000       0.101971         2.7748 
  96   0.0000       0.109642         2.9835 
  97   0.0000       0.114030         3.1029 
  98   0.0000       0.118264         3.2181 
  99   0.0000       0.120517         3.2794 
 100   0.0000       0.121363         3.3024 
 101   0.0000       0.121836         3.3153 
 102   0.0000       0.123971         3.3734 
 103   0.0000       0.126458         3.4411 
 104   0.0000       0.126707         3.4479 
 105   0.0000       0.128406         3.4941 
 106   0.0000       0.130586         3.5534 
 107   0.0000       0.133118         3.6223 
 108   0.0000       0.135469         3.6863 
 109   0.0000       0.135651         3.6913 
 110   0.0000       0.139476         3.7953 
 111   0.0000       0.140996         3.8367 
 112   0.0000       0.144911         3.9432 
 113   0.0000       0.148967         4.0536 
 114   0.0000       0.152472         4.1490 
 115   0.0000       0.153402         4.1743 
 116   0.0000       0.156082         4.2472 
 117   0.0000       0.161630         4.3982 
 118   0.0000       0.166904         4.5417 
 119   0.0000       0.168387         4.5821 
 120   0.0000       0.169533         4.6132 
 121   0.0000       0.172058         4.6819 
 122   0.0000       0.176261         4.7963 
 123   0.0000       0.178250         4.8504 
 124   0.0000       0.183112         4.9827 
 125   0.0000       0.189404         5.1539 
 126   0.0000       0.190367         5.1801 
 127   0.0000       0.195662         5.3242 
 128   0.0000       0.200595         5.4585 
 129   0.0000       0.203083         5.5262 
 130   0.0000       0.203955         5.5499 
 131   0.0000       0.207329         5.6417 
 132   0.0000       0.209854         5.7104 
 133   0.0000       0.211407         5.7527 
 134   0.0000       0.215050         5.8518 
 135   0.0000       0.219501         5.9729 
 136   0.0000       0.223307         6.0765 
 137   0.0000       0.227259         6.1840 
 138   0.0000       0.231915         6.3107 
 139   0.0000       0.234094         6.3700 
 140   0.0000       0.236143         6.4258 
 141   0.0000       0.240515         6.5448 
 142   0.0000       0.245311         6.6753 
 143   0.0000       0.246666         6.7121 
 144   0.0000       0.250082         6.8051 
 145   0.0000       0.254493         6.9251 
 146   0.0000       0.254841         6.9346 
 147   0.0000       0.260197         7.0803 
 148   0.0000       0.264320         7.1925 
 149   0.0000       0.266871         7.2619 
 150   0.0000       0.274205         7.4615 
 151   0.0000       0.274665         7.4740 
 152   0.0000       0.282143         7.6775 
 153   0.0000       0.284536         7.7426 
 154   0.0000       0.289266         7.8713 
 155   0.0000       0.293410         7.9841 
 156   0.0000       0.301945         8.2163 
 157   0.0000       0.304552         8.2873 
 158   0.0000       0.305987         8.3263 
 159   0.0000       0.307678         8.3724 
 160   0.0000       0.312358         8.4997 
 161   0.0000       0.318127         8.6567 
 162   0.0000       0.321243         8.7415 
 163   0.0000       0.328054         8.9268 
 164   0.0000       0.330293         8.9877 
 165   0.0000       0.333509         9.0753 
 166   0.0000       0.335098         9.1185 
 167   0.0000       0.339795         9.2463 
 168   0.0000       0.342622         9.3232 
 169   0.0000       0.349261         9.5039 
 170   0.0000       0.351169         9.5558 
 171   0.0000       0.358300         9.7499 
 172   0.0000       0.362867         9.8741 
 173   0.0000       0.363411         9.8889 
 174   0.0000       0.365783         9.9535 
 175   0.0000       0.368344        10.0232 
 176   0.0000       0.370518        10.0823 
 177   0.0000       0.371703        10.1146 
 178   0.0000       0.377778        10.2799 
 179   0.0000       0.380303        10.3486 
 180   0.0000       0.387578        10.5465 
 181   0.0000       0.388973        10.5845 
 182   0.0000       0.393021        10.6947 
 183   0.0000       0.395569        10.7640 
 184   0.0000       0.399610        10.8739 
 185   0.0000       0.400774        10.9056 
 186   0.0000       0.403968        10.9925 
 187   0.0000       0.406648        11.0655 
 188   0.0000       0.408242        11.1088 
 189   0.0000       0.411892        11.2082 
 190   0.0000       0.417096        11.3498 
 191   0.0000       0.417844        11.3701 
 192   0.0000       0.422870        11.5069 
 193   0.0000       0.425844        11.5878 
 194   0.0000       0.433139        11.7863 
 195   0.0000       0.435571        11.8525 
 196   0.0000       0.442154        12.0316 
 197   0.0000       0.442702        12.0465 
 198   0.0000       0.451104        12.2752 
 199   0.0000       0.453849        12.3499 
 200   0.0000       0.456647        12.4260 
 201   0.0000       0.458327        12.4717 
 202   0.0000       0.462004        12.5718 
 203   0.0000       0.468737        12.7550 
 204   0.0000       0.469181        12.7671 
 205   0.0000       0.472885        12.8679 
 206   0.0000       0.477666        12.9980 
 207   0.0000       0.479275        13.0417 
 208   0.0000       0.482218        13.1218 
 209   0.0000       0.485449        13.2097 
 210   0.0000       0.487321        13.2607 
 211   0.0000       0.488184        13.2842 
 212   0.0000       0.496147        13.5008 
 213   0.0000       0.497449        13.5363 
 214   0.0000       0.502476        13.6731 
 215   0.0000       0.505240        13.7483 
 216   0.0000       0.507375        13.8064 
 217   0.0000       0.511381        13.9154 
 218   0.0000       0.514327        13.9956 
 219   0.0000       0.516065        14.0428 
 220   0.0000       0.518852        14.1187 
 221   0.0000       0.520314        14.1585 
 222   0.0000       0.523032        14.2324 
 223   0.0000       0.528066        14.3694 
 224   0.0000       0.533629        14.5208 
 225   0.0000       0.533783        14.5250 
 226   0.0000       0.539348        14.6764 
 227   0.0000       0.545806        14.8521 
 228   0.0000       0.547839        14.9075 
 229   0.0000       0.551585        15.0094 
 230   0.0000       0.553437        15.0598 
 231   0.0000       0.556922        15.1546 
 232   0.0000       0.560345        15.2478 
 233   0.0000       0.563950        15.3459 
 234   0.0000       0.568979        15.4827 
 235   0.0000       0.572625        15.5819 
 236   0.0000       0.573581        15.6079 
 237   0.0000       0.580946        15.8084 
 238   0.0000       0.581594        15.8260 
 239   0.0000       0.586323        15.9547 
 240   0.0000       0.594159        16.1679 
 241   0.0000       0.595918        16.2158 
 242   0.0000       0.600198        16.3322 
 243   0.0000       0.603013        16.4088 
 244   0.0000       0.604595        16.4519 
 245   0.0000       0.612783        16.6747 
 246   0.0000       0.613932        16.7059 
 247   0.0000       0.618021        16.8172 
 248   0.0000       0.621316        16.9069 
 249   0.0000       0.624386        16.9904 
 250   0.0000       0.631951        17.1963 
 251   0.0000       0.638090        17.3633 
 252   0.0000       0.639709        17.4074 
 253   0.0000       0.642790        17.4912 
 254   0.0000       0.645863        17.5748 
 255   0.0000       0.646803        17.6004 
 256   0.0000       0.652000        17.7418 
 257   0.0000       0.654324        17.8051 
 258   0.0000       0.657409        17.8890 
 259   0.0000       0.659465        17.9450 
 260   0.0000       0.663557        18.0563 
 261   0.0000       0.669544        18.2192 
 262   0.0000       0.675567        18.3831 
 263   0.0000       0.679399        18.4874 
 264   0.0000       0.683921        18.6104 
 265   0.0000       0.685691        18.6586 
 266   0.0000       0.693963        18.8837 
 267   0.0000       0.696648        18.9568 
 268   0.0000       0.698427        19.0052 
 269   0.0000       0.705202        19.1895 
 270   0.0000       0.707705        19.2576 
 271   0.0000       0.714388        19.4395 
 272   0.0000       0.720111        19.5952 
 273   0.0000       0.722797        19.6683 
 274   0.0000       0.731993        19.9186 
 275   0.0000       0.735894        20.0247 
 276   0.0000       0.741200        20.1691 
 277   0.0000       0.743179        20.2229 
 278   0.0000       0.749534        20.3958 
[...]
  | sigma^2 in % of trace(Dij) retained ...   8.76e+00
  | sigma^2 in % of trace(Dip) retained ...   1.77e+01
  | sigma^2 in % of trace(Dpq) retained ...   1.42e-01
  | Av. % of trace(Di) retained         ...  99.998502207352
  | Av. % of trace(Dp) retained         ...  99.999999041021
  | sigma^2 in % of trace(Di) retained  ...   7.84e-07
  | sigma^2 in % of trace(Dp) retained  ...   5.41e-13
 Distributions of % trace(Dij) recovered:
  |       >= 99.9  ...   103 ( 20.0 % of all IJ-pairs)
  |   [80.0, 90.0) ...    37 (  7.2 % of all IJ-pairs)
  |   [90.0, 99.0) ...   275 ( 53.5 % of all IJ-pairs)
  |   [99.0, 99.9) ...    99 ( 19.3 % of all IJ-pairs)
 Distributions of % trace(Dip) recovered:
  |   [70.0, 80.0) ...     2 (  1.7 % of all IP-pairs)
  |   [80.0, 90.0) ...    11 (  9.3 % of all IP-pairs)
  |   [90.0, 99.0) ...    63 ( 53.4 % of all IP-pairs)
  |   [99.0, 99.9) ...    42 ( 35.6 % of all IP-pairs)
 Distributions of % trace(Dpq) recovered:
  |       >= 99.9  ...     5 ( 33.3 % of all PQ-pairs)
  |   [99.0, 99.9) ...    10 ( 66.7 % of all PQ-pairs)
 Distributions of % trace(Di) recovered :
  |       >= 99.9  ...    43 (100.0 % of all I-pairs )
 Distributions of % trace(Dp) recovered :
  |       >= 99.9  ...     5 (100.0 % of all P-pairs )

                       ===========================
                       1128 OF 1723 PAIRS ARE KEPT
                       ===========================

 Initial PAO correlation energy (all pairs)    ...  -2.6956583631 Eh
 Energy constituents in PAO basis (Eh):
  | Vijab(+0) ...  -2.2665313873
  | Viab (-1) ...  -0.1752504593
  | Vab  (-2) ...  -0.0573640369
  | Va   (-1) ...  -0.0000419524
  | Vija (+1) ...  -0.0725603746
  | Vij  (+2) ...  -0.0155013746
  | Via  (+0) ...  -0.1082499235
  | Vi   (+1) ...  -0.0001588545
 Initial PNO correlation energy                ...  -2.6607709375 Eh
 Energy constituents in PNO basis (Eh):
  | Vijab(+0) ...  -2.2477255878 (err=  0.0188057995)
  | Viab (-1) ...  -0.1608757754 (err=  0.0143746838)
  | Vab  (-2) ...  -0.0568916869 (err=  0.0004723500)
  | Va   (-1) ...  -0.0000242578 (err=  0.0000176946)
  | Vija (+1) ...  -0.0715090847 (err=  0.0010512898)
  | Vij  (+2) ...  -0.0154435717 (err=  0.0000578029)
  | Via  (+0) ...  -0.1081425516 (err=  0.0001073719)
  | Vi   (+1) ...  -0.0001584215 (err=  0.0000004331)
 Sum of total truncation errors ...   0.0348874257 Eh
  | Pair screening ...   0.0117000749 Eh
  | PNO truncation ...   0.0231873508 Eh

 UMP2 correlation energy (PAO) ...  -2.6907750304
  | alpha-alpha ...  -0.3871955877 (NP_aa=  936)
  | alpha-beta  ...  -1.9959945752 (NP_ab= 1698)
  | beta -beta  ...  -0.3075848675 (NP_bb=  729)
 UMP2 correlation energy (PNO) ...  -2.6555072631
  | alpha-alpha ...  -0.3750230008 (err=  0.0121725869, NP_aa=  599)
  | alpha-beta  ...  -1.9770128976 (err=  0.0189816776, NP_ab= 1103)
  | beta -beta  ...  -0.3034713647 (err=  0.0041135028, NP_bb=  471)
 Sum of total UMP2 truncation errors ...   0.0352677674 Eh
  | Pair screening ...   0.0117153815 Eh
  | PNO truncation ...   0.0235523858 Eh
 Timing for NEV-PNO construction (sec.)
  | Intermediate construction  ..           51.890
  | Amplitude construction     ..           64.820
  | Total time                 ..          116.710
 Making pair pair interaction lists ...      ok
 Total size for 2-ext PNO integrals ...     11.1 MB
Checking the number of SOMO/SOMO doubles PNOs ... 
 #Truncate: (72, 72)[170] -> [85] .. 
 #Truncate: (73, 73)[173] -> [85] .. 
 #Truncate: (74, 74)[174] -> [85] .. 
 #Truncate: (75, 75)[171] -> [85] .. 
 #Truncate: (76, 76)[173] -> [85] .. 

--------------------------------
LOCAL RI TRANSFORMATION (VABPAO)
--------------------------------

Number of PAOs:    1030
Basis functions:   1025 (343 shells)
Aux. functions:    2424 (644 shells)

Processing maps (0.0 sec)
Average map sizes:
   Aux shells -> PAOs           1030.0
   PAOs       -> AO shells       343.0

Calculating integrals (190.0 sec, 37370.165 MB)
Finished
-----------------------------
LOCAL RI TRANSFORMATION (IJV)
-----------------------------

Orbital window:      29 to 76
Basis functions:   1025 (343 shells)
Aux. functions:    2424 (644 shells)

Processing maps (0.0 sec)
Average map sizes:
   Aux shells -> MOs(i)           47.1
   Aux shells -> MOs(j)           48.0
   MOs        -> AO shells       340.6

Calculating integrals (22.8 sec, 41.913 MB)
Sorting integrals (0.3 sec, 41.886 MB)
Total time for the integral transformation: 23.2 sec


-------------------------------------
Pair Pair Term precalculation with     
RI-(ij|mn) and (im|jn) transformation  
ON THE FLY                             
-------------------------------------

   IBatch   1 (of   2)              ... done ( 1064.856 sec)
   IBatch   2 (of   2)              ... done ( 1268.771 sec)
Total EXT                           ...        2333.628 sec

---------------------
RI-PNO TRANSFORMATION
---------------------

Total Number of PNOs                   ... 35053
Total Number of IJ-PNOs                ... 30872
Total Number of IP-PNOs                ...  3232
Total Number of PQ-PNOs                ...   949
Total Number of IJ-pairs               ...   985
Total Number of PI-pairs               ...   118
Total Number of PQ-pairs               ...    25
Average number of PNOs per pair        ...    31
Maximal number of PNOs per pair        ...    85
>> Statistics for ij-pairs..
   #pairs with  1 -  5 PNOs   :    0
   #pairs with  6 - 10 PNOs   :    0
   #pairs with 11 - 15 PNOs   :   58
   #pairs with 16 - 20 PNOs   :  252
   #pairs with 21 - 25 PNOs   :  158
   #pairs with 26 - 30 PNOs   :  160
   #pairs with 31 - 35 PNOs   :   62
   #pairs with 36 - 40 PNOs   :   48
   #pairs with 41 - 45 PNOs   :   46
   #pairs with 46 - 50 PNOs   :   28
   #pairs with 51 - 55 PNOs   :   32
   #pairs with 56 - 60 PNOs   :   60
   #pairs with 61 - 65 PNOs   :   72
   #pairs with 66 - 70 PNOs   :    6
   #pairs with 76 - 80 PNOs   :    3
>> Statistics for ip-pairs..
   #pairs with  1 -  5 PNOs   :    0
   #pairs with  6 - 10 PNOs   :    2
   #pairs with 11 - 15 PNOs   :   15
   #pairs with 16 - 20 PNOs   :    3
   #pairs with 21 - 25 PNOs   :   27
   #pairs with 26 - 30 PNOs   :   11
   #pairs with 31 - 35 PNOs   :   49
   #pairs with 36 - 40 PNOs   :   11
   #pairs with 41 - 45 PNOs   :    0
   #pairs with 46 - 50 PNOs   :    0
>> Statistics for pq-pairs..
   #pairs with  1 -  5 PNOs   :    0
   #pairs with  6 - 10 PNOs   :    0
   #pairs with 11 - 15 PNOs   :    0
   #pairs with 16 - 20 PNOs   :    0
   #pairs with 21 - 25 PNOs   :   12
   #pairs with 26 - 30 PNOs   :    8
   #pairs with 31 - 35 PNOs   :    0
   #pairs with 36 - 40 PNOs   :    0
   #pairs with 41 - 45 PNOs   :    0
   #pairs with 46 - 50 PNOs   :    0
   #pairs with 81 - 85 PNOs   :    5

Generation of (ij|ab)[P] integrals            ... on
Generation of (ia|bc)[P],(ja|bc)[P] integrals ... on
Storage of 3 and 4 external integrals         ... on
Generation of ALL (ka|bc)[P] integrals        ... on
Keep RI integrals in memory                   ... off

Ibatch:  1 (of  1)
Starting 2-4 index PNO integral generation ... done

Timings:
Total PNO integral transformation time     ...       2095.352 sec
Size of the 3-external file                ...       290 MB
Size of the 4-external file                ...      1968 MB
Size of the IKJL file                      ...        19 MB
Size of the all 3-external file            ...      6969 MB
Size of the 1-external file                ...        22 MB

Size of the PAO/PNO coefficient matrices   ...     230.1 MB

Making pair/pair overlap matrices          ... done (  326.703 sec)
Size of the pair overlap file              ...    2504.0 MB
Total # unrestricted pairs ...       2173
  # of alpha-alpha pairs   ...        599
  # of alpha-beta pairs    ...       1103
  # of beta-beta pairs     ...        471
Constructing the guess amplitudes          ... done (    0.588 sec)

-------------------------
FINAL STARTUP INFORMATION
-------------------------

E(0)                                       ...  -3028.425225144
E(SL-UMP2 in NEV-PNO space)                ...     -2.691690379
Initial E(tot)                             ...  -3031.116915523
<T|T>                                      ...      0.535445708
Number of unrestricted pairs included      ... 2173
Total number of pairs                      ... 4095
----------------------------------------------------------
                     OPEN-SHELL COUPLED CLUSTER ITERATIONS
----------------------------------------------------------

Number of PNO amplitudes to be optimized        ...          2151144
Number of canonical amplitudes for strong pairs ...       1962675350
Untruncated number of canonical amplitudes      ...       3698645738

Iter       E(tot)           E(Corr)          Delta-E          Residual     Time
  0  -3031.124052258     -2.662643997      0.029046382      0.021492812 1692.60
                           *** Turning on DIIS ***
  1  -3031.235923544     -2.774515283     -0.111871286      0.008537163 1753.30
  2  -3031.300119188     -2.838710928     -0.064195645      0.008549048 1802.37
  3  -3031.321079792     -2.859671532     -0.020960604      0.003160067 1831.19
  4  -3031.328098289     -2.866690029     -0.007018497      0.002738240 1814.85
  5  -3031.331787208     -2.870378948     -0.003688919      0.001860429 2004.96
  6  -3031.333131041     -2.871722781     -0.001343833      0.000885671 2147.03
  7  -3031.333883417     -2.872475156     -0.000752375      0.000431364 2137.01
  8  -3031.334035983     -2.872627723     -0.000152567      0.000203392 2115.85
  9  -3031.334084342     -2.872676082     -0.000048359      0.000110325 2117.44
 10  -3031.334079343     -2.872671082      0.000005000      0.000079034 2099.71
 11  -3031.334089042     -2.872680781     -0.000009699      0.000055861 2127.64
 12  -3031.334094855     -2.872686595     -0.000005813      0.000031023 2109.80
 13  -3031.334097269     -2.872689008     -0.000002414      0.000015949 2152.72
 14  -3031.334098136     -2.872689876     -0.000000868      0.000008110 2122.72
               --- The CCSD iterations have converged ---

E(0)                                       ...  -3028.425225144
E(CORR)(strong-pairs)                      ...     -2.872689876
E(CORR)(weak-pairs)                        ...     -0.036183116
E(CORR)(corrected)                         ...     -2.908872992
E(TOT)                                     ...  -3031.334098136
Singles norm <S|S>**1/2                    ...      0.189390831 ( 0.063570888, 0.125819942)  
T1 diagnostic                              ...      0.019853554                              
<S**2>(linearized)                         ...      8.7507652 (ideal value:      8.7500000)

----------------------
LARGEST PNO AMPLITUDES
----------------------
  71a-> 77a  71b-> 77b       0.063186
  50b-> 76b  -1b-> -1b       0.056467
  71a-> 78a  71b-> 78b       0.056124
  51b-> 76b  -1b-> -1b       0.050093
  48b-> 72b  -1b-> -1b       0.049544
  48b-> 74b  -1b-> -1b       0.045938
  55a-> 77a  55b-> 77b       0.045676
  65a-> 77a  65b-> 77b       0.045266
  48b-> 75b  -1b-> -1b       0.045026
  61a-> 77a  61b-> 77b       0.043551
  69a-> 77a  69b-> 77b       0.043330
  39b-> 73b  -1b-> -1b       0.042622
  63a-> 77a  63b-> 77b       0.042590
  58a-> 77a  58b-> 77b       0.042457
  59a-> 77a  59b-> 77b       0.042243
  60a-> 77a  60b-> 77b       0.041959

Total # unrestricted pairs ...       1190
  # of alpha-alpha pairs   ...        337
  # of alpha-beta pairs    ...        595
  # of beta-beta pairs     ...        258

-------------------------------------------
DLPNO BASED TRIPLES CORRECTION
-------------------------------------------

Singles multiplier          ...  1.000000
Fragment selection                          .... not used
TCutTNO                     ... 1.000e-09
TCutMP2Pairs                ... 1.000e-05
TCutDOStrong                ... 2.000e-02
TCutMKNStrong               ... 1.000e-02
TCutDOWeak                  ... 4.000e-02
TCutMKNWeak                 ... 1.000e-01
NTCutTNO                    ... 1

Number of Triples that are to be computed         ...     35372

 . . . . . . . . .
10% done  
20% done  
30% done  
40% done  
50% done  
60% done  
70% done  
80% done  
90% done  
          Batch   1   done (  17968.102 sec)

Triples-Correction TCutTNO=   1.000e-09 (NWeakPairs = 0  1  2  3)  -0.117830101448   -0.001842378350    0.000000000000    0.000000000000
Triples-Correction  -0.119672479798

Triples timings:
Total time                      ... 18707.761 sec

Triples List generation         ...     0.000 sec
TNO generation                  ...   739.377 sec
Pair density generation         ...     0.098 sec
Look up tables                  ...     0.118 sec
Generating 3-index integrals    ... 11614.496 sec
Make 4-ind.int. from 3-ind.int  ...     3.851 sec
Projecting amplitudes (D + S)   ...  6079.099 sec
Sorting integrals for spin cases...    55.972 sec
Calculate W0/W1                 ...   173.365 sec
Energy contr. (sum over a,b,c)  ...    41.173 sec

Everything after 3-index        ...  6494.918 sec

Energy contribution AAA         ...    26.513 sec
Energy contribution AAB         ...   119.567 sec
Energy contribution ABB         ...   109.561 sec
Energy contribution BBB         ...    14.917 sec
prep                ...     3.365 sec
makeTTNO            ...  6017.738 sec
copyij              ...     0.131 sec
copyil              ...     4.333 sec
transposeij         ...     0.080 sec
newMatInDoubleProj  ...    57.898 sec
BlasInDoubleProj    ...  3251.021 sec
ProjSingles         ...    50.839 sec
ProjDoubles         ...  6028.260 sec
overall Doubles for projection      ... 3248452
used Doubles for projection         ... 3248452


Number of Triples   (0, 1, 2, 3 weak pairs; overall):  17341   11994       0       0  ( 29335)
Number of Atoms     (0, 1, 2, 3 weak pairs; overall):   20.5    14.7     0.0     0.0  (    29)
Number of PAOs      (0, 1, 2, 3 weak pairs; overall):  789.0   591.7     0.0     0.0  (  1025)
Number of AuxFcns   (0, 1, 2, 3 weak pairs; overall):  950.7   581.6     0.0     0.0  (  2424)
Number of TNOs (0, 1, 2, 3 weak pairs         ):   79.1    56.2     0.0     0.0
Aver. Number of NTNO, Atoms, PAOs, AuxFcns / Triples:  29335    69.8    18.1   708.3   799.8

Triples Correction (T)                     ...     -0.119672480
    alpha-alpha-alpha ... -0.003926209 (  3.3%)
    alpha-alpha-beta  ... -0.056176108 ( 46.9%)
    alpha-beta -beta  ... -0.055427140 ( 46.3%)
    beta -beta -beta  ... -0.004143023 (  3.5%)
Final correlation energy                   ...     -3.028545472
E(CCSD)                                    ...  -3031.334098136
E(CCSD(T))                                 ...  -3031.453770616

----------------------------
STATISTICS FOR PAIR-ENERGIES
----------------------------
Minimum, maximum and average ratios of UMP and CCSD pair-energies ... 0.53, 1.43, 1.02


------------------------------------------------------------------------------- 
                                     TIMINGS                                   
------------------------------------------------------------------------------- 


Total execution time                   ...    57115.733 sec

Localization of occupied MO's          ...       10.807 sec (  0.0%)
Fock Matrix Formation                  ...     1412.132 sec (  2.5%)
Differential overlap integrals         ...        1.389 sec (  0.0%)
Organizing maps                        ...        1.690 sec (  0.0%)
RI 3-index integral generations        ...      274.965 sec (  0.5%)
RI-PNO integral transformation         ...     4969.992 sec (  8.7%)
Initial Guess                          ...     1946.859 sec (  3.4%)
DIIS Solver                            ...       15.651 sec (  0.0%)
State Vector Update                    ...        0.716 sec (  0.0%)
Sigma-vector construction              ...    30029.194 sec ( 52.6%)
  <0|H|D>                              ...        0.030 sec (  0.0% of sigma)
  <D|H|D>(0-ext)                       ...     5824.694 sec ( 19.4% of sigma)
  <D|H|D>(2-ext Fock)                  ...        2.129 sec (  0.0% of sigma)
  <D|H|D>(2-ext)                       ...     4205.101 sec ( 14.0% of sigma)
  <D|H|D>(4-ext)                       ...      159.276 sec (  0.5% of sigma)
  <D|H|D>(4-ext-corr)                  ...      993.528 sec (  3.3% of sigma)
  CCSD doubles correction              ...      541.497 sec (  1.8% of sigma)
  <S|H|S>                              ...      782.891 sec (  2.6% of sigma)
  <S|H|D>(1-ext)                       ...      270.364 sec (  0.9% of sigma)
  <D|H|S>(1-ext)                       ...        0.758 sec (  0.0% of sigma)
  <S|H|D>(3-ext)                       ...       22.367 sec (  0.1% of sigma)
  CCSD singles correction              ...        0.004 sec (  0.0% of sigma)
  Fock-dressing                        ...     8732.932 sec ( 29.1% of sigma)
  Singles amplitudes                   ...      110.954 sec (  0.4% of sigma)
  (ik|jl)-dressing                     ...     6730.718 sec ( 22.4% of sigma)
  (ij|ab),(ia|jb)-dressing             ...     1603.861 sec (  5.3% of sigma)
  Pair energies                        ...        0.167 sec (  0.0% of sigma)
Total Time for computing (T)           ...    18829.572 sec ( 33.0% of ALL)


-------------------------   --------------------
FINAL SINGLE POINT ENERGY     -3031.453770616287
-------------------------   --------------------


                            ***************************************
                            *     ORCA property calculations      *
                            ***************************************

                                    ---------------------
                                    Active property flags
                                    ---------------------
   (+) Dipole Moment


------------------------------------------------------------------------------
                       ORCA ELECTRIC PROPERTIES CALCULATION
------------------------------------------------------------------------------

Dipole Moment Calculation                       ... on
Quadrupole Moment Calculation                   ... off
Polarizability Calculation                      ... off
GBWName                                         ... simple-grid-205-235-b3lyp_d3bj-631gd-gas-singlepoint-DLPNO_CCSD_T1-NormalPNO-augtz-gas.gbw
Electron density file                           ... simple-grid-205-235-b3lyp_d3bj-631gd-gas-singlepoint-DLPNO_CCSD_T1-NormalPNO-augtz-gas.scfp.tmp
The origin for moment calculation is the CENTER OF MASS  = ( 0.306777,  0.024462  0.019089)

-------------
DIPOLE MOMENT
-------------
                                X             Y             Z
Electronic contribution:     41.26603       3.40865       2.31770
Nuclear contribution   :    -45.70978      -3.64477      -2.84422
                        -----------------------------------------
Total Dipole Moment    :     -4.44375      -0.23612      -0.52653
                        -----------------------------------------
Magnitude (a.u.)       :      4.48106
Magnitude (Debye)      :     11.38995



--------------------
Rotational spectrum 
--------------------
 
Rotational constants in cm-1:     0.019276     0.011372     0.010621 
Rotational constants in MHz :   577.891299   340.932167   318.407578 

 Dipole components along the rotational axes: 
x,y,z [a.u.] :    -4.441456     0.257086    -0.535969 
x,y,z [Debye]:   -11.289284     0.653459    -1.362325 

 

Timings for individual modules:

Sum of individual times         ...    75399.970 sec (=1256.666 min)
GTO integral calculation        ...       12.353 sec (=   0.206 min)   0.0 %
SCF iterations                  ...    18252.763 sec (= 304.213 min)  24.2 %
MDCI module                     ...    57134.854 sec (= 952.248 min)  75.8 %
                             ****ORCA TERMINATED NORMALLY****
TOTAL RUN TIME: 0 days 20 hours 56 minutes 42 seconds 503 msec
