
                                 *****************
                                 * O   R   C   A *
                                 *****************

           --- An Ab Initio, DFT and Semiempirical electronic structure package ---

                  #######################################################
                  #                        -***-                        #
                  #          Department of theory and spectroscopy      #
                  #               Directorship: Frank Neese             #
                  #        Max Planck Institute fuer Kohlenforschung    #
                  #                Kaiser Wilhelm Platz 1               #
                  #                 D-45470 Muelheim/Ruhr               #
                  #                      Germany                        #
                  #                                                     #
                  #                  All rights reserved                #
                  #                        -***-                        #
                  #######################################################


                         Program Version 4.1.2  - RELEASE  -


 With contributions from (in alphabetic order):
   Daniel Aravena         : Magnetic Properties
   Michael Atanasov       : Ab Initio Ligand Field Theory
   Alexander A. Auer      : GIAO ZORA
   Ute Becker             : Parallelization
   Giovanni Bistoni       : ED, Open-shell LED
   Martin Brehm           : Molecular dynamics
   Dmytro Bykov           : SCF Hessian
   Vijay G. Chilkuri      : MRCI spin determinant printing
   Dipayan Datta          : RHF DLPNO-CCSD density
   Achintya Kumar Dutta   : EOM-CC, STEOM-CC
   Dmitry Ganyushin       : Spin-Orbit,Spin-Spin,Magnetic field MRCI
   Miquel Garcia          : C-PCM Hessian
   Yang Guo               : DLPNO-NEVPT2, CIM, IAO-localization
   Andreas Hansen         : Spin unrestricted coupled pair/coupled cluster methods
   Benjamin Helmich-Paris : CASSCF linear response (MC-RPA)
   Lee Huntington         : MR-EOM, pCC
   Robert Izsak           : Overlap fitted RIJCOSX, COSX-SCS-MP3, EOM
   Christian Kollmar      : KDIIS, OOCD, Brueckner-CCSD(T), CCSD density
   Simone Kossmann        : Meta GGA functionals, TD-DFT gradient, OOMP2, MP2 Hessian
   Martin Krupicka        : AUTO-CI
   Lucas Lang             : DCDCAS
   Dagmar Lenk            : GEPOL surface, SMD
   Dimitrios Liakos       : Extrapolation schemes; parallel MDCI
   Dimitrios Manganas     : ROCIS; embedding schemes
   Dimitrios Pantazis     : SARC Basis sets
   Taras Petrenko         : DFT Hessian,TD-DFT gradient, ASA, ECA, R-Raman, ABS, FL, XAS/XES, NRVS
   Peter Pinski           : DLPNO-MP2, DLPNO-MP2 Gradient
   Christoph Reimann      : Effective Core Potentials
   Marius Retegan         : Local ZFS, SOC
   Christoph Riplinger    : Optimizer, TS searches, QM/MM, DLPNO-CCSD(T), (RO)-DLPNO pert. Triples
   Tobias Risthaus        : Range-separated hybrids, TD-DFT gradient, RPA, STAB
   Michael Roemelt        : Restricted open shell CIS
   Masaaki Saitow         : Open-shell DLPNO
   Barbara Sandhoefer     : DKH picture change effects
   Avijit Sen             : IP-ROCIS
   Kantharuban Sivalingam : CASSCF convergence, NEVPT2, FIC-MRCI
   Bernardo de Souza      : ESD, SOC TD-DFT
   Georgi Stoychev        : AutoAux, RI-MP2 NMR
   Willem Van den Heuvel  : Paramagnetic NMR
   Boris Wezisla          : Elementary symmetry handling
   Frank Wennmohs         : Technical directorship


 We gratefully acknowledge several colleagues who have allowed us to
 interface, adapt or use parts of their codes:
   Stefan Grimme, W. Hujo, H. Kruse,             : VdW corrections, initial TS optimization,
                  C. Bannwarth                     DFT functionals, gCP, sTDA/sTD-DF
   Ed Valeev                                     : LibInt (2-el integral package), F12 methods
   Garnet Chan, S. Sharma, J. Yang, R. Olivares  : DMRG
   Ulf Ekstrom                                   : XCFun DFT Library
   Mihaly Kallay                                 : mrcc  (arbitrary order and MRCC methods)
   Andreas Klamt, Michael Diedenhofen            : otool_cosmo (COSMO solvation model)
   Jiri Pittner, Ondrej Demel                    : Mk-CCSD
   Frank Weinhold                                : gennbo (NPA and NBO analysis)
   Christopher J. Cramer and Donald G. Truhlar   : smd solvation model
   Lars Goerigk                                  : TD-DFT with DH, B97 family of functionals
   V. Asgeirsson, H. Jonsson                     : NEB implementation
   FAccTs GmbH                                   : IRC, NEB, NEB-TS, Multilevel


 Your calculation uses the libint2 library for the computation of 2-el integrals
 For citations please refer to: http://libint.valeyev.net

 This ORCA versions uses:
   CBLAS   interface :  Fast vector & matrix operations
   LAPACKE interface :  Fast linear algebra routines
   SCALAPACK package :  Parallel linear algebra routines


----- Orbital basis set information -----
Your calculation utilizes the basis: aug-cc-pVTZ 
    H, B-Ne : Obtained from the ccRepo (grant-hill.group.shef.ac.uk/ccrepo) Feb. 2017
              R. A. Kendall, T. H. Dunning, Jr., R. J. Harrison, J. Chem. Phys. 96, 6796 (1992)
         He : Obtained from the ccRepo (grant-hill.group.shef.ac.uk/ccrepo) Feb. 2017
              D. E. Woon, T. H. Dunning, Jr., J. Chem. Phys. 100, 2975 (1994)
  Li-Be, Na : Obtained from the ccRepo (grant-hill.group.shef.ac.uk/ccrepo) Feb. 2017
              B. P. Prascher, D. E. Woon, K. A. Peterson, T. H. Dunning, Jr., A. K. Wilson, Theor. Chem. Acc. 128, 69 (2011)
         Mg : Obtained from the Peterson Research Group Website (tyr0.chem.wsu.edu/~kipeters) Feb. 2017
              B. P. Prascher, D. E. Woon, K. A. Peterson, T. H. Dunning, Jr., A. K. Wilson, Theor. Chem. Acc. 128, 69 (2011)
      Al-Ar : Obtained from the ccRepo (grant-hill.group.shef.ac.uk/ccrepo) Feb. 2017
              D. E. Woon, T. H. Dunning, Jr., J. Chem. Phys. 98, 1358 (1993)
      Sc-Zn : Obtained from the ccRepo (grant-hill.group.shef.ac.uk/ccrepo) Feb. 2017
              N. B. Balabanov, K. A. Peterson, J. Chem. Phys. 123, 064107 (2005)
              N. B. Balabanov, K. A. Peterson, J. Chem. Phys. 125, 074110 (2006)
      Ga-Kr : Obtained from the ccRepo (grant-hill.group.shef.ac.uk/ccrepo) Feb. 2017
              A. K. Wilson, D. E. Woon, K. A. Peterson, T. H. Dunning, Jr., J. Chem. Phys. 110, 7667 (1999)
     Ag, Au : Obtained from the Peterson Research Group Website (tyr0.chem.wsu.edu/~kipeters) Feb. 2017
              K. A. Peterson, C. Puzzarini, Theor. Chem. Acc. 114, 283 (2005)

----- AuxJ basis set information -----
Your calculation utilizes the AutoAux generation procedure.
  G. L. Stoychev, A. A. Auer, F. Neese, J. Chem. Theory Comput. 13, 554 (2017)

----- AuxC basis set information -----
Your calculation utilizes the auxiliary basis: aug-cc-pVTZ/C 
  H-He, B-F, Al-Ar, Ga-Kr : Obtained from the EMSL Basis Set Exchange (bse.pnl.gov) Feb. 2017
                            F. Weigend, A. Kohn, C. Hattig, J. Chem. Phys. 116, 3175 (2002)
                   Be, Mg : Obtained from the TURBOMOLE 7.0 basis set library
                            C. Haettig, Phys. Chem. Chem. Phys. 7, 59 (2005)
                       Ne : Obtained from the EMSL Basis Set Exchange (bse.pnl.gov) Feb. 2017
                            C. Haettig, Phys. Chem. Chem. Phys. 7, 59 (2005)
                            F. Weigend, A. Kohn, C. Hattig, J. Chem. Phys. 116, 3175 (2002)
                    Sc-Zn : Obtained from the EMSL Basis Set Exchange (bse.pnl.gov) Feb. 2017
                            J. G. Hill, J. A. Platts, J. Chem. Phys. 128, 044104 (2008)

----- AuxJK basis set information -----
Your calculation utilizes the AutoAux generation procedure.
  G. L. Stoychev, A. A. Auer, F. Neese, J. Chem. Theory Comput. 13, 554 (2017)

================================================================================
                                        WARNINGS
                       Please study these warnings very carefully!
================================================================================


WARNING: your system is open-shell and RHF/RKS was chosen
  ===> : WILL SWITCH to UHF/UKS


WARNING: MDCI localization with Augmented Hessian Foster-Boys
  ===> : Switching off randomization!

WARNING: Post HF methods need fully converged wavefunctions
  ===> : Setting SCFConvForced true
         You can overwrite this default with %scf ConvForced false 


INFO   : the flag for use of LIBINT has been found!

================================================================================
                                       INPUT FILE
================================================================================
NAME = simple-grid-285-300-b3lyp_d3bj-631gd-gas-singlepoint-DLPNO_CCSD_T1-NormalPNO-augtz-gas.inp
|  1> ! aug-cc-pVTZ aug-cc-pVTZ/C DLPNO-CCSD(T1) TightSCF NormalPNO UNO MiniPrint AutoAux
|  2> %pal nproc 10 end
|  3> %maxcore 20000
|  4> %mdci
|  5>      density none
|  6> end
|  7> 
|  8> * xyz 0 6
|  9>  O      0.14404200      0.44138300     -0.90128800
| 10>  C      0.91532700      1.40231400     -0.68656800
| 11>  C      3.12207600      0.11293900      0.57449500
| 12>  C      2.72084300     -0.92069400     -0.19080000
| 13>  C      3.21594400     -1.08777300     -1.60303200
| 14> Fe     -1.50002700     -0.17969500      0.01328700
| 15> Cl     -2.05460400     -1.99161500     -1.04881300
| 16>  C      1.79121500     -2.00693900      0.26962700
| 17> Cl     -2.79377000      1.55576100     -0.29942500
| 18> Cl     -1.03011900     -0.48673200      2.13290200
| 19>  H      3.83984100      0.80752000      0.13551700
| 20>  H      2.30614900     -2.97665000      0.24392800
| 21>  H      1.40366400     -1.85535300      1.27680900
| 22>  H      0.93805300     -2.09744800     -0.41544800
| 23>  H      3.75812500     -2.03716100     -1.70406000
| 24>  H      2.37638700     -1.13780300     -2.30947300
| 25>  H      3.89022200     -0.28205000     -1.90808600
| 26>  C      2.85453500      0.31071200      2.04229700
| 27>  H      3.66846200     -0.12447400      2.63844100
| 28>  H      2.81500000      1.37380200      2.30197600
| 29>  H      1.92116400     -0.15096900      2.37322700
| 30>  C      0.76379400      2.25711900      0.53084300
| 31>  H      1.64611100      2.87140900      0.71356600
| 32>  H     -0.09356200      2.91942700      0.33843800
| 33>  H      0.51913800      1.66062800      1.41063600
| 34>  C      1.77071300      1.88926500     -1.81437400
| 35>  H      1.22785900      2.72758400     -2.27577000
| 36>  H      2.73040000      2.27067500     -1.46260000
| 37>  H      1.90906600      1.11417400     -2.56649900
| 38> *
| 39> 
| 40> 
| 41>                          ****END OF INPUT****
================================================================================

                       ****************************
                       * Single Point Calculation *
                       ****************************

---------------------------------
CARTESIAN COORDINATES (ANGSTROEM)
---------------------------------
  O      0.144042    0.441383   -0.901288
  C      0.915327    1.402314   -0.686568
  C      3.122076    0.112939    0.574495
  C      2.720843   -0.920694   -0.190800
  C      3.215944   -1.087773   -1.603032
  Fe    -1.500027   -0.179695    0.013287
  Cl    -2.054604   -1.991615   -1.048813
  C      1.791215   -2.006939    0.269627
  Cl    -2.793770    1.555761   -0.299425
  Cl    -1.030119   -0.486732    2.132902
  H      3.839841    0.807520    0.135517
  H      2.306149   -2.976650    0.243928
  H      1.403664   -1.855353    1.276809
  H      0.938053   -2.097448   -0.415448
  H      3.758125   -2.037161   -1.704060
  H      2.376387   -1.137803   -2.309473
  H      3.890222   -0.282050   -1.908086
  C      2.854535    0.310712    2.042297
  H      3.668462   -0.124474    2.638441
  H      2.815000    1.373802    2.301976
  H      1.921164   -0.150969    2.373227
  C      0.763794    2.257119    0.530843
  H      1.646111    2.871409    0.713566
  H     -0.093562    2.919427    0.338438
  H      0.519138    1.660628    1.410636
  C      1.770713    1.889265   -1.814374
  H      1.227859    2.727584   -2.275770
  H      2.730400    2.270675   -1.462600
  H      1.909066    1.114174   -2.566499

----------------------------
CARTESIAN COORDINATES (A.U.)
----------------------------
  NO LB      ZA    FRAG     MASS         X           Y           Z
   0 O     8.0000    0    15.999    0.272200    0.834093   -1.703187
   1 C     6.0000    0    12.011    1.729717    2.649989   -1.297425
   2 C     6.0000    0    12.011    5.899869    0.213424    1.085638
   3 C     6.0000    0    12.011    5.141648   -1.739860   -0.360560
   4 C     6.0000    0    12.011    6.077253   -2.055593   -3.029291
   5 Fe   26.0000    0    55.850   -2.834640   -0.339574    0.025109
   6 Cl   17.0000    0    35.453   -3.882639   -3.763607   -1.981969
   7 C     6.0000    0    12.011    3.384906   -3.792565    0.509521
   8 Cl   17.0000    0    35.453   -5.279460    2.939962   -0.565831
   9 Cl   17.0000    0    35.453   -1.946643   -0.919790    4.030601
  10 H     1.0000    0     1.008    7.256248    1.525992    0.256090
  11 H     1.0000    0     1.008    4.357990   -5.625053    0.460957
  12 H     1.0000    0     1.008    2.652541   -3.506109    2.412819
  13 H     1.0000    0     1.008    1.772663   -3.963602   -0.785083
  14 H     1.0000    0     1.008    7.101827   -3.849676   -3.220207
  15 H     1.0000    0     1.008    4.490721   -2.150136   -4.364271
  16 H     1.0000    0     1.008    7.351454   -0.532997   -3.605760
  17 C     6.0000    0    12.011    5.394289    0.587161    3.859382
  18 H     1.0000    0     1.008    6.932389   -0.235222    4.985931
  19 H     1.0000    0     1.008    5.319579    2.596110    4.350104
  20 H     1.0000    0     1.008    3.630474   -0.285290    4.484749
  21 C     6.0000    0    12.011    1.443361    4.265337    1.003148
  22 H     1.0000    0     1.008    3.110699    5.426177    1.348444
  23 H     1.0000    0     1.008   -0.176807    5.516917    0.639555
  24 H     1.0000    0     1.008    0.981029    3.138132    2.665716
  25 C     6.0000    0    12.011    3.346163    3.570193   -3.428670
  26 H     1.0000    0     1.008    2.320317    5.154387   -4.300582
  27 H     1.0000    0     1.008    5.159708    4.290954   -2.763913
  28 H     1.0000    0     1.008    3.607612    2.105484   -4.849980



           ************************************************************
           *        Program running with 10 parallel MPI-processes    *
           *              working on a common directory               *
           ************************************************************


           ************************************************************
           *        Program running with 10 parallel MPI-processes    *
           *              working on a common directory               *
           ************************************************************

Diagonalization of the overlap matrix:
Smallest eigenvalue                        ... 9.486e-07
Time for diagonalization                   ...    0.333 sec
Threshold for overlap eigenvalues          ... 1.000e-08
Number of eigenvalues below threshold      ... 0
Time for construction of square roots      ...    0.272 sec
Total time needed                          ...    0.611 sec

-------------------
DFT GRID GENERATION
-------------------

General Integration Accuracy     IntAcc      ...  4.340
Radial Grid Type                 RadialGrid  ... Gauss-Chebyshev
Angular Grid (max. acc.)         AngularGrid ... Lebedev-110
Angular grid pruning method      GridPruning ... 3 (G Style)
Weight generation scheme         WeightScheme... Becke
Basis function cutoff            BFCut       ...    1.0000e-11
Integration weight cutoff        WCut        ...    1.0000e-14
Grids for H and He will be reduced by one unit

# of grid points (after initial pruning)     ...  36112 (   0.0 sec)
# of grid points (after weights+screening)   ...  32477 (   0.1 sec)
nearest neighbour list constructed           ...    0.0 sec
Grid point re-assignment to atoms done       ...    0.0 sec
Grid point division into batches done        ...    0.0 sec
Reduced shell lists constructed in    0.3 sec

Total number of grid points                  ...    32477
Total number of batches                      ...      525
Average number of points per batch           ...       61
Average number of grid points per atom       ...     1120
Average number of shells per batch           ...   283.57 (82.67%)
Average number of basis functions per batch  ...   839.91 (81.94%)
Average number of large shells per batch     ...   228.63 (80.62%)
Average number of large basis fcns per batch ...   679.22 (80.87%)
Maximum spatial batch extension              ...   5.66,  6.55, 10.13 au
Average spatial batch extension              ...   0.19,  0.19,  0.20 au

Time for grid setup =    0.380 sec

Loading Hartree-Fock densities                     ... done
Calculating cut-offs                               ... done
Setting up the integral package                    ... done
Initializing the effective Hamiltonian             ... done
Starting the Coulomb interaction                   ... done (   1.1 sec)
Reading the grid                                   ... done
Mapping shells                                     ... done
Starting the XC term evaluation                    ... done (   0.9 sec)
Transforming the Hamiltonian                       ... done (   0.2 sec)
Diagonalizing the Hamiltonian                      ... done (   0.3 sec)
Back transforming the eigenvectors                 ... done (   0.1 sec)
Now organizing SCF variables                       ... done
--------------
SCF ITERATIONS
--------------
ITER       Energy         Delta-E        Max-DP      RMS-DP      [F,P]     Damp
               ***  Starting incremental Fock matrix formation  ***
  0  -3027.6031026248   0.000000000000 0.14346474  0.00082202  0.2404389 0.7000
  1  -3027.8573145663  -0.254211941563 0.10955421  0.00065140  0.1547611 0.7000
                               ***Turning on DIIS***
  2  -3028.0273517710  -0.170037204667 0.07889183  0.00048453  0.1095035 0.7000
  3  -3029.6074909123  -1.580139141328 0.23841990  0.00124578  0.0817108 0.0000
  4  -3028.3203944455   1.287096466837 0.04016361  0.00021184  0.0191984 0.0000
  5  -3028.4439176214  -0.123523175856 0.03929428  0.00016711  0.0108663 0.0000
  6  -3028.4925613846  -0.048643763274 0.02003135  0.00006844  0.0052540 0.0000
  7  -3028.5054105471  -0.012849162470 0.00875073  0.00003140  0.0029204 0.0000
  8  -3028.4939831213   0.011427425824 0.00652741  0.00001814  0.0015928 0.0000
  9  -3028.4905301807   0.003452940550 0.00224700  0.00001042  0.0006589 0.0000
 10  -3028.4781006690   0.012429511747 0.00093575  0.00000326  0.0004120 0.0000
 11  -3028.4836280200  -0.005527351057 0.00027175  0.00000164  0.0000905 0.0000
 12  -3028.4816191343   0.002008885751 0.00019630  0.00000117  0.0000211 0.0000
 13  -3028.4815598059   0.000059328330 0.00024614  0.00000141  0.0000091 0.0000
 14  -3028.4815683781  -0.000008572183 0.00030851  0.00000160  0.0000059 0.0000
 15  -3028.4815282949   0.000040083276 0.00037939  0.00000137  0.0000038 0.0000
 16  -3028.4815294544  -0.000001159537 0.00037307  0.00000187  0.0000032 0.0000
 17  -3028.4815448067  -0.000015352289 0.00024725  0.00000130  0.0000021 0.0000
 18  -3028.4815278905   0.000016916189 0.00061318  0.00000263  0.0000016 0.0000
                            ***DIIS convergence achieved***

               *****************************************************
               *                     SUCCESS                       *
               *           SCF CONVERGED AFTER  19 CYCLES          *
               *****************************************************

Total Energy       :        -3028.48153251 Eh          -82409.17210 eV
  Last Energy change         ...   -4.6228e-06  Tolerance :   1.0000e-08
  Last MAX-Density change    ...    2.1001e-04  Tolerance :   1.0000e-07
             **** THE GBW FILE WAS UPDATED (simple-grid-285-300-b3lyp_d3bj-631gd-gas-singlepoint-DLPNO_CCSD_T1-NormalPNO-augtz-gas.gbw) ****
             **** DENSITY FILE WAS UPDATED (simple-grid-285-300-b3lyp_d3bj-631gd-gas-singlepoint-DLPNO_CCSD_T1-NormalPNO-augtz-gas.scfp.tmp) ****
             **** ENERGY FILE WAS UPDATED (simple-grid-285-300-b3lyp_d3bj-631gd-gas-singlepoint-DLPNO_CCSD_T1-NormalPNO-augtz-gas.en.tmp) ****
----------------------
UHF SPIN CONTAMINATION
----------------------

Expectation value of <S**2>     :     8.765108
Ideal value S*(S+1) for S=2.5   :     8.750000
Deviation                       :     0.015108

----------------
ORBITAL ENERGIES
----------------
                 SPIN UP ORBITALS
  NO   OCC          E(Eh)            E(eV) 
   0   1.0000    -261.577998     -7117.8992 
   1   1.0000    -104.795577     -2851.6326 
   2   1.0000    -104.792360     -2851.5451 
   3   1.0000    -104.790183     -2851.4859 
   4   1.0000     -32.245679      -877.4495 
   5   1.0000     -27.722216      -754.3598 
   6   1.0000     -27.720988      -754.3264 
   7   1.0000     -27.720780      -754.3208 
   8   1.0000     -20.627295      -561.2972 
   9   1.0000     -11.422231      -310.8147 
  10   1.0000     -11.279336      -306.9263 
  11   1.0000     -11.273865      -306.7775 
  12   1.0000     -11.260332      -306.4092 
  13   1.0000     -11.240956      -305.8820 
  14   1.0000     -11.240061      -305.8576 
  15   1.0000     -11.234234      -305.6991 
  16   1.0000     -11.226701      -305.4941 
  17   1.0000     -10.522317      -286.3268 
  18   1.0000     -10.519059      -286.2381 
  19   1.0000     -10.516834      -286.1776 
  20   1.0000      -7.989140      -217.3955 
  21   1.0000      -7.988404      -217.3755 
  22   1.0000      -7.988348      -217.3740 
  23   1.0000      -7.985936      -217.3084 
  24   1.0000      -7.985157      -217.2872 
  25   1.0000      -7.985105      -217.2858 
  26   1.0000      -7.983617      -217.2453 
  27   1.0000      -7.982969      -217.2276 
  28   1.0000      -7.982921      -217.2263 
  29   1.0000      -4.600472      -125.1852 
  30   1.0000      -3.213655       -87.4480 
  31   1.0000      -3.211828       -87.3983 
  32   1.0000      -3.211668       -87.3939 
  33   1.0000      -1.470122       -40.0040 
  34   1.0000      -1.120725       -30.4965 
  35   1.0000      -1.102672       -30.0052 
  36   1.0000      -1.068952       -29.0877 
  37   1.0000      -1.063067       -28.9275 
  38   1.0000      -1.060024       -28.8447 
  39   1.0000      -1.021144       -27.7867 
  40   1.0000      -1.008972       -27.4555 
  41   1.0000      -0.954687       -25.9784 
  42   1.0000      -0.944581       -25.7034 
  43   1.0000      -0.929340       -25.2886 
  44   1.0000      -0.929177       -25.2842 
  45   1.0000      -0.918325       -24.9889 
  46   1.0000      -0.917694       -24.9717 
  47   1.0000      -0.892225       -24.2787 
  48   1.0000      -0.817075       -22.2337 
  49   1.0000      -0.725083       -19.7305 
  50   1.0000      -0.715736       -19.4762 
  51   1.0000      -0.705442       -19.1961 
  52   1.0000      -0.683967       -18.6117 
  53   1.0000      -0.650916       -17.7123 
  54   1.0000      -0.621164       -16.9027 
  55   1.0000      -0.617306       -16.7977 
  56   1.0000      -0.604742       -16.4559 
  57   1.0000      -0.600000       -16.3268 
  58   1.0000      -0.586272       -15.9533 
  59   1.0000      -0.580030       -15.7834 
  60   1.0000      -0.561192       -15.2708 
  61   1.0000      -0.548904       -14.9364 
  62   1.0000      -0.545859       -14.8536 
  63   1.0000      -0.538474       -14.6526 
  64   1.0000      -0.536926       -14.6105 
  65   1.0000      -0.523102       -14.2343 
  66   1.0000      -0.506242       -13.7756 
  67   1.0000      -0.489062       -13.3080 
  68   1.0000      -0.478464       -13.0197 
  69   1.0000      -0.478224       -13.0132 
  70   1.0000      -0.448643       -12.2082 
  71   1.0000      -0.442155       -12.0317 
  72   1.0000      -0.440256       -11.9800 
  73   1.0000      -0.431732       -11.7480 
  74   1.0000      -0.430789       -11.7224 
  75   1.0000      -0.429422       -11.6852 
  76   1.0000      -0.356643        -9.7048 
  77   0.0000       0.012658         0.3444 
  78   0.0000       0.023875         0.6497 
  79   0.0000       0.024639         0.6705 
  80   0.0000       0.030856         0.8396 
  81   0.0000       0.039411         1.0724 
  82   0.0000       0.041431         1.1274 
  83   0.0000       0.042605         1.1593 
  84   0.0000       0.043077         1.1722 
  85   0.0000       0.044364         1.2072 
  86   0.0000       0.056383         1.5343 
  87   0.0000       0.057710         1.5704 
  88   0.0000       0.061645         1.6774 
  89   0.0000       0.063957         1.7404 
  90   0.0000       0.064693         1.7604 
  91   0.0000       0.068837         1.8731 
  92   0.0000       0.073685         2.0051 
  93   0.0000       0.077774         2.1164 
  94   0.0000       0.082793         2.2529 
  95   0.0000       0.089901         2.4463 
  96   0.0000       0.091540         2.4909 
  97   0.0000       0.093816         2.5529 
  98   0.0000       0.097270         2.6468 
  99   0.0000       0.102263         2.7827 
 100   0.0000       0.104999         2.8572 
 101   0.0000       0.108222         2.9449 
 102   0.0000       0.117931         3.2091 
 103   0.0000       0.119728         3.2580 
 104   0.0000       0.123360         3.3568 
 105   0.0000       0.123476         3.3600 
 106   0.0000       0.125251         3.4083 
 107   0.0000       0.126961         3.4548 
 108   0.0000       0.130925         3.5627 
 109   0.0000       0.132648         3.6095 
 110   0.0000       0.135312         3.6820 
 111   0.0000       0.138225         3.7613 
 112   0.0000       0.141959         3.8629 
 113   0.0000       0.145525         3.9599 
 114   0.0000       0.147694         4.0189 
 115   0.0000       0.150765         4.1025 
 116   0.0000       0.157060         4.2738 
 117   0.0000       0.161169         4.3856 
 118   0.0000       0.162458         4.4207 
 119   0.0000       0.163836         4.4582 
 120   0.0000       0.168684         4.5901 
 121   0.0000       0.169663         4.6168 
 122   0.0000       0.174332         4.7438 
 123   0.0000       0.180235         4.9044 
 124   0.0000       0.182705         4.9717 
 125   0.0000       0.184082         5.0091 
 126   0.0000       0.186214         5.0671 
 127   0.0000       0.190059         5.1718 
 128   0.0000       0.192313         5.2331 
 129   0.0000       0.195967         5.3325 
 130   0.0000       0.197542         5.3754 
 131   0.0000       0.200061         5.4439 
 132   0.0000       0.203344         5.5333 
 133   0.0000       0.206274         5.6130 
 134   0.0000       0.210451         5.7267 
 135   0.0000       0.215013         5.8508 
 136   0.0000       0.216454         5.8900 
 137   0.0000       0.223915         6.0930 
 138   0.0000       0.225075         6.1246 
 139   0.0000       0.230558         6.2738 
 140   0.0000       0.233260         6.3473 
 141   0.0000       0.234397         6.3783 
 142   0.0000       0.237209         6.4548 
 143   0.0000       0.240756         6.5513 
 144   0.0000       0.241780         6.5792 
 145   0.0000       0.244948         6.6654 
 146   0.0000       0.252815         6.8794 
 147   0.0000       0.253849         6.9076 
 148   0.0000       0.256853         6.9893 
 149   0.0000       0.259166         7.0523 
 150   0.0000       0.260951         7.1008 
 151   0.0000       0.266105         7.2411 
 152   0.0000       0.273064         7.4305 
 153   0.0000       0.277866         7.5611 
 154   0.0000       0.280185         7.6242 
 155   0.0000       0.286350         7.7920 
 156   0.0000       0.289059         7.8657 
 157   0.0000       0.292179         7.9506 
 158   0.0000       0.296164         8.0590 
 159   0.0000       0.306563         8.3420 
 160   0.0000       0.307645         8.3714 
 161   0.0000       0.308284         8.3888 
 162   0.0000       0.316504         8.6125 
 163   0.0000       0.318086         8.6556 
 164   0.0000       0.322864         8.7856 
 165   0.0000       0.328577         8.9410 
 166   0.0000       0.332325         9.0430 
 167   0.0000       0.336126         9.1464 
 168   0.0000       0.336949         9.1688 
 169   0.0000       0.341042         9.2802 
 170   0.0000       0.344911         9.3855 
 171   0.0000       0.352205         9.5840 
 172   0.0000       0.354100         9.6356 
 173   0.0000       0.356913         9.7121 
 174   0.0000       0.357585         9.7304 
 175   0.0000       0.364207         9.9106 
 176   0.0000       0.366929         9.9847 
 177   0.0000       0.372350        10.1321 
 178   0.0000       0.373269        10.1572 
 179   0.0000       0.375231        10.2105 
 180   0.0000       0.376278        10.2390 
 181   0.0000       0.378884        10.3100 
 182   0.0000       0.381139        10.3713 
 183   0.0000       0.382367        10.4047 
 184   0.0000       0.389822        10.6076 
 185   0.0000       0.392235        10.6733 
 186   0.0000       0.395038        10.7495 
 187   0.0000       0.397908        10.8276 
 188   0.0000       0.401788        10.9332 
 189   0.0000       0.402634        10.9562 
 190   0.0000       0.406156        11.0521 
 191   0.0000       0.411324        11.1927 
 192   0.0000       0.411475        11.1968 
 193   0.0000       0.420128        11.4323 
 194   0.0000       0.420286        11.4366 
 195   0.0000       0.431794        11.7497 
 196   0.0000       0.433196        11.7879 
 197   0.0000       0.437105        11.8942 
 198   0.0000       0.437598        11.9076 
 199   0.0000       0.443059        12.0563 
 200   0.0000       0.448353        12.2003 
 201   0.0000       0.449206        12.2235 
 202   0.0000       0.455169        12.3858 
 203   0.0000       0.457155        12.4398 
 204   0.0000       0.458674        12.4812 
 205   0.0000       0.461785        12.5658 
 206   0.0000       0.463869        12.6225 
 207   0.0000       0.472444        12.8559 
 208   0.0000       0.477517        12.9939 
 209   0.0000       0.478289        13.0149 
 210   0.0000       0.481938        13.1142 
 211   0.0000       0.486906        13.2494 
 212   0.0000       0.490910        13.3584 
 213   0.0000       0.492165        13.3925 
 214   0.0000       0.495779        13.4908 
 215   0.0000       0.500439        13.6176 
 216   0.0000       0.503600        13.7036 
 217   0.0000       0.507913        13.8210 
 218   0.0000       0.509426        13.8622 
 219   0.0000       0.511827        13.9275 
 220   0.0000       0.513287        13.9673 
 221   0.0000       0.519274        14.1302 
 222   0.0000       0.521436        14.1890 
 223   0.0000       0.523042        14.2327 
 224   0.0000       0.525796        14.3076 
 225   0.0000       0.528573        14.3832 
 226   0.0000       0.532104        14.4793 
 227   0.0000       0.533630        14.5208 
 228   0.0000       0.538409        14.6509 
 229   0.0000       0.541429        14.7330 
 230   0.0000       0.541728        14.7412 
 231   0.0000       0.547233        14.8910 
 232   0.0000       0.551666        15.0116 
 233   0.0000       0.555829        15.1249 
 234   0.0000       0.558730        15.2038 
 235   0.0000       0.565053        15.3759 
 236   0.0000       0.568346        15.4655 
 237   0.0000       0.571518        15.5518 
 238   0.0000       0.571894        15.5620 
 239   0.0000       0.576606        15.6902 
 240   0.0000       0.582100        15.8398 
 241   0.0000       0.586107        15.9488 
 242   0.0000       0.587909        15.9978 
 243   0.0000       0.589441        16.0395 
 244   0.0000       0.594611        16.1802 
 245   0.0000       0.600063        16.3285 
 246   0.0000       0.604226        16.4418 
 247   0.0000       0.607466        16.5300 
 248   0.0000       0.609718        16.5913 
 249   0.0000       0.614351        16.7173 
 250   0.0000       0.615048        16.7363 
 251   0.0000       0.621357        16.9080 
 252   0.0000       0.628942        17.1144 
 253   0.0000       0.630101        17.1459 
 254   0.0000       0.633661        17.2428 
 255   0.0000       0.637540        17.3483 
 256   0.0000       0.638874        17.3847 
 257   0.0000       0.644472        17.5370 
 258   0.0000       0.648483        17.6461 
 259   0.0000       0.651198        17.7200 
 260   0.0000       0.657030        17.8787 
 261   0.0000       0.661255        17.9937 
 262   0.0000       0.663676        18.0595 
 263   0.0000       0.671137        18.2626 
 264   0.0000       0.671657        18.2767 
 265   0.0000       0.674266        18.3477 
 266   0.0000       0.679413        18.4878 
 267   0.0000       0.684929        18.6379 
 268   0.0000       0.690971        18.8023 
 269   0.0000       0.694874        18.9085 
 270   0.0000       0.696607        18.9556 
 271   0.0000       0.699932        19.0461 
 272   0.0000       0.706418        19.2226 
 273   0.0000       0.710253        19.3270 
 274   0.0000       0.715148        19.4602 
 275   0.0000       0.717966        19.5369 
 276   0.0000       0.722128        19.6501 
 277   0.0000       0.729940        19.8627 
 278   0.0000       0.732869        19.9424 
 279   0.0000       0.734498        19.9867 
 280   0.0000       0.742221        20.1969 
 281   0.0000       0.745922        20.2976 
 282   0.0000       0.752323        20.4717 
 283   0.0000       0.758007        20.6264 
 284   0.0000       0.763799        20.7840 
 285   0.0000       0.772827        21.0297 
 286   0.0000       0.775990        21.1158 
 287   0.0000       0.779901        21.2222 
 288   0.0000       0.789406        21.4808 
 289   0.0000       0.795279        21.6406 
 290   0.0000       0.806899        21.9568 
 291   0.0000       0.809497        22.0275 
 292   0.0000       0.815803        22.1991 
 293   0.0000       0.819380        22.2965 
 294   0.0000       0.825874        22.4732 
 295   0.0000       0.832887        22.6640 
 296   0.0000       0.837048        22.7772 
 297   0.0000       0.842546        22.9268 
 298   0.0000       0.850280        23.1373 
 299   0.0000       0.855359        23.2755 
 300   0.0000       0.857976        23.3467 
 301   0.0000       0.861723        23.4487 
 302   0.0000       0.865938        23.5634 
 303   0.0000       0.872937        23.7538 
 304   0.0000       0.876099        23.8399 
 305   0.0000       0.879280        23.9264 
 306   0.0000       0.882173        24.0052 
 307   0.0000       0.886779        24.1305 
 308   0.0000       0.893180        24.3047 
 309   0.0000       0.903677        24.5903 
 310   0.0000       0.905534        24.6408 
 311   0.0000       0.909663        24.7532 
 312   0.0000       0.910875        24.7862 
 313   0.0000       0.913227        24.8502 
 314   0.0000       0.918514        24.9940 
 315   0.0000       0.924482        25.1564 
 316   0.0000       0.927137        25.2287 
 317   0.0000       0.929054        25.2808 
 318   0.0000       0.938416        25.5356 
 319   0.0000       0.938810        25.5463 
 320   0.0000       0.942877        25.6570 
 321   0.0000       0.944040        25.6886 
 322   0.0000       0.946432        25.7537 
 323   0.0000       0.951912        25.9028 
 324   0.0000       0.953730        25.9523 
 325   0.0000       0.956807        26.0361 
 326   0.0000       0.960578        26.1386 
 327   0.0000       0.966051        26.2876 
 328   0.0000       0.969479        26.3809 
 329   0.0000       0.970811        26.4171 
 330   0.0000       0.972535        26.4640 
 331   0.0000       0.978549        26.6277 
 332   0.0000       0.981402        26.7053 
 333   0.0000       0.984900        26.8005 
 334   0.0000       0.990121        26.9426 
 335   0.0000       0.996308        27.1109 
 336   0.0000       1.000008        27.2116 
 337   0.0000       1.002568        27.2812 
 338   0.0000       1.005759        27.3681 
 339   0.0000       1.007757        27.4225 
 340   0.0000       1.010470        27.4963 
 341   0.0000       1.014880        27.6163 
 342   0.0000       1.018000        27.7012 
 343   0.0000       1.022998        27.8372 
 344   0.0000       1.025378        27.9020 
 345   0.0000       1.029113        28.0036 
 346   0.0000       1.033913        28.1342 
 347   0.0000       1.037442        28.2302 
 348   0.0000       1.042659        28.3722 
 349   0.0000       1.044909        28.4334 
 350   0.0000       1.049404        28.5557 
 351   0.0000       1.050338        28.5812 
 352   0.0000       1.054825        28.7032 
 353   0.0000       1.059632        28.8341 
 354   0.0000       1.065769        29.0011 
 355   0.0000       1.068850        29.0849 
 356   0.0000       1.069831        29.1116 
 357   0.0000       1.077593        29.3228 
 358   0.0000       1.081289        29.4234 
 359   0.0000       1.084593        29.5133 
 360   0.0000       1.086579        29.5673 
 361   0.0000       1.090276        29.6679 
 362   0.0000       1.093901        29.7665 
 363   0.0000       1.099622        29.9222 
 364   0.0000       1.100771        29.9535 
 365   0.0000       1.103419        30.0256 
 366   0.0000       1.109474        30.1903 
 367   0.0000       1.114019        30.3140 
 368   0.0000       1.118096        30.4250 
 369   0.0000       1.120864        30.5003 
 370   0.0000       1.128332        30.7035 
 371   0.0000       1.131657        30.7939 
 372   0.0000       1.136834        30.9348 
 373   0.0000       1.140090        31.0234 
 374   0.0000       1.144768        31.1507 
 375   0.0000       1.147544        31.2263 
 376   0.0000       1.150093        31.2956 
 377   0.0000       1.155412        31.4404 
 378   0.0000       1.165418        31.7126 
 379   0.0000       1.169273        31.8175 
 380   0.0000       1.171890        31.8887 
 381   0.0000       1.173271        31.9263 
 382   0.0000       1.178677        32.0734 
 383   0.0000       1.183225        32.1972 
 384   0.0000       1.189132        32.3579 
 385   0.0000       1.195647        32.5352 
 386   0.0000       1.198941        32.6248 
 387   0.0000       1.203276        32.7428 
 388   0.0000       1.205493        32.8031 
 389   0.0000       1.210504        32.9395 
 390   0.0000       1.216550        33.1040 
 391   0.0000       1.224439        33.3187 
 392   0.0000       1.227781        33.4096 
 393   0.0000       1.230545        33.4848 
 394   0.0000       1.234113        33.5819 
 395   0.0000       1.239500        33.7285 
 396   0.0000       1.246276        33.9129 
 397   0.0000       1.250048        34.0155 
 398   0.0000       1.252835        34.0914 
 399   0.0000       1.260447        34.2985 
 400   0.0000       1.264146        34.3992 
 401   0.0000       1.267811        34.4989 
 402   0.0000       1.273110        34.6431 
 403   0.0000       1.276236        34.7281 
 404   0.0000       1.282134        34.8886 
 405   0.0000       1.288511        35.0622 
 406   0.0000       1.290180        35.1076 
 407   0.0000       1.297230        35.2994 
 408   0.0000       1.299842        35.3705 
 409   0.0000       1.308289        35.6004 
 410   0.0000       1.309532        35.6342 
 411   0.0000       1.312909        35.7261 
 412   0.0000       1.314062        35.7574 
 413   0.0000       1.321226        35.9524 
 414   0.0000       1.330378        36.2014 
 415   0.0000       1.335110        36.3302 
 416   0.0000       1.339423        36.4476 
 417   0.0000       1.344269        36.5794 
 418   0.0000       1.349441        36.7202 
 419   0.0000       1.358415        36.9643 
 420   0.0000       1.361047        37.0360 
 421   0.0000       1.368396        37.2359 
 422   0.0000       1.372719        37.3536 
 423   0.0000       1.377912        37.4949 
 424   0.0000       1.379759        37.5451 
 425   0.0000       1.381972        37.6054 
 426   0.0000       1.389767        37.8175 
 427   0.0000       1.391002        37.8511 
 428   0.0000       1.398136        38.0452 
 429   0.0000       1.402634        38.1676 
 430   0.0000       1.411777        38.4164 
 431   0.0000       1.419886        38.6371 
 432   0.0000       1.424883        38.7730 
 433   0.0000       1.429200        38.8905 
 434   0.0000       1.439253        39.1641 
 435   0.0000       1.441974        39.2381 
 436   0.0000       1.450505        39.4702 
 437   0.0000       1.450884        39.4805 
 438   0.0000       1.459177        39.7062 
 439   0.0000       1.460865        39.7522 
 440   0.0000       1.465609        39.8812 
 441   0.0000       1.468457        39.9588 
 442   0.0000       1.471013        40.0283 
 443   0.0000       1.477102        40.1940 
 444   0.0000       1.483033        40.3554 
 445   0.0000       1.484141        40.3855 
 446   0.0000       1.487513        40.4773 
 447   0.0000       1.494112        40.6569 
 448   0.0000       1.498429        40.7743 
 449   0.0000       1.503137        40.9024 
 450   0.0000       1.512188        41.1487 
 451   0.0000       1.516024        41.2531 
 452   0.0000       1.527169        41.5564 
 453   0.0000       1.532563        41.7032 
 454   0.0000       1.534559        41.7575 
 455   0.0000       1.537235        41.8303 
 456   0.0000       1.543919        42.0122 
 457   0.0000       1.551392        42.2155 
 458   0.0000       1.558456        42.4077 
 459   0.0000       1.561465        42.4896 
 460   0.0000       1.567137        42.6440 
 461   0.0000       1.573158        42.8078 
 462   0.0000       1.576277        42.8927 
 463   0.0000       1.586128        43.1607 
 464   0.0000       1.588986        43.2385 
 465   0.0000       1.591972        43.3198 
 466   0.0000       1.600767        43.5591 
 467   0.0000       1.607189        43.7338 
 468   0.0000       1.610473        43.8232 
 469   0.0000       1.619807        44.0772 
 470   0.0000       1.622218        44.1428 
 471   0.0000       1.632119        44.4122 
 472   0.0000       1.633653        44.4540 
 473   0.0000       1.643965        44.7346 
 474   0.0000       1.646120        44.7932 
 475   0.0000       1.647721        44.8368 
 476   0.0000       1.658421        45.1279 
 477   0.0000       1.659903        45.1683 
 478   0.0000       1.666625        45.3512 
 479   0.0000       1.675799        45.6008 
 480   0.0000       1.678907        45.6854 
 481   0.0000       1.688524        45.9471 
 482   0.0000       1.691214        46.0203 
 483   0.0000       1.695068        46.1251 
 484   0.0000       1.700093        46.2619 
 485   0.0000       1.703350        46.3505 
 486   0.0000       1.707731        46.4697 
 487   0.0000       1.717570        46.7375 
 488   0.0000       1.719466        46.7890 
 489   0.0000       1.725658        46.9575 
 490   0.0000       1.729389        47.0591 
 491   0.0000       1.733334        47.1664 
 492   0.0000       1.743671        47.4477 
 493   0.0000       1.747221        47.5443 
 494   0.0000       1.757185        47.8154 
 495   0.0000       1.759414        47.8761 
 496   0.0000       1.761226        47.9254 
 497   0.0000       1.763191        47.9789 
 498   0.0000       1.772186        48.2236 
 499   0.0000       1.776289        48.3353 
 500   0.0000       1.784665        48.5632 
 501   0.0000       1.789010        48.6814 
 502   0.0000       1.793915        48.8149 
 503   0.0000       1.795918        48.8694 
 504   0.0000       1.805532        49.1310 
 505   0.0000       1.809044        49.2266 
 506   0.0000       1.814287        49.3693 
 507   0.0000       1.815649        49.4063 
 508   0.0000       1.822384        49.5896 
 509   0.0000       1.824802        49.6554 
 510   0.0000       1.829861        49.7930 
 511   0.0000       1.834769        49.9266 
 512   0.0000       1.841547        50.1110 
 513   0.0000       1.843496        50.1641 
 514   0.0000       1.853045        50.4239 
 515   0.0000       1.858673        50.5771 
 516   0.0000       1.864881        50.7460 
 517   0.0000       1.869722        50.8777 
 518   0.0000       1.875542        51.0361 
 519   0.0000       1.877021        51.0763 
 520   0.0000       1.888276        51.3826 
 521   0.0000       1.897462        51.6326 
 522   0.0000       1.900899        51.7261 
 523   0.0000       1.904058        51.8120 
 524   0.0000       1.907944        51.9178 
 525   0.0000       1.916595        52.1532 
 526   0.0000       1.919709        52.2379 
 527   0.0000       1.924245        52.3614 
 528   0.0000       1.928828        52.4861 
 529   0.0000       1.932513        52.5863 
 530   0.0000       1.934148        52.6308 
 531   0.0000       1.943760        52.8924 
 532   0.0000       1.947211        52.9863 
 533   0.0000       1.953902        53.1684 
 534   0.0000       1.957991        53.2796 
 535   0.0000       1.965582        53.4862 
 536   0.0000       1.969248        53.5860 
 537   0.0000       1.978850        53.8472 
 538   0.0000       1.988248        54.1030 
 539   0.0000       1.991932        54.2032 
 540   0.0000       1.997306        54.3495 
 541   0.0000       2.002847        54.5002 
 542   0.0000       2.006897        54.6104 
 543   0.0000       2.020388        54.9776 
 544   0.0000       2.021306        55.0025 
 545   0.0000       2.026235        55.1366 
 546   0.0000       2.034156        55.3522 
 547   0.0000       2.045990        55.6742 
 548   0.0000       2.049976        55.7827 
 549   0.0000       2.054753        55.9127 
 550   0.0000       2.059613        56.0449 
 551   0.0000       2.064592        56.1804 
 552   0.0000       2.078591        56.5613 
 553   0.0000       2.080504        56.6134 
 554   0.0000       2.086800        56.7847 
 555   0.0000       2.092443        56.9383 
 556   0.0000       2.103399        57.2364 
 557   0.0000       2.103984        57.2523 
 558   0.0000       2.112584        57.4863 
 559   0.0000       2.125760        57.8449 
 560   0.0000       2.128733        57.9258 
 561   0.0000       2.139306        58.2135 
 562   0.0000       2.143751        58.3344 
 563   0.0000       2.146090        58.3981 
 564   0.0000       2.154495        58.6268 
 565   0.0000       2.159640        58.7668 
 566   0.0000       2.165703        58.9318 
 567   0.0000       2.175017        59.1852 
 568   0.0000       2.184533        59.4442 
 569   0.0000       2.194123        59.7051 
 570   0.0000       2.197974        59.8099 
 571   0.0000       2.201428        59.9039 
 572   0.0000       2.209836        60.1327 
 573   0.0000       2.218033        60.3557 
 574   0.0000       2.225777        60.5665 
 575   0.0000       2.229851        60.6773 
 576   0.0000       2.238034        60.9000 
 577   0.0000       2.244400        61.0732 
 578   0.0000       2.247317        61.1526 
 579   0.0000       2.255582        61.3775 
 580   0.0000       2.266270        61.6683 
 581   0.0000       2.268084        61.7177 
 582   0.0000       2.283009        62.1238 
 583   0.0000       2.292983        62.3953 
 584   0.0000       2.300179        62.5911 
 585   0.0000       2.304438        62.7069 
 586   0.0000       2.311808        62.9075 
 587   0.0000       2.322982        63.2116 
 588   0.0000       2.325530        63.2809 
 589   0.0000       2.338945        63.6459 
 590   0.0000       2.346047        63.8392 
 591   0.0000       2.351123        63.9773 
 592   0.0000       2.360254        64.2258 
 593   0.0000       2.370108        64.4939 
 594   0.0000       2.377761        64.7022 
 595   0.0000       2.384364        64.8819 
 596   0.0000       2.387884        64.9776 
 597   0.0000       2.394143        65.1480 
 598   0.0000       2.397228        65.2319 
 599   0.0000       2.402179        65.3666 
 600   0.0000       2.415910        65.7403 
 601   0.0000       2.427352        66.0516 
 602   0.0000       2.430449        66.1359 
 603   0.0000       2.437681        66.3327 
 604   0.0000       2.449856        66.6640 
 605   0.0000       2.462075        66.9965 
 606   0.0000       2.482392        67.5493 
 607   0.0000       2.484947        67.6188 
 608   0.0000       2.495225        67.8985 
 609   0.0000       2.502022        68.0835 
 610   0.0000       2.512681        68.3735 
 611   0.0000       2.524404        68.6925 
 612   0.0000       2.530410        68.8560 
 613   0.0000       2.552940        69.4690 
 614   0.0000       2.562775        69.7367 
 615   0.0000       2.572390        69.9983 
 616   0.0000       2.580317        70.2140 
 617   0.0000       2.586175        70.3734 
 618   0.0000       2.615835        71.1805 
 619   0.0000       2.629808        71.5607 
 620   0.0000       2.637257        71.7634 
 621   0.0000       2.646366        72.0113 
 622   0.0000       2.651913        72.1622 
 623   0.0000       2.667333        72.5818 
 624   0.0000       2.673903        72.7606 
 625   0.0000       2.678480        72.8851 
 626   0.0000       2.684503        73.0491 
 627   0.0000       2.695370        73.3447 
 628   0.0000       2.705470        73.6196 
 629   0.0000       2.709092        73.7182 
 630   0.0000       2.713963        73.8507 
 631   0.0000       2.734128        74.3994 
 632   0.0000       2.742538        74.6282 
 633   0.0000       2.749192        74.8093 
 634   0.0000       2.757168        75.0263 
 635   0.0000       2.767224        75.3000 
 636   0.0000       2.774159        75.4887 
 637   0.0000       2.777398        75.5768 
 638   0.0000       2.791222        75.9530 
 639   0.0000       2.811465        76.5039 
 640   0.0000       2.822807        76.8125 
 641   0.0000       2.834063        77.1188 
 642   0.0000       2.840429        77.2920 
 643   0.0000       2.852378        77.6172 
 644   0.0000       2.868530        78.0567 
 645   0.0000       2.887806        78.5812 
 646   0.0000       2.891163        78.6725 
 647   0.0000       2.894816        78.7719 
 648   0.0000       2.910703        79.2043 
 649   0.0000       2.920083        79.4595 
 650   0.0000       2.933199        79.8164 
 651   0.0000       2.951257        80.3078 
 652   0.0000       2.961338        80.5821 
 653   0.0000       2.967465        80.7488 
 654   0.0000       2.992235        81.4228 
 655   0.0000       3.005868        81.7938 
 656   0.0000       3.025492        82.3278 
 657   0.0000       3.040939        82.7482 
 658   0.0000       3.058844        83.2354 
 659   0.0000       3.069270        83.5191 
 660   0.0000       3.076985        83.7290 
 661   0.0000       3.101564        84.3979 
 662   0.0000       3.109502        84.6139 
 663   0.0000       3.119405        84.8833 
 664   0.0000       3.128617        85.1340 
 665   0.0000       3.149268        85.6959 
 666   0.0000       3.166831        86.1739 
 667   0.0000       3.171747        86.3076 
 668   0.0000       3.194100        86.9159 
 669   0.0000       3.198580        87.0378 
 670   0.0000       3.207593        87.2831 
 671   0.0000       3.213976        87.4567 
 672   0.0000       3.222394        87.6858 
 673   0.0000       3.240561        88.1802 
 674   0.0000       3.245465        88.3136 
 675   0.0000       3.252788        88.5129 
 676   0.0000       3.262053        88.7650 
 677   0.0000       3.266836        88.8951 
 678   0.0000       3.270577        88.9969 
 679   0.0000       3.284001        89.3622 
 680   0.0000       3.285712        89.4088 
 681   0.0000       3.306858        89.9842 
 682   0.0000       3.328070        90.5614 
 683   0.0000       3.329333        90.5958 
 684   0.0000       3.331480        90.6542 
 685   0.0000       3.347965        91.1028 
 686   0.0000       3.358183        91.3808 
 687   0.0000       3.377269        91.9002 
 688   0.0000       3.383570        92.0716 
 689   0.0000       3.397917        92.4620 
 690   0.0000       3.410132        92.7944 
 691   0.0000       3.415735        92.9469 
 692   0.0000       3.424037        93.1728 
 693   0.0000       3.431141        93.3661 
 694   0.0000       3.432799        93.4112 
 695   0.0000       3.446047        93.7717 
 696   0.0000       3.448971        93.8513 
 697   0.0000       3.455814        94.0375 
 698   0.0000       3.467068        94.3437 
 699   0.0000       3.474977        94.5589 
 700   0.0000       3.483194        94.7825 
 701   0.0000       3.490326        94.9766 
 702   0.0000       3.501669        95.2853 
 703   0.0000       3.505063        95.3776 
 704   0.0000       3.512280        95.5740 
 705   0.0000       3.525293        95.9281 
 706   0.0000       3.537448        96.2589 
 707   0.0000       3.541619        96.3724 
 708   0.0000       3.547878        96.5427 
 709   0.0000       3.558966        96.8444 
 710   0.0000       3.567682        97.0816 
 711   0.0000       3.573545        97.2411 
 712   0.0000       3.579753        97.4100 
 713   0.0000       3.582307        97.4795 
 714   0.0000       3.594624        97.8147 
 715   0.0000       3.606205        98.1298 
 716   0.0000       3.621113        98.5355 
 717   0.0000       3.628275        98.7304 
 718   0.0000       3.635076        98.9154 
 719   0.0000       3.641126        99.0801 
 720   0.0000       3.651645        99.3663 
 721   0.0000       3.663248        99.6820 
 722   0.0000       3.667353        99.7937 
 723   0.0000       3.677525       100.0705 
 724   0.0000       3.682440       100.2043 
 725   0.0000       3.692976       100.4910 
 726   0.0000       3.697012       100.6008 
 727   0.0000       3.702731       100.7564 
 728   0.0000       3.704609       100.8075 
 729   0.0000       3.720467       101.2391 
 730   0.0000       3.722359       101.2905 
 731   0.0000       3.731688       101.5444 
 732   0.0000       3.733994       101.6071 
 733   0.0000       3.740596       101.7868 
 734   0.0000       3.748847       102.0113 
 735   0.0000       3.761530       102.3564 
 736   0.0000       3.762406       102.3803 
 737   0.0000       3.777966       102.8037 
 738   0.0000       3.783950       102.9665 
 739   0.0000       3.784453       102.9802 
 740   0.0000       3.790261       103.1382 
 741   0.0000       3.793417       103.2241 
 742   0.0000       3.803762       103.5056 
 743   0.0000       3.812786       103.7512 
 744   0.0000       3.820705       103.9667 
 745   0.0000       3.832341       104.2833 
 746   0.0000       3.837109       104.4130 
 747   0.0000       3.853164       104.8499 
 748   0.0000       3.857272       104.9617 
 749   0.0000       3.863049       105.1189 
 750   0.0000       3.867872       105.2501 
 751   0.0000       3.879777       105.5741 
 752   0.0000       3.882784       105.6559 
 753   0.0000       3.890167       105.8568 
 754   0.0000       3.892844       105.9297 
 755   0.0000       3.902286       106.1866 
 756   0.0000       3.910607       106.4130 
 757   0.0000       3.914074       106.5074 
 758   0.0000       3.915735       106.5526 
 759   0.0000       3.932094       106.9977 
 760   0.0000       3.941537       107.2547 
 761   0.0000       3.949603       107.4742 
 762   0.0000       3.950135       107.4886 
 763   0.0000       3.957772       107.6964 
 764   0.0000       3.966148       107.9244 
 765   0.0000       3.972221       108.0896 
 766   0.0000       3.978097       108.2495 
 767   0.0000       3.990617       108.5902 
 768   0.0000       3.996302       108.7449 
 769   0.0000       4.001990       108.8997 
 770   0.0000       4.006945       109.0345 
 771   0.0000       4.012644       109.1896 
 772   0.0000       4.025302       109.5340 
 773   0.0000       4.033013       109.7439 
 774   0.0000       4.037284       109.8601 
 775   0.0000       4.050047       110.2074 
 776   0.0000       4.050777       110.2272 
 777   0.0000       4.057349       110.4061 
 778   0.0000       4.068643       110.7134 
 779   0.0000       4.076042       110.9147 
 780   0.0000       4.078638       110.9854 
 781   0.0000       4.090778       111.3157 
 782   0.0000       4.101927       111.6191 
 783   0.0000       4.105280       111.7103 
 784   0.0000       4.110752       111.8593 
 785   0.0000       4.118337       112.0657 
 786   0.0000       4.122802       112.1871 
 787   0.0000       4.135458       112.5315 
 788   0.0000       4.140000       112.6551 
 789   0.0000       4.155462       113.0759 
 790   0.0000       4.156123       113.0939 
 791   0.0000       4.170219       113.4774 
 792   0.0000       4.172573       113.5415 
 793   0.0000       4.179216       113.7222 
 794   0.0000       4.190770       114.0367 
 795   0.0000       4.204360       114.4065 
 796   0.0000       4.207811       114.5004 
 797   0.0000       4.217369       114.7604 
 798   0.0000       4.222629       114.9036 
 799   0.0000       4.226678       115.0137 
 800   0.0000       4.239103       115.3519 
 801   0.0000       4.245259       115.5194 
 802   0.0000       4.249172       115.6258 
 803   0.0000       4.264865       116.0529 
 804   0.0000       4.270132       116.1962 
 805   0.0000       4.286174       116.6327 
 806   0.0000       4.297443       116.9394 
 807   0.0000       4.307029       117.2002 
 808   0.0000       4.313801       117.3845 
 809   0.0000       4.325812       117.7113 
 810   0.0000       4.331994       117.8796 
 811   0.0000       4.341644       118.1421 
 812   0.0000       4.362116       118.6992 
 813   0.0000       4.363299       118.7314 
 814   0.0000       4.370183       118.9187 
 815   0.0000       4.382444       119.2524 
 816   0.0000       4.395560       119.6093 
 817   0.0000       4.409926       120.0002 
 818   0.0000       4.421313       120.3100 
 819   0.0000       4.424247       120.3899 
 820   0.0000       4.435032       120.6833 
 821   0.0000       4.441308       120.8541 
 822   0.0000       4.449697       121.0824 
 823   0.0000       4.457393       121.2918 
 824   0.0000       4.462320       121.4259 
 825   0.0000       4.473060       121.7182 
 826   0.0000       4.490187       122.1842 
 827   0.0000       4.501537       122.4930 
 828   0.0000       4.505626       122.6043 
 829   0.0000       4.515686       122.8781 
 830   0.0000       4.519131       122.9718 
 831   0.0000       4.531637       123.3121 
 832   0.0000       4.536123       123.4342 
 833   0.0000       4.544681       123.6671 
 834   0.0000       4.547844       123.7531 
 835   0.0000       4.564133       124.1964 
 836   0.0000       4.574800       124.4866 
 837   0.0000       4.590883       124.9243 
 838   0.0000       4.607642       125.3803 
 839   0.0000       4.615779       125.6017 
 840   0.0000       4.620816       125.7388 
 841   0.0000       4.640838       126.2836 
 842   0.0000       4.647543       126.4661 
 843   0.0000       4.665553       126.9562 
 844   0.0000       4.675201       127.2187 
 845   0.0000       4.677485       127.2808 
 846   0.0000       4.688199       127.5724 
 847   0.0000       4.693612       127.7197 
 848   0.0000       4.704257       128.0093 
 849   0.0000       4.719045       128.4118 
 850   0.0000       4.722498       128.5057 
 851   0.0000       4.739618       128.9716 
 852   0.0000       4.742421       129.0478 
 853   0.0000       4.773895       129.9043 
 854   0.0000       4.796986       130.5326 
 855   0.0000       4.800011       130.6149 
 856   0.0000       4.802547       130.6839 
 857   0.0000       4.819295       131.1397 
 858   0.0000       4.822553       131.2283 
 859   0.0000       4.839760       131.6966 
 860   0.0000       4.844761       131.8326 
 861   0.0000       4.865389       132.3940 
 862   0.0000       4.882789       132.8674 
 863   0.0000       4.887610       132.9986 
 864   0.0000       4.895382       133.2101 
 865   0.0000       4.902095       133.3928 
 866   0.0000       4.905761       133.4925 
 867   0.0000       4.927833       134.0932 
 868   0.0000       4.937016       134.3430 
 869   0.0000       4.950061       134.6980 
 870   0.0000       4.962275       135.0304 
 871   0.0000       4.966158       135.1360 
 872   0.0000       4.983077       135.5964 
 873   0.0000       4.989967       135.7839 
 874   0.0000       4.992794       135.8608 
 875   0.0000       5.012178       136.3883 
 876   0.0000       5.023979       136.7094 
 877   0.0000       5.032645       136.9452 
 878   0.0000       5.039135       137.1218 
 879   0.0000       5.050116       137.4207 
 880   0.0000       5.074864       138.0941 
 881   0.0000       5.088583       138.4674 
 882   0.0000       5.097669       138.7146 
 883   0.0000       5.107999       138.9957 
 884   0.0000       5.119581       139.3109 
 885   0.0000       5.140615       139.8833 
 886   0.0000       5.151734       140.1858 
 887   0.0000       5.169231       140.6619 
 888   0.0000       5.169740       140.6758 
 889   0.0000       5.193935       141.3342 
 890   0.0000       5.195358       141.3729 
 891   0.0000       5.209633       141.7613 
 892   0.0000       5.215591       141.9234 
 893   0.0000       5.233360       142.4070 
 894   0.0000       5.236224       142.4849 
 895   0.0000       5.262033       143.1872 
 896   0.0000       5.268277       143.3571 
 897   0.0000       5.276147       143.5712 
 898   0.0000       5.280179       143.6810 
 899   0.0000       5.296060       144.1131 
 900   0.0000       5.317488       144.6962 
 901   0.0000       5.334728       145.1653 
 902   0.0000       5.347410       145.5104 
 903   0.0000       5.351861       145.6315 
 904   0.0000       5.367339       146.0527 
 905   0.0000       5.382868       146.4753 
 906   0.0000       5.393439       146.7629 
 907   0.0000       5.417440       147.4160 
 908   0.0000       5.419088       147.4609 
 909   0.0000       5.429172       147.7353 
 910   0.0000       5.441678       148.0756 
 911   0.0000       5.447743       148.2406 
 912   0.0000       5.454302       148.4191 
 913   0.0000       5.482585       149.1887 
 914   0.0000       5.495406       149.5376 
 915   0.0000       5.499032       149.6363 
 916   0.0000       5.514138       150.0473 
 917   0.0000       5.533619       150.5774 
 918   0.0000       5.542950       150.8313 
 919   0.0000       5.554256       151.1390 
 920   0.0000       5.555571       151.1748 
 921   0.0000       5.574665       151.6944 
 922   0.0000       5.589351       152.0940 
 923   0.0000       5.610299       152.6640 
 924   0.0000       5.614111       152.7677 
 925   0.0000       5.625926       153.0892 
 926   0.0000       5.629294       153.1809 
 927   0.0000       5.643121       153.5571 
 928   0.0000       5.652110       153.8017 
 929   0.0000       5.664999       154.1525 
 930   0.0000       5.687995       154.7782 
 931   0.0000       5.696968       155.0224 
 932   0.0000       5.705018       155.2414 
 933   0.0000       5.720433       155.6609 
 934   0.0000       5.736253       156.0914 
 935   0.0000       5.738952       156.1648 
 936   0.0000       5.744845       156.3252 
 937   0.0000       5.758520       156.6973 
 938   0.0000       5.776824       157.1954 
 939   0.0000       5.792187       157.6134 
 940   0.0000       5.817334       158.2977 
 941   0.0000       5.860548       159.4736 
 942   0.0000       5.868173       159.6811 
 943   0.0000       5.892460       160.3420 
 944   0.0000       5.948732       161.8732 
 945   0.0000       5.956076       162.0731 
 946   0.0000       6.052960       164.7094 
 947   0.0000       6.067390       165.1021 
 948   0.0000       6.085238       165.5877 
 949   0.0000       6.092378       165.7820 
 950   0.0000       6.138357       167.0332 
 951   0.0000       6.152126       167.4078 
 952   0.0000       6.175169       168.0349 
 953   0.0000       6.189705       168.4304 
 954   0.0000       6.199477       168.6963 
 955   0.0000       6.213004       169.0644 
 956   0.0000       6.229866       169.5233 
 957   0.0000       6.244174       169.9126 
 958   0.0000       6.245521       169.9493 
 959   0.0000       6.269789       170.6096 
 960   0.0000       6.282425       170.9535 
 961   0.0000       6.296067       171.3247 
 962   0.0000       6.310898       171.7283 
 963   0.0000       6.321225       172.0093 
 964   0.0000       6.334678       172.3753 
 965   0.0000       6.348316       172.7465 
 966   0.0000       6.376564       173.5151 
 967   0.0000       6.392367       173.9451 
 968   0.0000       6.446406       175.4156 
 969   0.0000       6.519352       177.4006 
 970   0.0000       6.573500       178.8740 
 971   0.0000       6.625921       180.3005 
 972   0.0000       6.782451       184.5599 
 973   0.0000       6.812683       185.3825 
 974   0.0000       6.833843       185.9583 
 975   0.0000       6.863965       186.7780 
 976   0.0000       6.894101       187.5980 
 977   0.0000       6.910077       188.0328 
 978   0.0000       6.934210       188.6894 
 979   0.0000       6.955647       189.2728 
 980   0.0000       6.971354       189.7002 
 981   0.0000       6.993934       190.3146 
 982   0.0000       7.018257       190.9765 
 983   0.0000       7.030013       191.2964 
 984   0.0000       7.058994       192.0850 
 985   0.0000       7.094235       193.0440 
 986   0.0000       7.204460       196.0433 
 987   0.0000       7.235982       196.9011 
 988   0.0000       7.293905       198.4772 
 989   0.0000       7.330671       199.4777 
 990   0.0000       7.482334       203.6047 
 991   0.0000       7.538044       205.1206 
 992   0.0000       7.576412       206.1647 
 993   0.0000       7.680956       209.0094 
 994   0.0000       7.728382       210.3000 
 995   0.0000       7.810041       212.5220 
 996   0.0000       7.873924       214.2604 
 997   0.0000       7.963272       216.6917 
 998   0.0000       8.229234       223.9288 
 999   0.0000       9.392122       255.5726 
 1000   0.0000       9.396615       255.6949 
 1001   0.0000       9.424219       256.4460 
 1002   0.0000       9.437597       256.8101 
 1003   0.0000       9.443956       256.9831 
 1004   0.0000       9.473085       257.7757 
 1005   0.0000       9.624513       261.8963 
 1006   0.0000      10.029305       272.9113 
 1007   0.0000      10.080996       274.3179 
 1008   0.0000      10.092673       274.6356 
 1009   0.0000      10.118113       275.3279 
 1010   0.0000      10.197304       277.4828 
 1011   0.0000      10.212718       277.9022 
 1012   0.0000      10.234575       278.4969 
 1013   0.0000      10.325073       280.9595 
 1014   0.0000      10.369536       282.1694 
 1015   0.0000      10.496990       285.6376 
 1016   0.0000      16.381959       445.7758 
 1017   0.0000      17.401452       473.5176 
 1018   0.0000      18.009568       490.0653 
 1019   0.0000      18.330968       498.8110 
 1020   0.0000      18.460760       502.3428 
 1021   0.0000      18.538743       504.4648 
 1022   0.0000      20.327165       553.1303 
 1023   0.0000      21.259827       578.5093 
 1024   0.0000      21.515058       585.4545 

                 SPIN DOWN ORBITALS
  NO   OCC          E(Eh)            E(eV) 
   0   1.0000    -261.574408     -7117.8015 
   1   1.0000    -104.794076     -2851.5918 
   2   1.0000    -104.790793     -2851.5025 
   3   1.0000    -104.788602     -2851.4428 
   4   1.0000     -32.083702      -873.0419 
   5   1.0000     -27.561652      -749.9907 
   6   1.0000     -27.561525      -749.9872 
   7   1.0000     -27.561444      -749.9850 
   8   1.0000     -20.623911      -561.2052 
   9   1.0000     -11.422172      -310.8131 
  10   1.0000     -11.279230      -306.9234 
  11   1.0000     -11.273856      -306.7772 
  12   1.0000     -11.260365      -306.4101 
  13   1.0000     -11.240910      -305.8807 
  14   1.0000     -11.240056      -305.8575 
  15   1.0000     -11.234237      -305.6991 
  16   1.0000     -11.226708      -305.4943 
  17   1.0000     -10.520715      -286.2832 
  18   1.0000     -10.517387      -286.1927 
  19   1.0000     -10.515155      -286.1319 
  20   1.0000      -7.986644      -217.3276 
  21   1.0000      -7.985877      -217.3067 
  22   1.0000      -7.985841      -217.3058 
  23   1.0000      -7.983268      -217.2358 
  24   1.0000      -7.982571      -217.2168 
  25   1.0000      -7.982480      -217.2143 
  26   1.0000      -7.981151      -217.1782 
  27   1.0000      -7.980231      -217.1531 
  28   1.0000      -7.980148      -217.1509 
  29   1.0000      -4.158449      -113.1571 
  30   1.0000      -2.679987       -72.9262 
  31   1.0000      -2.679953       -72.9252 
  32   1.0000      -2.679536       -72.9139 
  33   1.0000      -1.461928       -39.7811 
  34   1.0000      -1.120428       -30.4884 
  35   1.0000      -1.100447       -29.9447 
  36   1.0000      -1.053115       -28.6567 
  37   1.0000      -1.040487       -28.3131 
  38   1.0000      -1.037085       -28.2205 
  39   1.0000      -1.020181       -27.7605 
  40   1.0000      -1.008746       -27.4494 
  41   1.0000      -0.954583       -25.9755 
  42   1.0000      -0.892293       -24.2805 
  43   1.0000      -0.829724       -22.5779 
  44   1.0000      -0.725167       -19.7328 
  45   1.0000      -0.717314       -19.5191 
  46   1.0000      -0.704699       -19.1758 
  47   1.0000      -0.683402       -18.5963 
  48   1.0000      -0.650871       -17.7111 
  49   1.0000      -0.620590       -16.8871 
  50   1.0000      -0.617234       -16.7958 
  51   1.0000      -0.604598       -16.4519 
  52   1.0000      -0.599922       -16.3247 
  53   1.0000      -0.585957       -15.9447 
  54   1.0000      -0.578477       -15.7412 
  55   1.0000      -0.560416       -15.2497 
  56   1.0000      -0.548363       -14.9217 
  57   1.0000      -0.544217       -14.8089 
  58   1.0000      -0.536957       -14.6113 
  59   1.0000      -0.527465       -14.3531 
  60   1.0000      -0.522707       -14.2236 
  61   1.0000      -0.508321       -13.8321 
  62   1.0000      -0.489222       -13.3124 
  63   1.0000      -0.486628       -13.2418 
  64   1.0000      -0.484339       -13.1795 
  65   1.0000      -0.455747       -12.4015 
  66   1.0000      -0.452430       -12.3113 
  67   1.0000      -0.449347       -12.2274 
  68   1.0000      -0.432988       -11.7822 
  69   1.0000      -0.430831       -11.7235 
  70   1.0000      -0.414769       -11.2864 
  71   1.0000      -0.356294        -9.6953 
  72   0.0000       0.012641         0.3440 
  73   0.0000       0.023851         0.6490 
  74   0.0000       0.024599         0.6694 
  75   0.0000       0.030803         0.8382 
  76   0.0000       0.039333         1.0703 
  77   0.0000       0.041234         1.1220 
  78   0.0000       0.042589         1.1589 
  79   0.0000       0.043042         1.1712 
  80   0.0000       0.044208         1.2030 
  81   0.0000       0.054216         1.4753 
  82   0.0000       0.056619         1.5407 
  83   0.0000       0.061416         1.6712 
  84   0.0000       0.062503         1.7008 
  85   0.0000       0.064225         1.7476 
  86   0.0000       0.064915         1.7664 
  87   0.0000       0.071220         1.9380 
  88   0.0000       0.077427         2.1069 
  89   0.0000       0.082484         2.2445 
  90   0.0000       0.089155         2.4260 
  91   0.0000       0.090814         2.4712 
  92   0.0000       0.093296         2.5387 
  93   0.0000       0.095390         2.5957 
  94   0.0000       0.100031         2.7220 
  95   0.0000       0.102685         2.7942 
  96   0.0000       0.103931         2.8281 
  97   0.0000       0.105133         2.8608 
  98   0.0000       0.105983         2.8840 
  99   0.0000       0.108181         2.9438 
 100   0.0000       0.110521         3.0074 
 101   0.0000       0.115482         3.1424 
 102   0.0000       0.120251         3.2722 
 103   0.0000       0.121601         3.3089 
 104   0.0000       0.124055         3.3757 
 105   0.0000       0.125598         3.4177 
 106   0.0000       0.126204         3.4342 
 107   0.0000       0.129217         3.5162 
 108   0.0000       0.131828         3.5872 
 109   0.0000       0.133621         3.6360 
 110   0.0000       0.137104         3.7308 
 111   0.0000       0.138864         3.7787 
 112   0.0000       0.144037         3.9194 
 113   0.0000       0.146504         3.9866 
 114   0.0000       0.149662         4.0725 
 115   0.0000       0.151604         4.1253 
 116   0.0000       0.157535         4.2867 
 117   0.0000       0.162077         4.4103 
 118   0.0000       0.162687         4.4269 
 119   0.0000       0.166879         4.5410 
 120   0.0000       0.170192         4.6312 
 121   0.0000       0.171328         4.6621 
 122   0.0000       0.175448         4.7742 
 123   0.0000       0.180812         4.9201 
 124   0.0000       0.183149         4.9837 
 125   0.0000       0.186619         5.0781 
 126   0.0000       0.186822         5.0837 
 127   0.0000       0.191281         5.2050 
 128   0.0000       0.196151         5.3375 
 129   0.0000       0.198198         5.3932 
 130   0.0000       0.198773         5.4089 
 131   0.0000       0.201816         5.4917 
 132   0.0000       0.205041         5.5795 
 133   0.0000       0.208822         5.6823 
 134   0.0000       0.214439         5.8352 
 135   0.0000       0.217594         5.9210 
 136   0.0000       0.223925         6.0933 
 137   0.0000       0.227231         6.1833 
 138   0.0000       0.227987         6.2038 
 139   0.0000       0.233606         6.3567 
 140   0.0000       0.235899         6.4191 
 141   0.0000       0.239048         6.5048 
 142   0.0000       0.240884         6.5548 
 143   0.0000       0.246113         6.6971 
 144   0.0000       0.249592         6.7917 
 145   0.0000       0.251796         6.8517 
 146   0.0000       0.254132         6.9153 
 147   0.0000       0.258851         7.0437 
 148   0.0000       0.260069         7.0768 
 149   0.0000       0.266462         7.2508 
 150   0.0000       0.269388         7.3304 
 151   0.0000       0.272864         7.4250 
 152   0.0000       0.278768         7.5857 
 153   0.0000       0.282172         7.6783 
 154   0.0000       0.284286         7.7358 
 155   0.0000       0.291451         7.9308 
 156   0.0000       0.293786         7.9943 
 157   0.0000       0.295710         8.0467 
 158   0.0000       0.299142         8.1401 
 159   0.0000       0.308429         8.3928 
 160   0.0000       0.309418         8.4197 
 161   0.0000       0.315409         8.5827 
 162   0.0000       0.320946         8.7334 
 163   0.0000       0.321061         8.7365 
 164   0.0000       0.330547         8.9946 
 165   0.0000       0.332694         9.0531 
 166   0.0000       0.334328         9.0975 
 167   0.0000       0.340295         9.2599 
 168   0.0000       0.341778         9.3003 
 169   0.0000       0.344135         9.3644 
 170   0.0000       0.349431         9.5085 
 171   0.0000       0.353280         9.6132 
 172   0.0000       0.358131         9.7452 
 173   0.0000       0.358941         9.7673 
 174   0.0000       0.362118         9.8537 
 175   0.0000       0.364805         9.9269 
 176   0.0000       0.368867        10.0374 
 177   0.0000       0.375499        10.2179 
 178   0.0000       0.376283        10.2392 
 179   0.0000       0.379353        10.3227 
 180   0.0000       0.383131        10.4255 
 181   0.0000       0.384375        10.4594 
 182   0.0000       0.387693        10.5497 
 183   0.0000       0.391739        10.6598 
 184   0.0000       0.393942        10.7197 
 185   0.0000       0.394202        10.7268 
 186   0.0000       0.398597        10.8464 
 187   0.0000       0.401231        10.9181 
 188   0.0000       0.404841        11.0163 
 189   0.0000       0.405605        11.0371 
 190   0.0000       0.407957        11.1011 
 191   0.0000       0.414532        11.2800 
 192   0.0000       0.415779        11.3139 
 193   0.0000       0.423603        11.5268 
 194   0.0000       0.425725        11.5846 
 195   0.0000       0.433397        11.7933 
 196   0.0000       0.434338        11.8189 
 197   0.0000       0.441616        12.0170 
 198   0.0000       0.443641        12.0721 
 199   0.0000       0.448634        12.2079 
 200   0.0000       0.451851        12.2955 
 201   0.0000       0.457045        12.4368 
 202   0.0000       0.457638        12.4530 
 203   0.0000       0.458593        12.4789 
 204   0.0000       0.462417        12.5830 
 205   0.0000       0.465214        12.6591 
 206   0.0000       0.474951        12.9241 
 207   0.0000       0.476723        12.9723 
 208   0.0000       0.478812        13.0291 
 209   0.0000       0.482415        13.1272 
 210   0.0000       0.486896        13.2491 
 211   0.0000       0.492777        13.4091 
 212   0.0000       0.493557        13.4304 
 213   0.0000       0.496416        13.5082 
 214   0.0000       0.498746        13.5716 
 215   0.0000       0.502984        13.6869 
 216   0.0000       0.507114        13.7993 
 217   0.0000       0.509403        13.8616 
 218   0.0000       0.513539        13.9741 
 219   0.0000       0.518159        14.0998 
 220   0.0000       0.519657        14.1406 
 221   0.0000       0.520465        14.1626 
 222   0.0000       0.523809        14.2536 
 223   0.0000       0.526576        14.3289 
 224   0.0000       0.528205        14.3732 
 225   0.0000       0.530582        14.4379 
 226   0.0000       0.534493        14.5443 
 227   0.0000       0.537351        14.6221 
 228   0.0000       0.540770        14.7151 
 229   0.0000       0.542645        14.7661 
 230   0.0000       0.544563        14.8183 
 231   0.0000       0.549340        14.9483 
 232   0.0000       0.553050        15.0493 
 233   0.0000       0.557364        15.1666 
 234   0.0000       0.560378        15.2487 
 235   0.0000       0.566013        15.4020 
 236   0.0000       0.568812        15.4782 
 237   0.0000       0.572801        15.5867 
 238   0.0000       0.574314        15.6279 
 239   0.0000       0.579283        15.7631 
 240   0.0000       0.583996        15.8913 
 241   0.0000       0.587313        15.9816 
 242   0.0000       0.589570        16.0430 
 243   0.0000       0.591944        16.1076 
 244   0.0000       0.596225        16.2241 
 245   0.0000       0.603448        16.4207 
 246   0.0000       0.605632        16.4801 
 247   0.0000       0.608328        16.5535 
 248   0.0000       0.612790        16.6749 
 249   0.0000       0.616398        16.7730 
 250   0.0000       0.620319        16.8797 
 251   0.0000       0.623323        16.9615 
 252   0.0000       0.630871        17.1669 
 253   0.0000       0.634196        17.2574 
 254   0.0000       0.635643        17.2967 
 255   0.0000       0.639298        17.3962 
 256   0.0000       0.644821        17.5465 
 257   0.0000       0.645587        17.5673 
 258   0.0000       0.650983        17.7142 
 259   0.0000       0.653981        17.7957 
 260   0.0000       0.660023        17.9601 
 261   0.0000       0.665272        18.1030 
 262   0.0000       0.668352        18.1868 
 263   0.0000       0.672813        18.3082 
 264   0.0000       0.673371        18.3233 
 265   0.0000       0.677266        18.4293 
 266   0.0000       0.682570        18.5737 
 267   0.0000       0.687510        18.7081 
 268   0.0000       0.693573        18.8731 
 269   0.0000       0.697195        18.9716 
 270   0.0000       0.699342        19.0301 
 271   0.0000       0.702658        19.1203 
 272   0.0000       0.712647        19.3921 
 273   0.0000       0.714474        19.4418 
 274   0.0000       0.718877        19.5616 
 275   0.0000       0.721833        19.6421 
 276   0.0000       0.725628        19.7453 
 277   0.0000       0.734535        19.9877 
 278   0.0000       0.737754        20.0753 
 279   0.0000       0.739278        20.1168 
 280   0.0000       0.747303        20.3352 
 281   0.0000       0.748182        20.3591 
 282   0.0000       0.754014        20.5178 
 283   0.0000       0.760181        20.6856 
[...]
  | sigma^2 in % of trace(Dip) retained ...   1.56e+01
  | sigma^2 in % of trace(Dpq) retained ...   1.39e-01
  | Av. % of trace(Di) retained         ...  99.998586457791
  | Av. % of trace(Dp) retained         ...  99.999998827237
  | sigma^2 in % of trace(Di) retained  ...   6.44e-07
  | sigma^2 in % of trace(Dp) retained  ...   1.34e-12
 Distributions of % trace(Dij) recovered:
  |       >= 99.9  ...   105 ( 22.5 % of all IJ-pairs)
  |   [80.0, 90.0) ...    19 (  4.1 % of all IJ-pairs)
  |   [90.0, 99.0) ...   259 ( 55.5 % of all IJ-pairs)
  |   [99.0, 99.9) ...    84 ( 18.0 % of all IJ-pairs)
 Distributions of % trace(Dip) recovered:
  |   [80.0, 90.0) ...    12 ( 10.7 % of all IP-pairs)
  |   [90.0, 99.0) ...    51 ( 45.5 % of all IP-pairs)
  |   [99.0, 99.9) ...    49 ( 43.8 % of all IP-pairs)
 Distributions of % trace(Dpq) recovered:
  |       >= 99.9  ...     5 ( 33.3 % of all PQ-pairs)
  |   [99.0, 99.9) ...    10 ( 66.7 % of all PQ-pairs)
 Distributions of % trace(Di) recovered :
  |       >= 99.9  ...    43 (100.0 % of all I-pairs )
 Distributions of % trace(Dp) recovered :
  |       >= 99.9  ...     5 (100.0 % of all P-pairs )

                       ===========================
                       1028 OF 1660 PAIRS ARE KEPT
                       ===========================

 Initial PAO correlation energy (all pairs)    ...  -2.6783520157 Eh
 Energy constituents in PAO basis (Eh):
  | Vijab(+0) ...  -2.2511877105
  | Viab (-1) ...  -0.1739630124
  | Vab  (-2) ...  -0.0573240101
  | Va   (-1) ...  -0.0000460970
  | Vija (+1) ...  -0.0714110755
  | Vij  (+2) ...  -0.0155588022
  | Via  (+0) ...  -0.1086951405
  | Vi   (+1) ...  -0.0001661677
 Initial PNO correlation energy                ...  -2.6445235022 Eh
 Energy constituents in PNO basis (Eh):
  | Vijab(+0) ...  -2.2327252571 (err=  0.0184624534)
  | Viab (-1) ...  -0.1600908277 (err=  0.0138721847)
  | Vab  (-2) ...  -0.0568671241 (err=  0.0004568860)
  | Va   (-1) ...  -0.0000266996 (err=  0.0000193973)
  | Vija (+1) ...  -0.0705380452 (err=  0.0008730303)
  | Vij  (+2) ...  -0.0155127410 (err=  0.0000460611)
  | Via  (+0) ...  -0.1085970215 (err=  0.0000981190)
  | Vi   (+1) ...  -0.0001657860 (err=  0.0000003817)
 Sum of total truncation errors ...   0.0338285135 Eh
  | Pair screening ...   0.0118735912 Eh
  | PNO truncation ...   0.0219549223 Eh

 UMP2 correlation energy (PAO) ...  -2.6731663158
  | alpha-alpha ...  -0.3828137394 (NP_aa=  891)
  | alpha-beta  ...  -1.9869895381 (NP_ab= 1635)
  | beta -beta  ...  -0.3033630383 (NP_bb=  711)
 UMP2 correlation energy (PNO) ...  -2.6389745839
  | alpha-alpha ...  -0.3708483373 (err=  0.0119654021, NP_aa=  546)
  | alpha-beta  ...  -1.9688150813 (err=  0.0181744568, NP_ab= 1003)
  | beta -beta  ...  -0.2993111653 (err=  0.0040518730, NP_bb=  424)
 Sum of total UMP2 truncation errors ...   0.0341917318 Eh
  | Pair screening ...   0.0118802385 Eh
  | PNO truncation ...   0.0223114933 Eh
 Timing for NEV-PNO construction (sec.)
  | Intermediate construction  ..           43.646
  | Amplitude construction     ..           59.868
  | Total time                 ..          103.514
 Making pair pair interaction lists ...      ok
 Total size for 2-ext PNO integrals ...     10.5 MB
Checking the number of SOMO/SOMO doubles PNOs ... 
 #Truncate: (72, 72)[176] -> [86] .. 
 #Truncate: (73, 73)[179] -> [86] .. 
 #Truncate: (74, 74)[180] -> [86] .. 
 #Truncate: (75, 75)[178] -> [86] .. 
 #Truncate: (76, 76)[176] -> [86] .. 

--------------------------------
LOCAL RI TRANSFORMATION (VABPAO)
--------------------------------

Number of PAOs:    1030
Basis functions:   1025 (343 shells)
Aux. functions:    2424 (644 shells)

Processing maps (0.0 sec)
Average map sizes:
   Aux shells -> PAOs           1030.0
   PAOs       -> AO shells       343.0

Calculating integrals (224.4 sec, 37370.165 MB)
Finished
-----------------------------
LOCAL RI TRANSFORMATION (IJV)
-----------------------------

Orbital window:      29 to 76
Basis functions:   1025 (343 shells)
Aux. functions:    2424 (644 shells)

Processing maps (0.0 sec)
Average map sizes:
   Aux shells -> MOs(i)           46.2
   Aux shells -> MOs(j)           48.0
   MOs        -> AO shells       340.1

Calculating integrals (22.8 sec, 41.139 MB)
Sorting integrals (0.4 sec, 41.111 MB)
Total time for the integral transformation: 23.3 sec


-------------------------------------
Pair Pair Term precalculation with     
RI-(ij|mn) and (im|jn) transformation  
ON THE FLY                             
-------------------------------------

   IBatch   1 (of   2)              ... done ( 1209.704 sec)
   IBatch   2 (of   2)              ... done (  733.926 sec)
Total EXT                           ...        1943.630 sec

---------------------
RI-PNO TRANSFORMATION
---------------------

Total Number of PNOs                   ... 32238
Total Number of IJ-PNOs                ... 28163
Total Number of IP-PNOs                ...  3117
Total Number of PQ-PNOs                ...   958
Total Number of IJ-pairs               ...   891
Total Number of PI-pairs               ...   112
Total Number of PQ-pairs               ...    25
Average number of PNOs per pair        ...    31
Maximal number of PNOs per pair        ...    86
>> Statistics for ij-pairs..
   #pairs with  1 -  5 PNOs   :    0
   #pairs with  6 - 10 PNOs   :    0
   #pairs with 11 - 15 PNOs   :  100
   #pairs with 16 - 20 PNOs   :  156
   #pairs with 21 - 25 PNOs   :  166
   #pairs with 26 - 30 PNOs   :  126
   #pairs with 31 - 35 PNOs   :   58
   #pairs with 36 - 40 PNOs   :   56
   #pairs with 41 - 45 PNOs   :   42
   #pairs with 46 - 50 PNOs   :   20
   #pairs with 51 - 55 PNOs   :   33
   #pairs with 56 - 60 PNOs   :   52
   #pairs with 61 - 65 PNOs   :   77
   #pairs with 66 - 70 PNOs   :    3
   #pairs with 76 - 80 PNOs   :    2
>> Statistics for ip-pairs..
   #pairs with  1 -  5 PNOs   :    0
   #pairs with  6 - 10 PNOs   :    1
   #pairs with 11 - 15 PNOs   :   11
   #pairs with 16 - 20 PNOs   :   13
   #pairs with 21 - 25 PNOs   :   19
   #pairs with 26 - 30 PNOs   :    9
   #pairs with 31 - 35 PNOs   :   45
   #pairs with 36 - 40 PNOs   :   12
   #pairs with 41 - 45 PNOs   :    2
   #pairs with 46 - 50 PNOs   :    0
>> Statistics for pq-pairs..
   #pairs with  1 -  5 PNOs   :    0
   #pairs with  6 - 10 PNOs   :    0
   #pairs with 11 - 15 PNOs   :    0
   #pairs with 16 - 20 PNOs   :    0
   #pairs with 21 - 25 PNOs   :   10
   #pairs with 26 - 30 PNOs   :   10
   #pairs with 31 - 35 PNOs   :    0
   #pairs with 36 - 40 PNOs   :    0
   #pairs with 41 - 45 PNOs   :    0
   #pairs with 46 - 50 PNOs   :    0
   #pairs with 86 - 90 PNOs   :    5

Generation of (ij|ab)[P] integrals            ... on
Generation of (ia|bc)[P],(ja|bc)[P] integrals ... on
Storage of 3 and 4 external integrals         ... on
Generation of ALL (ka|bc)[P] integrals        ... on
Keep RI integrals in memory                   ... off

Ibatch:  1 (of  1)
Starting 2-4 index PNO integral generation ... done

Timings:
Total PNO integral transformation time     ...       1917.330 sec
Size of the 3-external file                ...       277 MB
Size of the 4-external file                ...      1898 MB
Size of the IKJL file                      ...        16 MB
Size of the all 3-external file            ...      6660 MB
Size of the 1-external file                ...        20 MB

Size of the PAO/PNO coefficient matrices   ...     202.6 MB

Making pair/pair overlap matrices          ... done (  272.233 sec)
Size of the pair overlap file              ...    2217.0 MB
Total # unrestricted pairs ...       1973
  # of alpha-alpha pairs   ...        546
  # of alpha-beta pairs    ...       1003
  # of beta-beta pairs     ...        424
Constructing the guess amplitudes          ... done (    0.539 sec)

-------------------------
FINAL STARTUP INFORMATION
-------------------------

E(0)                                       ...  -3028.473401172
E(SL-UMP2 in NEV-PNO space)                ...     -2.674099167
Initial E(tot)                             ...  -3031.147500340
<T|T>                                      ...      0.532056192
Number of unrestricted pairs included      ... 1973
Total number of pairs                      ... 4095
----------------------------------------------------------
                     OPEN-SHELL COUPLED CLUSTER ITERATIONS
----------------------------------------------------------

Number of PNO amplitudes to be optimized        ...          1998712
Number of canonical amplitudes for strong pairs ...       1782013815
Untruncated number of canonical amplitudes      ...       3698645738

Iter       E(tot)           E(Corr)          Delta-E          Residual     Time
  0  -3031.154807847     -2.646282091      0.027817077      0.020800217 1427.61
                           *** Turning on DIIS ***
  1  -3031.271635892     -2.763110136     -0.116828045      0.011142077 1554.57
  2  -3031.336717612     -2.828191856     -0.065081720      0.008312688 1560.36
  3  -3031.358917441     -2.850391685     -0.022199829      0.003414314 1559.13
  4  -3031.366695351     -2.858169595     -0.007777910      0.002644604 1560.80
  5  -3031.370977859     -2.862452103     -0.004282508      0.001501304 1563.63
  6  -3031.372553462     -2.864027706     -0.001575602      0.000752384 1564.04
  7  -3031.373211532     -2.864685776     -0.000658070      0.000472747 1620.64
  8  -3031.373358408     -2.864832652     -0.000146876      0.000213377 1628.51
  9  -3031.373418220     -2.864892464     -0.000059811      0.000149967 1606.57
 10  -3031.373421574     -2.864895819     -0.000003355      0.000075777 1561.14
 11  -3031.373434191     -2.864908435     -0.000012616      0.000066985 1556.43
 12  -3031.373439297     -2.864913541     -0.000005106      0.000037284 1559.43
 13  -3031.373441489     -2.864915733     -0.000002191      0.000018010 1555.78
 14  -3031.373443094     -2.864917338     -0.000001606      0.000011615 1606.78
 15  -3031.373442284     -2.864916528      0.000000810      0.000005153 1607.14
               --- The CCSD iterations have converged ---

E(0)                                       ...  -3028.473401172
E(CORR)(strong-pairs)                      ...     -2.864916528
E(CORR)(weak-pairs)                        ...     -0.035124584
E(CORR)(corrected)                         ...     -2.900041112
E(TOT)                                     ...  -3031.373442284
Singles norm <S|S>**1/2                    ...      0.196116898 ( 0.064422347, 0.131694550)  
T1 diagnostic                              ...      0.020558637                              
<S**2>(linearized)                         ...      8.7508669 (ideal value:      8.7500000)

----------------------
LARGEST PNO AMPLITUDES
----------------------
  49b-> 72b  -1b-> -1b       0.054928
  52b-> 73b  -1b-> -1b       0.053540
  51b-> 73b  -1b-> -1b       0.053420
  46a-> 78a  46b-> 78b       0.049861
  44a-> 77a  44b-> 77b       0.047799
  49b-> 76b  -1b-> -1b       0.047351
  49b-> 75b  -1b-> -1b       0.046341
  35b-> 72b  -1b-> -1b       0.044618
  38b-> 74b  -1b-> -1b       0.044440
  42b-> 74b  -1b-> -1b       0.044353
  55a-> 77a  55b-> 77b       0.043900
  62a-> 77a  62b-> 77b       0.043881
  43a-> 77a  43b-> 77b       0.043841
  70a-> 77a  70b-> 77b       0.043821
  69a-> 77a  69b-> 77b       0.043610
  64a-> 77a  64b-> 77b       0.043205

Total # unrestricted pairs ...       1264
  # of alpha-alpha pairs   ...        345
  # of alpha-beta pairs    ...        632
  # of beta-beta pairs     ...        287

-------------------------------------------
DLPNO BASED TRIPLES CORRECTION
-------------------------------------------

Singles multiplier          ...  1.000000
Fragment selection                          .... not used
TCutTNO                     ... 1.000e-09
TCutMP2Pairs                ... 1.000e-05
TCutDOStrong                ... 2.000e-02
TCutMKNStrong               ... 1.000e-02
TCutDOWeak                  ... 4.000e-02
TCutMKNWeak                 ... 1.000e-01
NTCutTNO                    ... 1

Number of Triples that are to be computed         ...     29802

 . . . . . . . . .
10% done  
20% done  
30% done  
40% done  
50% done  
60% done  
70% done  
80% done  
90% done  
          Batch   1   done (  12732.316 sec)

Triples-Correction TCutTNO=   1.000e-09 (NWeakPairs = 0  1  2  3)  -0.115823136289   -0.001683760685    0.000000000000    0.000000000000
Triples-Correction  -0.117506896974

Triples timings:
Total time                      ... 13308.985 sec

Triples List generation         ...     0.000 sec
TNO generation                  ...   576.397 sec
Pair density generation         ...     0.098 sec
Look up tables                  ...     0.106 sec
Generating 3-index integrals    ...  7598.491 sec
Make 4-ind.int. from 3-ind.int  ...     3.142 sec
Projecting amplitudes (D + S)   ...  4896.622 sec
Sorting integrals for spin cases...    48.129 sec
Calculate W0/W1                 ...   151.144 sec
Energy contr. (sum over a,b,c)  ...    34.668 sec

Everything after 3-index        ...  5245.607 sec

Energy contribution AAA         ...    23.033 sec
Energy contribution AAB         ...   103.511 sec
Energy contribution ABB         ...    94.538 sec
Energy contribution BBB         ...    12.894 sec
prep                ...     2.913 sec
makeTTNO            ...  4846.453 sec
copyij              ...     0.119 sec
copyil              ...     3.673 sec
transposeij         ...     0.073 sec
newMatInDoubleProj  ...    48.352 sec
BlasInDoubleProj    ...  2673.073 sec
ProjSingles         ...    41.211 sec
ProjDoubles         ...  4855.410 sec
overall Doubles for projection      ... 2622789
used Doubles for projection         ... 2622789


Number of Triples   (0, 1, 2, 3 weak pairs; overall):  13948   10675       0       0  ( 24623)
Number of Atoms     (0, 1, 2, 3 weak pairs; overall):   18.4    13.4     0.0     0.0  (    29)
Number of PAOs      (0, 1, 2, 3 weak pairs; overall):  727.9   543.7     0.0     0.0  (  1025)
Number of AuxFcns   (0, 1, 2, 3 weak pairs; overall):  833.3   572.0     0.0     0.0  (  2424)
Number of TNOs (0, 1, 2, 3 weak pairs         ):   78.1    56.0     0.0     0.0
Aver. Number of NTNO, Atoms, PAOs, AuxFcns / Triples:  24623    68.5    16.2   648.1   720.0

Triples Correction (T)                     ...     -0.117506897
    alpha-alpha-alpha ... -0.003724012 (  3.2%)
    alpha-alpha-beta  ... -0.055215202 ( 47.0%)
    alpha-beta -beta  ... -0.054570660 ( 46.4%)
    beta -beta -beta  ... -0.003997024 (  3.4%)
Final correlation energy                   ...     -3.017548009
E(CCSD)                                    ...  -3031.373442284
E(CCSD(T))                                 ...  -3031.490949181

----------------------------
STATISTICS FOR PAIR-ENERGIES
----------------------------
Minimum, maximum and average ratios of UMP and CCSD pair-energies ... 0.46, 1.45, 1.03


------------------------------------------------------------------------------- 
                                     TIMINGS                                   
------------------------------------------------------------------------------- 


Total execution time                   ...    45889.290 sec

Localization of occupied MO's          ...       10.254 sec (  0.0%)
Fock Matrix Formation                  ...     1314.130 sec (  2.9%)
Differential overlap integrals         ...        1.362 sec (  0.0%)
Organizing maps                        ...        1.592 sec (  0.0%)
RI 3-index integral generations        ...      310.864 sec (  0.7%)
RI-PNO integral transformation         ...     4273.239 sec (  9.3%)
Initial Guess                          ...     1812.834 sec (  4.0%)
DIIS Solver                            ...       17.008 sec (  0.0%)
State Vector Update                    ...        0.769 sec (  0.0%)
Sigma-vector construction              ...    25092.538 sec ( 54.7%)
  <0|H|D>                              ...        0.031 sec (  0.0% of sigma)
  <D|H|D>(0-ext)                       ...     4743.412 sec ( 18.9% of sigma)
  <D|H|D>(2-ext Fock)                  ...        1.448 sec (  0.0% of sigma)
  <D|H|D>(2-ext)                       ...     3333.674 sec ( 13.3% of sigma)
  <D|H|D>(4-ext)                       ...      174.831 sec (  0.7% of sigma)
  <D|H|D>(4-ext-corr)                  ...     1085.430 sec (  4.3% of sigma)
  CCSD doubles correction              ...      458.838 sec (  1.8% of sigma)
  <S|H|S>                              ...      792.021 sec (  3.2% of sigma)
  <S|H|D>(1-ext)                       ...      283.555 sec (  1.1% of sigma)
  <D|H|S>(1-ext)                       ...        1.068 sec (  0.0% of sigma)
  <S|H|D>(3-ext)                       ...       22.450 sec (  0.1% of sigma)
  CCSD singles correction              ...        0.005 sec (  0.0% of sigma)
  Fock-dressing                        ...     6804.416 sec ( 27.1% of sigma)
  Singles amplitudes                   ...      111.144 sec (  0.4% of sigma)
  (ik|jl)-dressing                     ...     5851.659 sec ( 23.3% of sigma)
  (ij|ab),(ia|jb)-dressing             ...     1189.258 sec (  4.7% of sigma)
  Pair energies                        ...        0.135 sec (  0.0% of sigma)
Total Time for computing (T)           ...    13396.115 sec ( 29.2% of ALL)


-------------------------   --------------------
FINAL SINGLE POINT ENERGY     -3031.490949181401
-------------------------   --------------------


                            ***************************************
                            *     ORCA property calculations      *
                            ***************************************

                                    ---------------------
                                    Active property flags
                                    ---------------------
   (+) Dipole Moment


------------------------------------------------------------------------------
                       ORCA ELECTRIC PROPERTIES CALCULATION
------------------------------------------------------------------------------

Dipole Moment Calculation                       ... on
Quadrupole Moment Calculation                   ... off
Polarizability Calculation                      ... off
GBWName                                         ... simple-grid-285-300-b3lyp_d3bj-631gd-gas-singlepoint-DLPNO_CCSD_T1-NormalPNO-augtz-gas.gbw
Electron density file                           ... simple-grid-285-300-b3lyp_d3bj-631gd-gas-singlepoint-DLPNO_CCSD_T1-NormalPNO-augtz-gas.scfp.tmp
The origin for moment calculation is the CENTER OF MASS  = (-0.316914, -0.045898  0.015500)

-------------
DIPOLE MOMENT
-------------
                                X             Y             Z
Electronic contribution:    -44.08078      -5.22933       1.67551
Nuclear contribution   :     47.22024       6.83883      -2.30961
                        -----------------------------------------
Total Dipole Moment    :      3.13946       1.60951      -0.63410
                        -----------------------------------------
Magnitude (a.u.)       :      3.58452
Magnitude (Debye)      :      9.11113



--------------------
Rotational spectrum 
--------------------
 
Rotational constants in cm-1:     0.018736     0.010521     0.009902 
Rotational constants in MHz :   561.693554   315.414152   296.843851 

 Dipole components along the rotational axes: 
x,y,z [a.u.] :     3.133260    -1.604031    -0.677170 
x,y,z [Debye]:     7.964115    -4.077124    -1.721229 

 

Timings for individual modules:

Sum of individual times         ...    63462.074 sec (=1057.701 min)
GTO integral calculation        ...       12.404 sec (=   0.207 min)   0.0 %
SCF iterations                  ...    17542.319 sec (= 292.372 min)  27.6 %
MDCI module                     ...    45907.351 sec (= 765.123 min)  72.3 %
                             ****ORCA TERMINATED NORMALLY****
TOTAL RUN TIME: 0 days 17 hours 37 minutes 44 seconds 719 msec
