
                                 *****************
                                 * O   R   C   A *
                                 *****************

           --- An Ab Initio, DFT and Semiempirical electronic structure package ---

                  #######################################################
                  #                        -***-                        #
                  #          Department of theory and spectroscopy      #
                  #               Directorship: Frank Neese             #
                  #        Max Planck Institute fuer Kohlenforschung    #
                  #                Kaiser Wilhelm Platz 1               #
                  #                 D-45470 Muelheim/Ruhr               #
                  #                      Germany                        #
                  #                                                     #
                  #                  All rights reserved                #
                  #                        -***-                        #
                  #######################################################


                         Program Version 4.1.2  - RELEASE  -


 With contributions from (in alphabetic order):
   Daniel Aravena         : Magnetic Properties
   Michael Atanasov       : Ab Initio Ligand Field Theory
   Alexander A. Auer      : GIAO ZORA
   Ute Becker             : Parallelization
   Giovanni Bistoni       : ED, Open-shell LED
   Martin Brehm           : Molecular dynamics
   Dmytro Bykov           : SCF Hessian
   Vijay G. Chilkuri      : MRCI spin determinant printing
   Dipayan Datta          : RHF DLPNO-CCSD density
   Achintya Kumar Dutta   : EOM-CC, STEOM-CC
   Dmitry Ganyushin       : Spin-Orbit,Spin-Spin,Magnetic field MRCI
   Miquel Garcia          : C-PCM Hessian
   Yang Guo               : DLPNO-NEVPT2, CIM, IAO-localization
   Andreas Hansen         : Spin unrestricted coupled pair/coupled cluster methods
   Benjamin Helmich-Paris : CASSCF linear response (MC-RPA)
   Lee Huntington         : MR-EOM, pCC
   Robert Izsak           : Overlap fitted RIJCOSX, COSX-SCS-MP3, EOM
   Christian Kollmar      : KDIIS, OOCD, Brueckner-CCSD(T), CCSD density
   Simone Kossmann        : Meta GGA functionals, TD-DFT gradient, OOMP2, MP2 Hessian
   Martin Krupicka        : AUTO-CI
   Lucas Lang             : DCDCAS
   Dagmar Lenk            : GEPOL surface, SMD
   Dimitrios Liakos       : Extrapolation schemes; parallel MDCI
   Dimitrios Manganas     : ROCIS; embedding schemes
   Dimitrios Pantazis     : SARC Basis sets
   Taras Petrenko         : DFT Hessian,TD-DFT gradient, ASA, ECA, R-Raman, ABS, FL, XAS/XES, NRVS
   Peter Pinski           : DLPNO-MP2, DLPNO-MP2 Gradient
   Christoph Reimann      : Effective Core Potentials
   Marius Retegan         : Local ZFS, SOC
   Christoph Riplinger    : Optimizer, TS searches, QM/MM, DLPNO-CCSD(T), (RO)-DLPNO pert. Triples
   Tobias Risthaus        : Range-separated hybrids, TD-DFT gradient, RPA, STAB
   Michael Roemelt        : Restricted open shell CIS
   Masaaki Saitow         : Open-shell DLPNO
   Barbara Sandhoefer     : DKH picture change effects
   Avijit Sen             : IP-ROCIS
   Kantharuban Sivalingam : CASSCF convergence, NEVPT2, FIC-MRCI
   Bernardo de Souza      : ESD, SOC TD-DFT
   Georgi Stoychev        : AutoAux, RI-MP2 NMR
   Willem Van den Heuvel  : Paramagnetic NMR
   Boris Wezisla          : Elementary symmetry handling
   Frank Wennmohs         : Technical directorship


 We gratefully acknowledge several colleagues who have allowed us to
 interface, adapt or use parts of their codes:
   Stefan Grimme, W. Hujo, H. Kruse,             : VdW corrections, initial TS optimization,
                  C. Bannwarth                     DFT functionals, gCP, sTDA/sTD-DF
   Ed Valeev                                     : LibInt (2-el integral package), F12 methods
   Garnet Chan, S. Sharma, J. Yang, R. Olivares  : DMRG
   Ulf Ekstrom                                   : XCFun DFT Library
   Mihaly Kallay                                 : mrcc  (arbitrary order and MRCC methods)
   Andreas Klamt, Michael Diedenhofen            : otool_cosmo (COSMO solvation model)
   Jiri Pittner, Ondrej Demel                    : Mk-CCSD
   Frank Weinhold                                : gennbo (NPA and NBO analysis)
   Christopher J. Cramer and Donald G. Truhlar   : smd solvation model
   Lars Goerigk                                  : TD-DFT with DH, B97 family of functionals
   V. Asgeirsson, H. Jonsson                     : NEB implementation
   FAccTs GmbH                                   : IRC, NEB, NEB-TS, Multilevel


 Your calculation uses the libint2 library for the computation of 2-el integrals
 For citations please refer to: http://libint.valeyev.net

 This ORCA versions uses:
   CBLAS   interface :  Fast vector & matrix operations
   LAPACKE interface :  Fast linear algebra routines
   SCALAPACK package :  Parallel linear algebra routines


----- Orbital basis set information -----
Your calculation utilizes the basis: aug-cc-pVTZ 
    H, B-Ne : Obtained from the ccRepo (grant-hill.group.shef.ac.uk/ccrepo) Feb. 2017
              R. A. Kendall, T. H. Dunning, Jr., R. J. Harrison, J. Chem. Phys. 96, 6796 (1992)
         He : Obtained from the ccRepo (grant-hill.group.shef.ac.uk/ccrepo) Feb. 2017
              D. E. Woon, T. H. Dunning, Jr., J. Chem. Phys. 100, 2975 (1994)
  Li-Be, Na : Obtained from the ccRepo (grant-hill.group.shef.ac.uk/ccrepo) Feb. 2017
              B. P. Prascher, D. E. Woon, K. A. Peterson, T. H. Dunning, Jr., A. K. Wilson, Theor. Chem. Acc. 128, 69 (2011)
         Mg : Obtained from the Peterson Research Group Website (tyr0.chem.wsu.edu/~kipeters) Feb. 2017
              B. P. Prascher, D. E. Woon, K. A. Peterson, T. H. Dunning, Jr., A. K. Wilson, Theor. Chem. Acc. 128, 69 (2011)
      Al-Ar : Obtained from the ccRepo (grant-hill.group.shef.ac.uk/ccrepo) Feb. 2017
              D. E. Woon, T. H. Dunning, Jr., J. Chem. Phys. 98, 1358 (1993)
      Sc-Zn : Obtained from the ccRepo (grant-hill.group.shef.ac.uk/ccrepo) Feb. 2017
              N. B. Balabanov, K. A. Peterson, J. Chem. Phys. 123, 064107 (2005)
              N. B. Balabanov, K. A. Peterson, J. Chem. Phys. 125, 074110 (2006)
      Ga-Kr : Obtained from the ccRepo (grant-hill.group.shef.ac.uk/ccrepo) Feb. 2017
              A. K. Wilson, D. E. Woon, K. A. Peterson, T. H. Dunning, Jr., J. Chem. Phys. 110, 7667 (1999)
     Ag, Au : Obtained from the Peterson Research Group Website (tyr0.chem.wsu.edu/~kipeters) Feb. 2017
              K. A. Peterson, C. Puzzarini, Theor. Chem. Acc. 114, 283 (2005)

----- AuxJ basis set information -----
Your calculation utilizes the AutoAux generation procedure.
  G. L. Stoychev, A. A. Auer, F. Neese, J. Chem. Theory Comput. 13, 554 (2017)

----- AuxC basis set information -----
Your calculation utilizes the auxiliary basis: aug-cc-pVTZ/C 
  H-He, B-F, Al-Ar, Ga-Kr : Obtained from the EMSL Basis Set Exchange (bse.pnl.gov) Feb. 2017
                            F. Weigend, A. Kohn, C. Hattig, J. Chem. Phys. 116, 3175 (2002)
                   Be, Mg : Obtained from the TURBOMOLE 7.0 basis set library
                            C. Haettig, Phys. Chem. Chem. Phys. 7, 59 (2005)
                       Ne : Obtained from the EMSL Basis Set Exchange (bse.pnl.gov) Feb. 2017
                            C. Haettig, Phys. Chem. Chem. Phys. 7, 59 (2005)
                            F. Weigend, A. Kohn, C. Hattig, J. Chem. Phys. 116, 3175 (2002)
                    Sc-Zn : Obtained from the EMSL Basis Set Exchange (bse.pnl.gov) Feb. 2017
                            J. G. Hill, J. A. Platts, J. Chem. Phys. 128, 044104 (2008)

----- AuxJK basis set information -----
Your calculation utilizes the AutoAux generation procedure.
  G. L. Stoychev, A. A. Auer, F. Neese, J. Chem. Theory Comput. 13, 554 (2017)

================================================================================
                                        WARNINGS
                       Please study these warnings very carefully!
================================================================================


WARNING: your system is open-shell and RHF/RKS was chosen
  ===> : WILL SWITCH to UHF/UKS


WARNING: MDCI localization with Augmented Hessian Foster-Boys
  ===> : Switching off randomization!

WARNING: Post HF methods need fully converged wavefunctions
  ===> : Setting SCFConvForced true
         You can overwrite this default with %scf ConvForced false 


INFO   : the flag for use of LIBINT has been found!

================================================================================
                                       INPUT FILE
================================================================================
NAME = simple-grid-195-280-b3lyp_d3bj-631gd-gas-singlepoint-DLPNO_CCSD_T1-NormalPNO-augtz-gas.inp
|  1> ! aug-cc-pVTZ aug-cc-pVTZ/C DLPNO-CCSD(T1) TightSCF NormalPNO UNO MiniPrint AutoAux
|  2> %pal nproc 10 end
|  3> %maxcore 20000
|  4> %mdci
|  5>      density none
|  6> end
|  7> 
|  8> * xyz 0 6
|  9>  O     -0.32623400     -0.14298300     -0.45998000
| 10>  C     -1.19034100     -1.10566200     -0.27174700
| 11>  C     -2.62429300     -0.32809600      0.79674600
| 12>  C     -2.96238300      0.71301300     -0.06251300
| 13>  C     -4.01634700      0.55943300     -1.10643600
| 14> Fe      1.50437500      0.17519300     -0.08790700
| 15> Cl      1.81957000      2.17368600     -0.94029500
| 16>  C     -2.21508800      1.98636500     -0.03534900
| 17> Cl      2.54423500     -1.48890800     -1.07841400
| 18> Cl      1.77416200      0.14582900      2.10383500
| 19>  H     -3.31288400     -1.17305500      0.78172300
| 20>  H     -2.66001300      2.75755600     -0.66721400
| 21>  H     -2.06007700      2.36686100      0.97837700
| 22>  H     -1.20434800      1.74787800     -0.42223200
| 23>  H     -4.84122800      1.24215100     -0.85524300
| 24>  H     -3.65072800      0.87675400     -2.09098800
| 25>  H     -4.41723900     -0.45363600     -1.16872200
| 26>  C     -2.00203000     -0.01676900      2.14891200
| 27>  H     -2.62945300      0.69840300      2.69280100
| 28>  H     -1.92705400     -0.91788100      2.75927200
| 29>  H     -1.00108400      0.41079400      2.05627000
| 30>  C     -0.75320300     -2.22382400      0.67005000
| 31>  H     -1.57592600     -2.89335800      0.93296000
| 32>  H      0.00143700     -2.79788200      0.11760400
| 33>  H     -0.27520300     -1.83844100      1.56977100
| 34>  C     -1.81648100     -1.62627100     -1.55704400
| 35>  H     -1.05338300     -2.24247800     -2.04656700
| 36>  H     -2.69560600     -2.25053900     -1.37512000
| 37>  H     -2.06552500     -0.81375900     -2.24014100
| 38> *
| 39> 
| 40> 
| 41>                          ****END OF INPUT****
================================================================================

                       ****************************
                       * Single Point Calculation *
                       ****************************

---------------------------------
CARTESIAN COORDINATES (ANGSTROEM)
---------------------------------
  O     -0.326234   -0.142983   -0.459980
  C     -1.190341   -1.105662   -0.271747
  C     -2.624293   -0.328096    0.796746
  C     -2.962383    0.713013   -0.062513
  C     -4.016347    0.559433   -1.106436
  Fe     1.504375    0.175193   -0.087907
  Cl     1.819570    2.173686   -0.940295
  C     -2.215088    1.986365   -0.035349
  Cl     2.544235   -1.488908   -1.078414
  Cl     1.774162    0.145829    2.103835
  H     -3.312884   -1.173055    0.781723
  H     -2.660013    2.757556   -0.667214
  H     -2.060077    2.366861    0.978377
  H     -1.204348    1.747878   -0.422232
  H     -4.841228    1.242151   -0.855243
  H     -3.650728    0.876754   -2.090988
  H     -4.417239   -0.453636   -1.168722
  C     -2.002030   -0.016769    2.148912
  H     -2.629453    0.698403    2.692801
  H     -1.927054   -0.917881    2.759272
  H     -1.001084    0.410794    2.056270
  C     -0.753203   -2.223824    0.670050
  H     -1.575926   -2.893358    0.932960
  H      0.001437   -2.797882    0.117604
  H     -0.275203   -1.838441    1.569771
  C     -1.816481   -1.626271   -1.557044
  H     -1.053383   -2.242478   -2.046567
  H     -2.695606   -2.250539   -1.375120
  H     -2.065525   -0.813759   -2.240141

----------------------------
CARTESIAN COORDINATES (A.U.)
----------------------------
  NO LB      ZA    FRAG     MASS         X           Y           Z
   0 O     8.0000    0    15.999   -0.616493   -0.270199   -0.869236
   1 C     6.0000    0    12.011   -2.249418   -2.089398   -0.513527
   2 C     6.0000    0    12.011   -4.959195   -0.620012    1.505632
   3 C     6.0000    0    12.011   -5.598093    1.347399   -0.118132
   4 C     6.0000    0    12.011   -7.589796    1.057175   -2.090861
   5 Fe   26.0000    0    55.850    2.842857    0.331067   -0.166120
   6 Cl   17.0000    0    35.453    3.438489    4.107671   -1.776900
   7 C     6.0000    0    12.011   -4.185910    3.753686   -0.066800
   8 Cl   17.0000    0    35.453    4.807907   -2.813628   -2.037907
   9 Cl   17.0000    0    35.453    3.352680    0.275577    3.975672
  10 H     1.0000    0     1.008   -6.260443   -2.216753    1.477242
  11 H     1.0000    0     1.008   -5.026696    5.211026   -1.260852
  12 H     1.0000    0     1.008   -3.892981    4.472719    1.848865
  13 H     1.0000    0     1.008   -2.275888    3.303011   -0.797903
  14 H     1.0000    0     1.008   -9.148595    2.347325   -1.616175
  15 H     1.0000    0     1.008   -6.898876    1.656825   -3.951395
  16 H     1.0000    0     1.008   -8.347372   -0.857248   -2.208565
  17 C     6.0000    0    12.011   -3.783288   -0.031689    4.060855
  18 H     1.0000    0     1.008   -4.968946    1.319790    5.088656
  19 H     1.0000    0     1.008   -3.641604   -1.734544    5.214268
  20 H     1.0000    0     1.008   -1.891775    0.776288    3.885787
  21 C     6.0000    0    12.011   -1.423347   -4.202418    1.266211
  22 H     1.0000    0     1.008   -2.978069   -5.467654    1.763039
  23 H     1.0000    0     1.008    0.002716   -5.287231    0.222239
  24 H     1.0000    0     1.008   -0.520058   -3.474150    2.966437
  25 C     6.0000    0    12.011   -3.432652   -3.073207   -2.942387
  26 H     1.0000    0     1.008   -1.990605   -4.237669   -3.867451
  27 H     1.0000    0     1.008   -5.093957   -4.252902   -2.598600
  28 H     1.0000    0     1.008   -3.903277   -1.537782   -4.233253



           ************************************************************
           *        Program running with 10 parallel MPI-processes    *
           *              working on a common directory               *
           ************************************************************


           ************************************************************
           *        Program running with 10 parallel MPI-processes    *
           *              working on a common directory               *
           ************************************************************

Diagonalization of the overlap matrix:
Smallest eigenvalue                        ... 6.369e-07
Time for diagonalization                   ...    0.380 sec
Threshold for overlap eigenvalues          ... 1.000e-08
Number of eigenvalues below threshold      ... 0
Time for construction of square roots      ...    0.277 sec
Total time needed                          ...    0.664 sec

-------------------
DFT GRID GENERATION
-------------------

General Integration Accuracy     IntAcc      ...  4.340
Radial Grid Type                 RadialGrid  ... Gauss-Chebyshev
Angular Grid (max. acc.)         AngularGrid ... Lebedev-110
Angular grid pruning method      GridPruning ... 3 (G Style)
Weight generation scheme         WeightScheme... Becke
Basis function cutoff            BFCut       ...    1.0000e-11
Integration weight cutoff        WCut        ...    1.0000e-14
Grids for H and He will be reduced by one unit

# of grid points (after initial pruning)     ...  36112 (   0.0 sec)
# of grid points (after weights+screening)   ...  32330 (   0.1 sec)
nearest neighbour list constructed           ...    0.0 sec
Grid point re-assignment to atoms done       ...    0.0 sec
Grid point division into batches done        ...    0.0 sec
Reduced shell lists constructed in    0.3 sec

Total number of grid points                  ...    32330
Total number of batches                      ...      521
Average number of points per batch           ...       62
Average number of grid points per atom       ...     1115
Average number of shells per batch           ...   292.65 (85.32%)
Average number of basis functions per batch  ...   869.87 (84.87%)
Average number of large shells per batch     ...   240.80 (82.28%)
Average number of large basis fcns per batch ...   716.06 (82.32%)
Maximum spatial batch extension              ...   3.46,  3.59,  3.54 au
Average spatial batch extension              ...   0.18,  0.17,  0.17 au

Time for grid setup =    0.403 sec

Loading Hartree-Fock densities                     ... done
Calculating cut-offs                               ... done
Setting up the integral package                    ... done
Initializing the effective Hamiltonian             ... done
Starting the Coulomb interaction                   ... done (   1.1 sec)
Reading the grid                                   ... done
Mapping shells                                     ... done
Starting the XC term evaluation                    ... done (   0.9 sec)
Transforming the Hamiltonian                       ... done (   0.2 sec)
Diagonalizing the Hamiltonian                      ... done (   0.4 sec)
Back transforming the eigenvectors                 ... done (   0.1 sec)
Now organizing SCF variables                       ... done
--------------
SCF ITERATIONS
--------------
ITER       Energy         Delta-E        Max-DP      RMS-DP      [F,P]     Damp
               ***  Starting incremental Fock matrix formation  ***
  0  -3027.5652786912   0.000000000000 0.32862680  0.00111705  0.2751930 0.7000
  1  -3027.8146768296  -0.249398138445 0.24579842  0.00087612  0.1623669 0.7000
                               ***Turning on DIIS***
  2  -3027.9823672460  -0.167690416388 0.17249571  0.00064442  0.1095795 0.7000
  3  -3029.6125086719  -1.630141425903 0.37348672  0.00160398  0.0821825 0.0000
  4  -3028.2886620288   1.323846643122 0.04741005  0.00021692  0.0204086 0.0000
  5  -3028.4035856490  -0.114923620220 0.03923253  0.00016942  0.0117299 0.0000
  6  -3028.4438344555  -0.040248806556 0.02077932  0.00007071  0.0054297 0.0000
  7  -3028.4598745032  -0.016040047625 0.00862233  0.00003318  0.0034565 0.0000
  8  -3028.4505532582   0.009321245006 0.00570878  0.00001896  0.0015292 0.0000
  9  -3028.4452264176   0.005326840520 0.00321077  0.00001154  0.0007255 0.0000
 10  -3028.4346727793   0.010553638358 0.00084152  0.00000326  0.0003514 0.0000
 11  -3028.4392671466  -0.004594367289 0.00046550  0.00000193  0.0000933 0.0000
 12  -3028.4364112970   0.002855849576 0.00023299  0.00000138  0.0000257 0.0000
 13  -3028.4367430047  -0.000331707728 0.00054382  0.00000136  0.0000134 0.0000
 14  -3028.4368776008  -0.000134596023 0.00046540  0.00000170  0.0000063 0.0000
 15  -3028.4367724845   0.000105116282 0.00124189  0.00000239  0.0000039 0.0000
 16  -3028.4368290221  -0.000056537670 0.00024038  0.00000130  0.0000036 0.0000
 17  -3028.4368048727   0.000024149438 0.00142236  0.00000263  0.0000034 0.0000
 18  -3028.4367865971   0.000018275568 0.00048654  0.00000290  0.0000031 0.0000
 19  -3028.4367716015   0.000014995654 0.00059483  0.00000295  0.0000026 0.0000
               *** Restarting incremental Fock matrix formation ***
                                   *** Resetting DIIS ***
 20  -3028.4368238145  -0.000052213031 0.00109014  0.00000771  0.0000018 0.0000
 21  -3028.4368323191  -0.000008504582 0.00018648  0.00000092  0.0000018 0.0000
 22  -3028.4368253275   0.000006991606 0.00301434  0.00000556  0.0000017 0.0000
 23  -3028.4368272323  -0.000001904837 0.00127591  0.00000453  0.0000016 0.0000
 24  -3028.4368252310   0.000002001291 0.00255761  0.00000499  0.0000014 0.0000
                            ***DIIS convergence achieved***

               *****************************************************
               *                     SUCCESS                       *
               *           SCF CONVERGED AFTER  25 CYCLES          *
               *****************************************************

Total Energy       :        -3028.43681303 Eh          -82407.95522 eV
  Last Energy change         ...    1.2206e-05  Tolerance :   1.0000e-08
  Last MAX-Density change    ...    8.6253e-04  Tolerance :   1.0000e-07
             **** THE GBW FILE WAS UPDATED (simple-grid-195-280-b3lyp_d3bj-631gd-gas-singlepoint-DLPNO_CCSD_T1-NormalPNO-augtz-gas.gbw) ****
             **** DENSITY FILE WAS UPDATED (simple-grid-195-280-b3lyp_d3bj-631gd-gas-singlepoint-DLPNO_CCSD_T1-NormalPNO-augtz-gas.scfp.tmp) ****
             **** ENERGY FILE WAS UPDATED (simple-grid-195-280-b3lyp_d3bj-631gd-gas-singlepoint-DLPNO_CCSD_T1-NormalPNO-augtz-gas.en.tmp) ****
----------------------
UHF SPIN CONTAMINATION
----------------------

Expectation value of <S**2>     :     8.764809
Ideal value S*(S+1) for S=2.5   :     8.750000
Deviation                       :     0.014809

----------------
ORBITAL ENERGIES
----------------
                 SPIN UP ORBITALS
  NO   OCC          E(Eh)            E(eV) 
   0   1.0000    -261.551250     -7117.1713 
   1   1.0000    -104.775688     -2851.0914 
   2   1.0000    -104.773161     -2851.0227 
   3   1.0000    -104.772940     -2851.0166 
   4   1.0000     -32.219134      -876.7272 
   5   1.0000     -27.695234      -753.6256 
   6   1.0000     -27.694693      -753.6109 
   7   1.0000     -27.694528      -753.6064 
   8   1.0000     -20.562442      -559.5325 
   9   1.0000     -11.385672      -309.8199 
  10   1.0000     -11.354763      -308.9788 
  11   1.0000     -11.286549      -307.1226 
  12   1.0000     -11.278962      -306.9162 
  13   1.0000     -11.262664      -306.4727 
  14   1.0000     -11.256837      -306.3141 
  15   1.0000     -11.250018      -306.1286 
  16   1.0000     -11.249181      -306.1058 
  17   1.0000     -10.502322      -285.7827 
  18   1.0000     -10.499751      -285.7127 
  19   1.0000     -10.499565      -285.7077 
  20   1.0000      -7.969185      -216.8525 
  21   1.0000      -7.968373      -216.8305 
  22   1.0000      -7.968336      -216.8294 
  23   1.0000      -7.966569      -216.7814 
  24   1.0000      -7.966421      -216.7773 
  25   1.0000      -7.965868      -216.7623 
  26   1.0000      -7.965775      -216.7598 
  27   1.0000      -7.965664      -216.7567 
  28   1.0000      -7.965584      -216.7545 
  29   1.0000      -4.574467      -124.4776 
  30   1.0000      -3.187242       -86.7293 
  31   1.0000      -3.186361       -86.7053 
  32   1.0000      -3.185958       -86.6943 
  33   1.0000      -1.403450       -38.1898 
  34   1.0000      -1.179149       -32.0863 
  35   1.0000      -1.081268       -29.4228 
  36   1.0000      -1.047336       -28.4995 
  37   1.0000      -1.044399       -28.4195 
  38   1.0000      -1.041481       -28.3401 
  39   1.0000      -1.039825       -28.2951 
  40   1.0000      -1.002940       -27.2914 
  41   1.0000      -0.982479       -26.7346 
  42   1.0000      -0.926663       -25.2158 
  43   1.0000      -0.917489       -24.9661 
  44   1.0000      -0.903848       -24.5950 
  45   1.0000      -0.903817       -24.5941 
  46   1.0000      -0.894491       -24.3403 
  47   1.0000      -0.894111       -24.3300 
  48   1.0000      -0.790257       -21.5040 
  49   1.0000      -0.766958       -20.8700 
  50   1.0000      -0.696647       -18.9567 
  51   1.0000      -0.690535       -18.7904 
  52   1.0000      -0.670516       -18.2457 
  53   1.0000      -0.665114       -18.0987 
  54   1.0000      -0.654743       -17.8165 
  55   1.0000      -0.627989       -17.0884 
  56   1.0000      -0.602868       -16.4049 
  57   1.0000      -0.595689       -16.2095 
  58   1.0000      -0.590723       -16.0744 
  59   1.0000      -0.576854       -15.6970 
  60   1.0000      -0.574386       -15.6298 
  61   1.0000      -0.565725       -15.3942 
  62   1.0000      -0.558069       -15.1858 
  63   1.0000      -0.543223       -14.7819 
  64   1.0000      -0.533295       -14.5117 
  65   1.0000      -0.524685       -14.2774 
  66   1.0000      -0.511797       -13.9267 
  67   1.0000      -0.475359       -12.9352 
  68   1.0000      -0.461915       -12.5693 
  69   1.0000      -0.451507       -12.2861 
  70   1.0000      -0.428643       -11.6640 
  71   1.0000      -0.425446       -11.5770 
  72   1.0000      -0.422329       -11.4922 
  73   1.0000      -0.414189       -11.2707 
  74   1.0000      -0.412306       -11.2194 
  75   1.0000      -0.411893       -11.2082 
  76   1.0000      -0.392495       -10.6803 
  77   0.0000       0.006432         0.1750 
  78   0.0000       0.017626         0.4796 
  79   0.0000       0.019452         0.5293 
  80   0.0000       0.021233         0.5778 
  81   0.0000       0.029708         0.8084 
  82   0.0000       0.038994         1.0611 
  83   0.0000       0.039404         1.0722 
  84   0.0000       0.041588         1.1317 
  85   0.0000       0.044755         1.2179 
  86   0.0000       0.047100         1.2817 
  87   0.0000       0.057680         1.5696 
  88   0.0000       0.057798         1.5728 
  89   0.0000       0.060989         1.6596 
  90   0.0000       0.062478         1.7001 
  91   0.0000       0.064342         1.7508 
  92   0.0000       0.073124         1.9898 
  93   0.0000       0.074704         2.0328 
  94   0.0000       0.082469         2.2441 
  95   0.0000       0.088230         2.4009 
  96   0.0000       0.090849         2.4721 
  97   0.0000       0.092378         2.5137 
  98   0.0000       0.095125         2.5885 
  99   0.0000       0.097761         2.6602 
 100   0.0000       0.102502         2.7892 
 101   0.0000       0.105772         2.8782 
 102   0.0000       0.115492         3.1427 
 103   0.0000       0.116929         3.1818 
 104   0.0000       0.121569         3.3081 
 105   0.0000       0.123555         3.3621 
 106   0.0000       0.125774         3.4225 
 107   0.0000       0.131072         3.5666 
 108   0.0000       0.132342         3.6012 
 109   0.0000       0.135966         3.6998 
 110   0.0000       0.136616         3.7175 
 111   0.0000       0.140950         3.8355 
 112   0.0000       0.145328         3.9546 
 113   0.0000       0.150713         4.1011 
 114   0.0000       0.151851         4.1321 
 115   0.0000       0.155951         4.2437 
 116   0.0000       0.157815         4.2944 
 117   0.0000       0.159837         4.3494 
 118   0.0000       0.161366         4.3910 
 119   0.0000       0.163466         4.4481 
 120   0.0000       0.166807         4.5391 
 121   0.0000       0.171408         4.6643 
 122   0.0000       0.174133         4.7384 
 123   0.0000       0.177458         4.8289 
 124   0.0000       0.179287         4.8786 
 125   0.0000       0.180658         4.9160 
 126   0.0000       0.187262         5.0957 
 127   0.0000       0.189119         5.1462 
 128   0.0000       0.195807         5.3282 
 129   0.0000       0.201763         5.4903 
 130   0.0000       0.203029         5.5247 
 131   0.0000       0.206215         5.6114 
 132   0.0000       0.210844         5.7374 
 133   0.0000       0.213468         5.8087 
 134   0.0000       0.216735         5.8976 
 135   0.0000       0.218951         5.9579 
 136   0.0000       0.219791         5.9808 
 137   0.0000       0.224272         6.1028 
 138   0.0000       0.226390         6.1604 
 139   0.0000       0.227371         6.1871 
 140   0.0000       0.230368         6.2686 
 141   0.0000       0.235636         6.4120 
 142   0.0000       0.239412         6.5147 
 143   0.0000       0.243537         6.6270 
 144   0.0000       0.246777         6.7151 
 145   0.0000       0.252479         6.8703 
 146   0.0000       0.252930         6.8826 
 147   0.0000       0.253483         6.8976 
 148   0.0000       0.261146         7.1061 
 149   0.0000       0.264127         7.1873 
 150   0.0000       0.269889         7.3441 
 151   0.0000       0.275788         7.5046 
 152   0.0000       0.277722         7.5572 
 153   0.0000       0.283015         7.7012 
 154   0.0000       0.286238         7.7889 
 155   0.0000       0.291330         7.9275 
 156   0.0000       0.294956         8.0262 
 157   0.0000       0.296658         8.0725 
 158   0.0000       0.299070         8.1381 
 159   0.0000       0.302061         8.2195 
 160   0.0000       0.307522         8.3681 
 161   0.0000       0.312684         8.5086 
 162   0.0000       0.313451         8.5294 
 163   0.0000       0.320856         8.7309 
 164   0.0000       0.326001         8.8709 
 165   0.0000       0.330272         8.9872 
 166   0.0000       0.333947         9.0872 
 167   0.0000       0.334711         9.1079 
 168   0.0000       0.337473         9.1831 
 169   0.0000       0.339802         9.2465 
 170   0.0000       0.342845         9.3293 
 171   0.0000       0.349730         9.5166 
 172   0.0000       0.355206         9.6656 
 173   0.0000       0.356338         9.6965 
 174   0.0000       0.358693         9.7605 
 175   0.0000       0.360158         9.8004 
 176   0.0000       0.364436         9.9168 
 177   0.0000       0.370075        10.0702 
 178   0.0000       0.370444        10.0803 
 179   0.0000       0.374804        10.1989 
 180   0.0000       0.380354        10.3499 
 181   0.0000       0.383116        10.4251 
 182   0.0000       0.383862        10.4454 
 183   0.0000       0.389275        10.5927 
 184   0.0000       0.392732        10.6868 
 185   0.0000       0.393456        10.7065 
 186   0.0000       0.396305        10.7840 
 187   0.0000       0.402130        10.9425 
 188   0.0000       0.402991        10.9659 
 189   0.0000       0.410185        11.1617 
 190   0.0000       0.411336        11.1930 
 191   0.0000       0.413742        11.2585 
 192   0.0000       0.416494        11.3334 
 193   0.0000       0.422858        11.5065 
 194   0.0000       0.425896        11.5892 
 195   0.0000       0.431009        11.7284 
 196   0.0000       0.435637        11.8543 
 197   0.0000       0.436849        11.8873 
 198   0.0000       0.441725        12.0199 
 199   0.0000       0.447131        12.1671 
 200   0.0000       0.448059        12.1923 
 201   0.0000       0.453308        12.3351 
 202   0.0000       0.456458        12.4208 
 203   0.0000       0.461337        12.5536 
 204   0.0000       0.465777        12.6744 
 205   0.0000       0.466930        12.7058 
 206   0.0000       0.470378        12.7996 
 207   0.0000       0.472173        12.8485 
 208   0.0000       0.474579        12.9140 
 209   0.0000       0.479378        13.0445 
 210   0.0000       0.482292        13.1238 
 211   0.0000       0.488929        13.3044 
 212   0.0000       0.490857        13.3569 
 213   0.0000       0.494204        13.4480 
 214   0.0000       0.497664        13.5421 
 215   0.0000       0.499498        13.5920 
 216   0.0000       0.503089        13.6898 
 217   0.0000       0.505673        13.7601 
 218   0.0000       0.508507        13.8372 
 219   0.0000       0.512699        13.9513 
 220   0.0000       0.513725        13.9792 
 221   0.0000       0.518123        14.0988 
 222   0.0000       0.522989        14.2313 
 223   0.0000       0.525236        14.2924 
 224   0.0000       0.527227        14.3466 
 225   0.0000       0.531013        14.4496 
 226   0.0000       0.533927        14.5289 
 227   0.0000       0.537346        14.6219 
 228   0.0000       0.540950        14.7200 
 229   0.0000       0.543868        14.7994 
 230   0.0000       0.546158        14.8617 
 231   0.0000       0.549851        14.9622 
 232   0.0000       0.552914        15.0456 
 233   0.0000       0.557782        15.1780 
 234   0.0000       0.561942        15.2912 
 235   0.0000       0.565251        15.3813 
 236   0.0000       0.571017        15.5382 
 237   0.0000       0.575007        15.6467 
 238   0.0000       0.576679        15.6922 
 239   0.0000       0.581509        15.8237 
 240   0.0000       0.582740        15.8572 
 241   0.0000       0.585590        15.9347 
 242   0.0000       0.587631        15.9902 
 243   0.0000       0.595924        16.2159 
 244   0.0000       0.599183        16.3046 
 245   0.0000       0.600927        16.3521 
 246   0.0000       0.606778        16.5113 
 247   0.0000       0.607526        16.5316 
 248   0.0000       0.613159        16.6849 
 249   0.0000       0.618952        16.8425 
 250   0.0000       0.621298        16.9064 
 251   0.0000       0.623393        16.9634 
 252   0.0000       0.626027        17.0351 
 253   0.0000       0.627965        17.0878 
 254   0.0000       0.635329        17.2882 
 255   0.0000       0.639012        17.3884 
 256   0.0000       0.648008        17.6332 
 257   0.0000       0.651806        17.7365 
 258   0.0000       0.655804        17.8453 
 259   0.0000       0.660168        17.9641 
 260   0.0000       0.663427        18.0528 
 261   0.0000       0.665222        18.1016 
 262   0.0000       0.672349        18.2955 
 263   0.0000       0.679308        18.4849 
 264   0.0000       0.679455        18.4889 
 265   0.0000       0.683614        18.6021 
 266   0.0000       0.687798        18.7159 
 267   0.0000       0.691069        18.8049 
 268   0.0000       0.697273        18.9738 
 269   0.0000       0.699156        19.0250 
 270   0.0000       0.702407        19.1135 
 271   0.0000       0.709747        19.3132 
 272   0.0000       0.711075        19.3493 
 273   0.0000       0.716477        19.4963 
 274   0.0000       0.723923        19.6989 
 275   0.0000       0.728903        19.8345 
 276   0.0000       0.731446        19.9036 
 277   0.0000       0.733083        19.9482 
 278   0.0000       0.739544        20.1240 
 279   0.0000       0.742532        20.2053 
 280   0.0000       0.747625        20.3439 
 281   0.0000       0.752561        20.4782 
 282   0.0000       0.759149        20.6575 
 283   0.0000       0.763415        20.7736 
 284   0.0000       0.773029        21.0352 
 285   0.0000       0.782784        21.3006 
 286   0.0000       0.787403        21.4263 
 287   0.0000       0.790753        21.5175 
 288   0.0000       0.794189        21.6110 
 289   0.0000       0.796317        21.6689 
 290   0.0000       0.804523        21.8922 
 291   0.0000       0.815443        22.1893 
 292   0.0000       0.822697        22.3867 
 293   0.0000       0.826670        22.4948 
 294   0.0000       0.834980        22.7210 
 295   0.0000       0.840158        22.8619 
 296   0.0000       0.841104        22.8876 
 297   0.0000       0.847864        23.0715 
 298   0.0000       0.850181        23.1346 
 299   0.0000       0.854802        23.2603 
 300   0.0000       0.858777        23.3685 
 301   0.0000       0.863726        23.5032 
 302   0.0000       0.870208        23.6796 
 303   0.0000       0.874869        23.8064 
 304   0.0000       0.883101        24.0304 
 305   0.0000       0.884948        24.0807 
 306   0.0000       0.891537        24.2599 
 307   0.0000       0.892571        24.2881 
 308   0.0000       0.897380        24.4189 
 309   0.0000       0.898159        24.4401 
 310   0.0000       0.905465        24.6389 
 311   0.0000       0.913514        24.8580 
 312   0.0000       0.914910        24.8960 
 313   0.0000       0.917067        24.9546 
 314   0.0000       0.920987        25.0613 
 315   0.0000       0.924149        25.1474 
 316   0.0000       0.935274        25.4501 
 317   0.0000       0.936670        25.4881 
 318   0.0000       0.942507        25.6469 
 319   0.0000       0.943919        25.6853 
 320   0.0000       0.949705        25.8428 
 321   0.0000       0.955045        25.9881 
 322   0.0000       0.955697        26.0058 
 323   0.0000       0.959571        26.1113 
 324   0.0000       0.963712        26.2239 
 325   0.0000       0.967338        26.3226 
 326   0.0000       0.970627        26.4121 
 327   0.0000       0.973006        26.4768 
 328   0.0000       0.980944        26.6929 
 329   0.0000       0.983318        26.7574 
 330   0.0000       0.983485        26.7620 
 331   0.0000       0.988502        26.8985 
 332   0.0000       0.994098        27.0508 
 333   0.0000       0.996525        27.1168 
 334   0.0000       0.998300        27.1651 
 335   0.0000       1.001197        27.2440 
 336   0.0000       1.005958        27.3735 
 337   0.0000       1.011549        27.5256 
 338   0.0000       1.012396        27.5487 
 339   0.0000       1.015793        27.6411 
 340   0.0000       1.023187        27.8423 
 341   0.0000       1.024447        27.8766 
 342   0.0000       1.028555        27.9884 
 343   0.0000       1.032726        28.1019 
 344   0.0000       1.040027        28.3006 
 345   0.0000       1.041441        28.3390 
 346   0.0000       1.043213        28.3873 
 347   0.0000       1.046635        28.4804 
 348   0.0000       1.051545        28.6140 
 349   0.0000       1.053805        28.6755 
 350   0.0000       1.057859        28.7858 
 351   0.0000       1.065405        28.9912 
 352   0.0000       1.065892        29.0044 
 353   0.0000       1.068457        29.0742 
 354   0.0000       1.075032        29.2531 
 355   0.0000       1.079180        29.3660 
 356   0.0000       1.080245        29.3950 
 357   0.0000       1.086218        29.5575 
 358   0.0000       1.090715        29.6799 
 359   0.0000       1.094045        29.7705 
 360   0.0000       1.097110        29.8539 
 361   0.0000       1.101244        29.9664 
 362   0.0000       1.101718        29.9793 
 363   0.0000       1.111046        30.2331 
 364   0.0000       1.114027        30.3142 
 365   0.0000       1.115135        30.3444 
 366   0.0000       1.124225        30.5917 
 367   0.0000       1.126442        30.6521 
 368   0.0000       1.132448        30.8155 
 369   0.0000       1.135885        30.9090 
 370   0.0000       1.139354        31.0034 
 371   0.0000       1.140315        31.0296 
 372   0.0000       1.142922        31.1005 
 373   0.0000       1.146283        31.1919 
 374   0.0000       1.156332        31.4654 
 375   0.0000       1.158098        31.5135 
 376   0.0000       1.165270        31.7086 
 377   0.0000       1.169404        31.8211 
 378   0.0000       1.171618        31.8814 
 379   0.0000       1.182807        32.1858 
 380   0.0000       1.183383        32.2015 
 381   0.0000       1.189915        32.3792 
 382   0.0000       1.197341        32.5813 
 383   0.0000       1.198550        32.6142 
 384   0.0000       1.202472        32.7209 
 385   0.0000       1.206877        32.8408 
 386   0.0000       1.212296        32.9883 
 387   0.0000       1.215312        33.0703 
 388   0.0000       1.219376        33.1809 
 389   0.0000       1.220694        33.2168 
 390   0.0000       1.229900        33.4673 
 391   0.0000       1.235868        33.6297 
 392   0.0000       1.238509        33.7015 
 393   0.0000       1.243907        33.8484 
 394   0.0000       1.247260        33.9397 
 395   0.0000       1.252626        34.0857 
 396   0.0000       1.257177        34.2095 
 397   0.0000       1.263579        34.3837 
 398   0.0000       1.264809        34.4172 
 399   0.0000       1.273677        34.6585 
 400   0.0000       1.280846        34.8536 
 401   0.0000       1.281964        34.8840 
 402   0.0000       1.290188        35.1078 
 403   0.0000       1.292551        35.1721 
 404   0.0000       1.293437        35.1962 
 405   0.0000       1.304937        35.5092 
 406   0.0000       1.307023        35.5659 
 407   0.0000       1.309068        35.6216 
 408   0.0000       1.313734        35.7485 
 409   0.0000       1.323770        36.0216 
 410   0.0000       1.324416        36.0392 
 411   0.0000       1.328958        36.1628 
 412   0.0000       1.333415        36.2841 
 413   0.0000       1.337726        36.4014 
 414   0.0000       1.348951        36.7068 
 415   0.0000       1.354685        36.8629 
 416   0.0000       1.358253        36.9600 
 417   0.0000       1.361080        37.0369 
 418   0.0000       1.369859        37.2757 
 419   0.0000       1.372262        37.3411 
 420   0.0000       1.378187        37.5024 
 421   0.0000       1.388215        37.7753 
 422   0.0000       1.388798        37.7911 
 423   0.0000       1.397183        38.0193 
 424   0.0000       1.409501        38.3545 
 425   0.0000       1.413241        38.4562 
 426   0.0000       1.415366        38.5141 
 427   0.0000       1.421179        38.6722 
 428   0.0000       1.429741        38.9052 
 429   0.0000       1.435497        39.0619 
 430   0.0000       1.439536        39.1718 
 431   0.0000       1.440702        39.2035 
 432   0.0000       1.448138        39.4058 
 433   0.0000       1.451492        39.4971 
 434   0.0000       1.455444        39.6046 
 435   0.0000       1.456962        39.6459 
 436   0.0000       1.461647        39.7734 
 437   0.0000       1.466358        39.9016 
 438   0.0000       1.468126        39.9497 
 439   0.0000       1.481210        40.3058 
 440   0.0000       1.486452        40.4484 
 441   0.0000       1.492627        40.6164 
 442   0.0000       1.498951        40.7885 
 443   0.0000       1.502616        40.8883 
 444   0.0000       1.506543        40.9951 
 445   0.0000       1.510819        41.1115 
 446   0.0000       1.521793        41.4101 
 447   0.0000       1.524838        41.4929 
 448   0.0000       1.528002        41.5791 
 449   0.0000       1.533784        41.7364 
 450   0.0000       1.537049        41.8252 
 451   0.0000       1.541923        41.9579 
 452   0.0000       1.549206        42.1560 
 453   0.0000       1.552637        42.2494 
 454   0.0000       1.556562        42.3562 
 455   0.0000       1.569803        42.7165 
 456   0.0000       1.573367        42.8135 
 457   0.0000       1.575973        42.8844 
 458   0.0000       1.579166        42.9713 
 459   0.0000       1.583498        43.0892 
 460   0.0000       1.591343        43.3026 
 461   0.0000       1.599097        43.5136 
 462   0.0000       1.601371        43.5755 
 463   0.0000       1.606036        43.7025 
 464   0.0000       1.611667        43.8557 
 465   0.0000       1.613733        43.9119 
 466   0.0000       1.617397        44.0116 
 467   0.0000       1.620618        44.0993 
 468   0.0000       1.631313        44.3903 
 469   0.0000       1.634719        44.4830 
 470   0.0000       1.640630        44.6438 
 471   0.0000       1.650046        44.9000 
 472   0.0000       1.654584        45.0235 
 473   0.0000       1.656929        45.0873 
 474   0.0000       1.665908        45.3317 
 475   0.0000       1.668861        45.4120 
 476   0.0000       1.673874        45.5484 
 477   0.0000       1.683303        45.8050 
 478   0.0000       1.688106        45.9357 
 479   0.0000       1.692659        46.0596 
 480   0.0000       1.693595        46.0851 
 481   0.0000       1.697422        46.1892 
 482   0.0000       1.703467        46.3537 
 483   0.0000       1.710309        46.5399 
 484   0.0000       1.711302        46.5669 
 485   0.0000       1.716649        46.7124 
 486   0.0000       1.721379        46.8411 
 487   0.0000       1.730349        47.0852 
 488   0.0000       1.737187        47.2713 
 489   0.0000       1.738952        47.3193 
 490   0.0000       1.740932        47.3732 
 491   0.0000       1.751347        47.6566 
 492   0.0000       1.756814        47.8053 
 493   0.0000       1.763372        47.9838 
 494   0.0000       1.770745        48.1844 
 495   0.0000       1.773629        48.2629 
 496   0.0000       1.778173        48.3865 
 497   0.0000       1.791567        48.7510 
 498   0.0000       1.798882        48.9501 
 499   0.0000       1.799964        48.9795 
 500   0.0000       1.806355        49.1534 
 501   0.0000       1.809500        49.2390 
 502   0.0000       1.822166        49.5837 
 503   0.0000       1.824386        49.6441 
 504   0.0000       1.828424        49.7540 
 505   0.0000       1.831521        49.8382 
 506   0.0000       1.835188        49.9380 
 507   0.0000       1.842417        50.1347 
 508   0.0000       1.848805        50.3086 
 509   0.0000       1.851558        50.3835 
 510   0.0000       1.855515        50.4911 
 511   0.0000       1.856517        50.5184 
 512   0.0000       1.866377        50.7867 
 513   0.0000       1.869007        50.8583 
 514   0.0000       1.870066        50.8871 
 515   0.0000       1.875331        51.0304 
 516   0.0000       1.882899        51.2363 
 517   0.0000       1.889469        51.4151 
 518   0.0000       1.891963        51.4829 
 519   0.0000       1.900201        51.7071 
 520   0.0000       1.906464        51.8775 
 521   0.0000       1.910577        51.9894 
 522   0.0000       1.913432        52.0671 
 523   0.0000       1.913958        52.0815 
 524   0.0000       1.923021        52.3281 
 525   0.0000       1.928663        52.4816 
 526   0.0000       1.931162        52.5496 
 527   0.0000       1.941643        52.8348 
 528   0.0000       1.943199        52.8771 
 529   0.0000       1.949132        53.0386 
 530   0.0000       1.960722        53.3540 
 531   0.0000       1.964266        53.4504 
 532   0.0000       1.967630        53.5419 
 533   0.0000       1.971189        53.6388 
 534   0.0000       1.983832        53.9828 
 535   0.0000       1.988166        54.1008 
 536   0.0000       1.988883        54.1203 
 537   0.0000       1.997241        54.3477 
 538   0.0000       2.002579        54.4929 
 539   0.0000       2.013491        54.7899 
 540   0.0000       2.016637        54.8755 
 541   0.0000       2.029288        55.2197 
 542   0.0000       2.033753        55.3412 
 543   0.0000       2.037553        55.4446 
 544   0.0000       2.042195        55.5710 
 545   0.0000       2.052058        55.8393 
 546   0.0000       2.061226        56.0888 
 547   0.0000       2.064703        56.1834 
 548   0.0000       2.071464        56.3674 
 549   0.0000       2.084086        56.7109 
 550   0.0000       2.086757        56.7836 
 551   0.0000       2.095141        57.0117 
 552   0.0000       2.098489        57.1028 
 553   0.0000       2.102345        57.2077 
 554   0.0000       2.111288        57.4511 
 555   0.0000       2.123156        57.7740 
 556   0.0000       2.127314        57.8872 
 557   0.0000       2.133885        58.0660 
 558   0.0000       2.143744        58.3343 
 559   0.0000       2.148273        58.4575 
 560   0.0000       2.159610        58.7660 
 561   0.0000       2.161550        58.8188 
 562   0.0000       2.164719        58.9050 
 563   0.0000       2.173974        59.1568 
 564   0.0000       2.180337        59.3300 
 565   0.0000       2.191346        59.6295 
 566   0.0000       2.201611        59.9089 
 567   0.0000       2.208843        60.1057 
 568   0.0000       2.215930        60.2985 
 569   0.0000       2.220291        60.4172 
 570   0.0000       2.222420        60.4751 
 571   0.0000       2.229095        60.6568 
 572   0.0000       2.239464        60.9389 
 573   0.0000       2.242417        61.0193 
 574   0.0000       2.251715        61.2723 
 575   0.0000       2.258225        61.4494 
 576   0.0000       2.263306        61.5877 
 577   0.0000       2.273333        61.8605 
 578   0.0000       2.279633        62.0320 
 579   0.0000       2.290811        62.3361 
 580   0.0000       2.302357        62.6503 
 581   0.0000       2.304409        62.7062 
 582   0.0000       2.313715        62.9594 
 583   0.0000       2.318380        63.0863 
 584   0.0000       2.324408        63.2503 
 585   0.0000       2.327889        63.3451 
 586   0.0000       2.334413        63.5226 
 587   0.0000       2.346964        63.8641 
 588   0.0000       2.350002        63.9468 
 589   0.0000       2.354932        64.0809 
 590   0.0000       2.368461        64.4491 
 591   0.0000       2.368769        64.4575 
 592   0.0000       2.375739        64.6471 
 593   0.0000       2.393404        65.1278 
 594   0.0000       2.399486        65.2933 
 595   0.0000       2.404443        65.4282 
 596   0.0000       2.423820        65.9555 
 597   0.0000       2.427057        66.0436 
 598   0.0000       2.433551        66.2203 
 599   0.0000       2.446054        66.5605 
 600   0.0000       2.453204        66.7551 
 601   0.0000       2.463779        67.0428 
 602   0.0000       2.465431        67.0878 
 603   0.0000       2.472400        67.2774 
 604   0.0000       2.486512        67.6614 
 605   0.0000       2.488216        67.7078 
 606   0.0000       2.497292        67.9548 
 607   0.0000       2.525189        68.7139 
 608   0.0000       2.528316        68.7990 
 609   0.0000       2.541719        69.1637 
 610   0.0000       2.560041        69.6622 
 611   0.0000       2.567474        69.8645 
 612   0.0000       2.574784        70.0634 
 613   0.0000       2.597474        70.6809 
 614   0.0000       2.610858        71.0450 
 615   0.0000       2.623310        71.3839 
 616   0.0000       2.628452        71.5238 
 617   0.0000       2.637082        71.7586 
 618   0.0000       2.644027        71.9476 
 619   0.0000       2.659857        72.3784 
 620   0.0000       2.668314        72.6085 
 621   0.0000       2.682832        73.0036 
 622   0.0000       2.686763        73.1105 
 623   0.0000       2.693588        73.2963 
 624   0.0000       2.699105        73.4464 
 625   0.0000       2.708153        73.6926 
 626   0.0000       2.711642        73.7875 
 627   0.0000       2.722411        74.0806 
 628   0.0000       2.732212        74.3473 
 629   0.0000       2.734972        74.4224 
 630   0.0000       2.743003        74.6409 
 631   0.0000       2.748359        74.7867 
 632   0.0000       2.756822        75.0169 
 633   0.0000       2.761258        75.1377 
 634   0.0000       2.766086        75.2690 
 635   0.0000       2.789933        75.9179 
 636   0.0000       2.795814        76.0780 
 637   0.0000       2.819162        76.7133 
 638   0.0000       2.839383        77.2635 
 639   0.0000       2.852811        77.6289 
 640   0.0000       2.864141        77.9372 
 641   0.0000       2.878142        78.3182 
 642   0.0000       2.879182        78.3465 
 643   0.0000       2.891984        78.6949 
 644   0.0000       2.899588        78.9018 
 645   0.0000       2.922855        79.5349 
 646   0.0000       2.926382        79.6309 
 647   0.0000       2.932844        79.8067 
 648   0.0000       2.949640        80.2638 
 649   0.0000       2.967660        80.7541 
 650   0.0000       2.977568        81.0237 
 651   0.0000       2.987110        81.2834 
 652   0.0000       2.992581        81.4323 
 653   0.0000       3.033685        82.5508 
 654   0.0000       3.042920        82.8021 
 655   0.0000       3.053617        83.0931 
 656   0.0000       3.062758        83.3419 
 657   0.0000       3.090641        84.1006 
 658   0.0000       3.095982        84.2459 
 659   0.0000       3.099268        84.3354 
 660   0.0000       3.120705        84.9187 
 661   0.0000       3.153427        85.8091 
 662   0.0000       3.154040        85.8258 
 663   0.0000       3.160535        86.0025 
 664   0.0000       3.182625        86.6036 
 665   0.0000       3.188905        86.7745 
 666   0.0000       3.207100        87.2696 
 667   0.0000       3.208775        87.3152 
 668   0.0000       3.224990        87.7564 
 669   0.0000       3.236983        88.0828 
 670   0.0000       3.239084        88.1400 
 671   0.0000       3.245709        88.3202 
 672   0.0000       3.255144        88.5770 
 673   0.0000       3.261340        88.7456 
 674   0.0000       3.269525        88.9683 
 675   0.0000       3.277869        89.1954 
 676   0.0000       3.287190        89.4490 
 677   0.0000       3.303329        89.8882 
 678   0.0000       3.310029        90.0705 
 679   0.0000       3.323117        90.4266 
 680   0.0000       3.332847        90.6914 
 681   0.0000       3.340757        90.9066 
 682   0.0000       3.352891        91.2368 
 683   0.0000       3.359298        91.4112 
 684   0.0000       3.362268        91.4920 
 685   0.0000       3.373371        91.7941 
 686   0.0000       3.384179        92.0882 
 687   0.0000       3.394985        92.3822 
 688   0.0000       3.406780        92.7032 
 689   0.0000       3.409311        92.7721 
 690   0.0000       3.426710        93.2455 
 691   0.0000       3.432350        93.3990 
 692   0.0000       3.445768        93.7641 
 693   0.0000       3.452434        93.9455 
 694   0.0000       3.459730        94.1440 
 695   0.0000       3.469704        94.4154 
 696   0.0000       3.477117        94.6172 
 697   0.0000       3.483819        94.7995 
 698   0.0000       3.498184        95.1904 
 699   0.0000       3.501150        95.2711 
 700   0.0000       3.507854        95.4536 
 701   0.0000       3.517977        95.7290 
 702   0.0000       3.521118        95.8145 
 703   0.0000       3.529434        96.0408 
 704   0.0000       3.540387        96.3388 
 705   0.0000       3.550050        96.6018 
 706   0.0000       3.556466        96.7764 
 707   0.0000       3.567661        97.0810 
 708   0.0000       3.576511        97.3218 
 709   0.0000       3.587828        97.6298 
 710   0.0000       3.598659        97.9245 
 711   0.0000       3.601325        97.9970 
 712   0.0000       3.606099        98.1269 
 713   0.0000       3.614033        98.3428 
 714   0.0000       3.622495        98.5731 
 715   0.0000       3.635526        98.9277 
 716   0.0000       3.642290        99.1118 
 717   0.0000       3.649429        99.3060 
 718   0.0000       3.658341        99.5485 
 719   0.0000       3.672257        99.9272 
 720   0.0000       3.683778       100.2407 
 721   0.0000       3.692192       100.4697 
 722   0.0000       3.701096       100.7119 
 723   0.0000       3.707120       100.8759 
 724   0.0000       3.712006       101.0088 
 725   0.0000       3.716394       101.1282 
 726   0.0000       3.723525       101.3223 
 727   0.0000       3.742718       101.8445 
 728   0.0000       3.750875       102.0665 
 729   0.0000       3.753418       102.1357 
 730   0.0000       3.756275       102.2134 
 731   0.0000       3.764760       102.4443 
 732   0.0000       3.774073       102.6978 
 733   0.0000       3.775156       102.7272 
 734   0.0000       3.786739       103.0424 
 735   0.0000       3.792183       103.1906 
 736   0.0000       3.803323       103.4937 
 737   0.0000       3.808840       103.6438 
 738   0.0000       3.814655       103.8020 
 739   0.0000       3.818660       103.9110 
 740   0.0000       3.823652       104.0468 
 741   0.0000       3.829697       104.2113 
 742   0.0000       3.846307       104.6633 
 743   0.0000       3.848557       104.7245 
 744   0.0000       3.850461       104.7764 
 745   0.0000       3.860166       105.0404 
 746   0.0000       3.866031       105.2000 
 747   0.0000       3.878740       105.5459 
 748   0.0000       3.888352       105.8074 
 749   0.0000       3.892074       105.9087 
 750   0.0000       3.893960       105.9600 
 751   0.0000       3.910048       106.3978 
 752   0.0000       3.913368       106.4882 
 753   0.0000       3.922466       106.7357 
 754   0.0000       3.934165       107.0541 
 755   0.0000       3.936108       107.1069 
 756   0.0000       3.939706       107.2048 
 757   0.0000       3.944802       107.3435 
 758   0.0000       3.955474       107.6339 
 759   0.0000       3.969598       108.0182 
 760   0.0000       3.971445       108.0685 
 761   0.0000       3.975827       108.1878 
 762   0.0000       3.982911       108.3805 
 763   0.0000       3.998026       108.7918 
 764   0.0000       3.998881       108.8151 
 765   0.0000       4.011211       109.1506 
 766   0.0000       4.016428       109.2926 
 767   0.0000       4.031024       109.6897 
 768   0.0000       4.034365       109.7807 
 769   0.0000       4.042382       109.9988 
 770   0.0000       4.049029       110.1797 
 771   0.0000       4.055388       110.3527 
 772   0.0000       4.059193       110.4563 
 773   0.0000       4.062725       110.5524 
 774   0.0000       4.069457       110.7356 
 775   0.0000       4.076937       110.9391 
 776   0.0000       4.088537       111.2548 
 777   0.0000       4.101835       111.6166 
 778   0.0000       4.106743       111.7502 
 779   0.0000       4.112392       111.9039 
 780   0.0000       4.118391       112.0671 
 781   0.0000       4.123353       112.2022 
 782   0.0000       4.127377       112.3116 
 783   0.0000       4.146083       112.8207 
 784   0.0000       4.154586       113.0520 
 785   0.0000       4.164765       113.3290 
 786   0.0000       4.173804       113.5750 
 787   0.0000       4.178930       113.7145 
 788   0.0000       4.188558       113.9765 
 789   0.0000       4.199644       114.2781 
 790   0.0000       4.203276       114.3770 
 791   0.0000       4.209741       114.5529 
 792   0.0000       4.224200       114.9463 
 793   0.0000       4.230455       115.1165 
 794   0.0000       4.239665       115.3671 
 795   0.0000       4.242761       115.4514 
 796   0.0000       4.254653       115.7750 
 797   0.0000       4.258882       115.8901 
 798   0.0000       4.270838       116.2154 
 799   0.0000       4.290462       116.7494 
 800   0.0000       4.291622       116.7810 
 801   0.0000       4.306438       117.1841 
 802   0.0000       4.311954       117.3342 
 803   0.0000       4.320873       117.5769 
 804   0.0000       4.334587       117.9501 
 805   0.0000       4.340767       118.1183 
 806   0.0000       4.344528       118.2206 
 807   0.0000       4.358956       118.6132 
 808   0.0000       4.362726       118.7158 
 809   0.0000       4.368774       118.8804 
 810   0.0000       4.379999       119.1858 
 811   0.0000       4.388223       119.4096 
 812   0.0000       4.395318       119.6027 
 813   0.0000       4.406213       119.8992 
 814   0.0000       4.427661       120.4828 
 815   0.0000       4.431864       120.5972 
 816   0.0000       4.434797       120.6770 
 817   0.0000       4.445945       120.9803 
 818   0.0000       4.451630       121.1350 
 819   0.0000       4.454299       121.2076 
 820   0.0000       4.473989       121.7434 
 821   0.0000       4.478767       121.8734 
 822   0.0000       4.497281       122.3772 
 823   0.0000       4.511696       122.7695 
 824   0.0000       4.516987       122.9135 
 825   0.0000       4.521511       123.0366 
 826   0.0000       4.525032       123.1324 
 827   0.0000       4.547212       123.7359 
 828   0.0000       4.554897       123.9451 
 829   0.0000       4.562602       124.1547 
 830   0.0000       4.575008       124.4923 
 831   0.0000       4.582643       124.7001 
 832   0.0000       4.596946       125.0892 
 833   0.0000       4.597763       125.1115 
 834   0.0000       4.617438       125.6469 
 835   0.0000       4.624402       125.8364 
 836   0.0000       4.636190       126.1571 
 837   0.0000       4.647429       126.4630 
 838   0.0000       4.665545       126.9559 
 839   0.0000       4.671441       127.1164 
 840   0.0000       4.682351       127.4133 
 841   0.0000       4.698423       127.8506 
 842   0.0000       4.704103       128.0051 
 843   0.0000       4.712525       128.2343 
 844   0.0000       4.738742       128.9477 
 845   0.0000       4.744003       129.0909 
 846   0.0000       4.751049       129.2826 
 847   0.0000       4.763152       129.6120 
 848   0.0000       4.768968       129.7702 
 849   0.0000       4.779092       130.0457 
 850   0.0000       4.790911       130.3673 
 851   0.0000       4.800998       130.6418 
 852   0.0000       4.806793       130.7995 
 853   0.0000       4.817448       131.0894 
 854   0.0000       4.839636       131.6932 
 855   0.0000       4.845198       131.8445 
 856   0.0000       4.856109       132.1414 
 857   0.0000       4.867086       132.4401 
 858   0.0000       4.887870       133.0057 
 859   0.0000       4.891674       133.1092 
 860   0.0000       4.908577       133.5692 
 861   0.0000       4.914013       133.7171 
 862   0.0000       4.920221       133.8860 
 863   0.0000       4.934944       134.2866 
 864   0.0000       4.940023       134.4249 
 865   0.0000       4.954284       134.8129 
 866   0.0000       4.973366       135.3322 
 867   0.0000       4.989224       135.7637 
 868   0.0000       4.995410       135.9320 
 869   0.0000       5.001834       136.1068 
 870   0.0000       5.007199       136.2528 
 871   0.0000       5.024131       136.7136 
 872   0.0000       5.033115       136.9580 
 873   0.0000       5.041749       137.1930 
 874   0.0000       5.059517       137.6764 
 875   0.0000       5.071424       138.0005 
 876   0.0000       5.073520       138.0575 
 877   0.0000       5.090640       138.5234 
 878   0.0000       5.106123       138.9447 
 879   0.0000       5.114564       139.1744 
 880   0.0000       5.126141       139.4894 
 881   0.0000       5.141646       139.9113 
 882   0.0000       5.154395       140.2582 
 883   0.0000       5.175332       140.8279 
 884   0.0000       5.190190       141.2323 
 885   0.0000       5.196448       141.4025 
 886   0.0000       5.204767       141.6289 
 887   0.0000       5.219071       142.0181 
 888   0.0000       5.229728       142.3081 
 889   0.0000       5.236311       142.4873 
 890   0.0000       5.242074       142.6441 
 891   0.0000       5.268462       143.3621 
 892   0.0000       5.277914       143.6193 
 893   0.0000       5.286725       143.8591 
 894   0.0000       5.295528       144.0987 
 895   0.0000       5.303724       144.3217 
 896   0.0000       5.316923       144.6808 
 897   0.0000       5.335012       145.1731 
 898   0.0000       5.346424       145.4836 
 899   0.0000       5.366919       146.0413 
 900   0.0000       5.381564       146.4398 
 901   0.0000       5.390052       146.6708 
 902   0.0000       5.394824       146.8006 
 903   0.0000       5.410620       147.2305 
 904   0.0000       5.421473       147.5258 
 905   0.0000       5.428777       147.7245 
 906   0.0000       5.452792       148.3780 
 907   0.0000       5.461517       148.6154 
 908   0.0000       5.476062       149.0112 
 909   0.0000       5.483385       149.2105 
 910   0.0000       5.497011       149.5813 
 911   0.0000       5.509904       149.9321 
 912   0.0000       5.516168       150.1026 
 913   0.0000       5.526495       150.3836 
 914   0.0000       5.543637       150.8500 
 915   0.0000       5.552091       151.0801 
 916   0.0000       5.560632       151.3125 
 917   0.0000       5.580923       151.8646 
 918   0.0000       5.589012       152.0847 
 919   0.0000       5.595860       152.2711 
 920   0.0000       5.613809       152.7595 
 921   0.0000       5.628133       153.1493 
 922   0.0000       5.637122       153.3939 
 923   0.0000       5.656084       153.9099 
 924   0.0000       5.661768       154.0645 
 925   0.0000       5.671349       154.3253 
 926   0.0000       5.688222       154.7844 
 927   0.0000       5.693265       154.9216 
 928   0.0000       5.700161       155.1093 
 929   0.0000       5.710612       155.3936 
 930   0.0000       5.722101       155.7063 
 931   0.0000       5.734131       156.0336 
 932   0.0000       5.750985       156.4923 
 933   0.0000       5.766127       156.9043 
 934   0.0000       5.778758       157.2480 
 935   0.0000       5.792532       157.6228 
 936   0.0000       5.800371       157.8361 
 937   0.0000       5.810278       158.1057 
 938   0.0000       5.832464       158.7094 
 939   0.0000       5.847160       159.1093 
 940   0.0000       5.865709       159.6141 
 941   0.0000       5.882918       160.0823 
 942   0.0000       5.901159       160.5787 
 943   0.0000       5.926175       161.2594 
 944   0.0000       5.954951       162.0425 
 945   0.0000       5.965691       162.3347 
 946   0.0000       6.013858       163.6454 
 947   0.0000       6.072668       165.2457 
 948   0.0000       6.088953       165.6888 
 949   0.0000       6.125860       166.6931 
 950   0.0000       6.150455       167.3624 
 951   0.0000       6.161614       167.6660 
 952   0.0000       6.186917       168.3546 
 953   0.0000       6.191318       168.4743 
 954   0.0000       6.225919       169.4159 
 955   0.0000       6.246631       169.9795 
 956   0.0000       6.253298       170.1609 
 957   0.0000       6.261735       170.3905 
 958   0.0000       6.273346       170.7064 
 959   0.0000       6.295463       171.3083 
 960   0.0000       6.303761       171.5340 
 961   0.0000       6.323846       172.0806 
 962   0.0000       6.338518       172.4798 
 963   0.0000       6.358452       173.0223 
 964   0.0000       6.371201       173.3692 
 965   0.0000       6.377666       173.5451 
 966   0.0000       6.409400       174.4086 
 967   0.0000       6.427633       174.9048 
 968   0.0000       6.464816       175.9166 
 969   0.0000       6.523261       177.5070 
 970   0.0000       6.549196       178.2127 
 971   0.0000       6.688472       182.0026 
 972   0.0000       6.810478       185.3225 
 973   0.0000       6.851920       186.4502 
 974   0.0000       6.883085       187.2983 
 975   0.0000       6.912772       188.1061 
 976   0.0000       6.934365       188.6937 
 977   0.0000       6.953649       189.2184 
 978   0.0000       6.973587       189.7609 
 979   0.0000       6.987879       190.1498 
 980   0.0000       7.014859       190.8840 
 981   0.0000       7.034951       191.4308 
 982   0.0000       7.063681       192.2125 
 983   0.0000       7.067405       192.3139 
 984   0.0000       7.147387       194.4903 
 985   0.0000       7.227854       196.6799 
 986   0.0000       7.303568       198.7402 
 987   0.0000       7.380394       200.8307 
 988   0.0000       7.409095       201.6117 
 989   0.0000       7.473555       203.3658 
 990   0.0000       7.560217       205.7240 
 991   0.0000       7.610171       207.0833 
 992   0.0000       7.644786       208.0252 
 993   0.0000       7.762666       211.2329 
 994   0.0000       7.803175       212.3352 
 995   0.0000       7.926829       215.7000 
 996   0.0000       8.034145       218.6202 
 997   0.0000       8.132168       221.2875 
 998   0.0000       8.328548       226.6313 
 999   0.0000       9.438615       256.8378 
 1000   0.0000       9.451324       257.1836 
 1001   0.0000       9.465002       257.5558 
 1002   0.0000       9.469607       257.6811 
 1003   0.0000       9.478407       257.9206 
 1004   0.0000       9.510957       258.8063 
 1005   0.0000       9.739768       265.0326 
 1006   0.0000      10.103460       274.9291 
 1007   0.0000      10.118386       275.3353 
 1008   0.0000      10.144239       276.0388 
 1009   0.0000      10.222453       278.1671 
 1010   0.0000      10.228779       278.3392 
 1011   0.0000      10.258009       279.1346 
 1012   0.0000      10.393240       282.8144 
 1013   0.0000      10.422722       283.6167 
 1014   0.0000      10.545044       286.9452 
 1015   0.0000      15.856118       431.4669 
 1016   0.0000      17.467948       475.3270 
 1017   0.0000      18.113399       492.8906 
 1018   0.0000      18.423137       501.3191 
 1019   0.0000      18.670550       508.0515 
 1020   0.0000      19.050906       518.4015 
 1021   0.0000      19.089542       519.4528 
 1022   0.0000      19.727240       536.8055 
 1023   0.0000      20.553477       559.2885 
 1024   0.0000      21.858199       594.7918 

                 SPIN DOWN ORBITALS
  NO   OCC          E(Eh)            E(eV) 
   0   1.0000    -261.547694     -7117.0746 
   1   1.0000    -104.774277     -2851.0530 
   2   1.0000    -104.771741     -2850.9840 
   3   1.0000    -104.771485     -2850.9770 
   4   1.0000     -32.057060      -872.3169 
   5   1.0000     -27.535063      -749.2672 
   6   1.0000     -27.534959      -749.2643 
   7   1.0000     -27.534593      -749.2544 
   8   1.0000     -20.557690      -559.4032 
   9   1.0000     -11.385662      -309.8196 
  10   1.0000     -11.354428      -308.9697 
  11   1.0000     -11.286595      -307.1239 
  12   1.0000     -11.278946      -306.9157 
  13   1.0000     -11.262713      -306.4740 
  14   1.0000     -11.256731      -306.3112 
  15   1.0000     -11.250009      -306.1283 
  16   1.0000     -11.249200      -306.1063 
  17   1.0000     -10.500808      -285.7415 
  18   1.0000     -10.498233      -285.6714 
  19   1.0000     -10.498007      -285.6653 
  20   1.0000      -7.966701      -216.7850 
  21   1.0000      -7.966101      -216.7686 
  22   1.0000      -7.966031      -216.7667 
  23   1.0000      -7.964203      -216.7170 
  24   1.0000      -7.963928      -216.7095 
  25   1.0000      -7.963491      -216.6976 
  26   1.0000      -7.963389      -216.6948 
  27   1.0000      -7.963267      -216.6915 
  28   1.0000      -7.963179      -216.6891 
  29   1.0000      -4.132153      -112.4416 
  30   1.0000      -2.653899       -72.2163 
  31   1.0000      -2.653858       -72.2152 
  32   1.0000      -2.653106       -72.1947 
  33   1.0000      -1.391309       -37.8594 
  34   1.0000      -1.177967       -32.0541 
  35   1.0000      -1.078658       -29.3518 
  36   1.0000      -1.043910       -28.4062 
  37   1.0000      -1.032380       -28.0925 
  38   1.0000      -1.020726       -27.7754 
  39   1.0000      -1.019074       -27.7304 
  40   1.0000      -1.002781       -27.2871 
  41   1.0000      -0.981814       -26.7165 
  42   1.0000      -0.924932       -25.1687 
  43   1.0000      -0.803212       -21.8565 
  44   1.0000      -0.768330       -20.9073 
  45   1.0000      -0.697378       -18.9766 
  46   1.0000      -0.690007       -18.7761 
  47   1.0000      -0.672264       -18.2932 
  48   1.0000      -0.664742       -18.0885 
  49   1.0000      -0.654027       -17.7970 
  50   1.0000      -0.627484       -17.0747 
  51   1.0000      -0.602679       -16.3997 
  52   1.0000      -0.595179       -16.1956 
  53   1.0000      -0.590347       -16.0642 
  54   1.0000      -0.576631       -15.6909 
  55   1.0000      -0.574261       -15.6264 
  56   1.0000      -0.565209       -15.3801 
  57   1.0000      -0.557966       -15.1830 
  58   1.0000      -0.542476       -14.7615 
  59   1.0000      -0.532340       -14.4857 
  60   1.0000      -0.521508       -14.1909 
  61   1.0000      -0.503740       -13.7075 
  62   1.0000      -0.472952       -12.8697 
  63   1.0000      -0.465864       -12.6768 
  64   1.0000      -0.461509       -12.5583 
  65   1.0000      -0.436905       -11.8888 
  66   1.0000      -0.433946       -11.8083 
  67   1.0000      -0.432053       -11.7568 
  68   1.0000      -0.422249       -11.4900 
  69   1.0000      -0.411846       -11.2069 
  70   1.0000      -0.397914       -10.8278 
  71   1.0000      -0.388489       -10.5713 
  72   0.0000       0.006441         0.1753 
  73   0.0000       0.017602         0.4790 
  74   0.0000       0.019472         0.5299 
  75   0.0000       0.021126         0.5749 
  76   0.0000       0.029634         0.8064 
  77   0.0000       0.038934         1.0594 
  78   0.0000       0.039429         1.0729 
  79   0.0000       0.041462         1.1282 
  80   0.0000       0.044666         1.2154 
  81   0.0000       0.047184         1.2840 
  82   0.0000       0.057556         1.5662 
  83   0.0000       0.057807         1.5730 
  84   0.0000       0.060929         1.6580 
  85   0.0000       0.062389         1.6977 
  86   0.0000       0.064363         1.7514 
  87   0.0000       0.073048         1.9877 
  88   0.0000       0.074682         2.0322 
  89   0.0000       0.082435         2.2432 
  90   0.0000       0.088094         2.3972 
  91   0.0000       0.090507         2.4628 
  92   0.0000       0.092328         2.5124 
  93   0.0000       0.095086         2.5874 
  94   0.0000       0.097757         2.6601 
  95   0.0000       0.102344         2.7849 
  96   0.0000       0.105660         2.8752 
  97   0.0000       0.115139         3.1331 
  98   0.0000       0.116212         3.1623 
  99   0.0000       0.120628         3.2825 
 100   0.0000       0.121959         3.3187 
 101   0.0000       0.123989         3.3739 
 102   0.0000       0.124976         3.4008 
 103   0.0000       0.126769         3.4495 
 104   0.0000       0.129356         3.5199 
 105   0.0000       0.131124         3.5681 
 106   0.0000       0.133427         3.6307 
 107   0.0000       0.134466         3.6590 
 108   0.0000       0.135936         3.6990 
 109   0.0000       0.137951         3.7538 
 110   0.0000       0.139842         3.8053 
 111   0.0000       0.143210         3.8970 
 112   0.0000       0.146996         4.0000 
 113   0.0000       0.151699         4.1279 
 114   0.0000       0.153957         4.1894 
 115   0.0000       0.156983         4.2717 
 116   0.0000       0.158593         4.3155 
 117   0.0000       0.161042         4.3822 
 118   0.0000       0.162584         4.4241 
 119   0.0000       0.164940         4.4882 
 120   0.0000       0.167519         4.5584 
 121   0.0000       0.171672         4.6714 
 122   0.0000       0.175666         4.7801 
 123   0.0000       0.178321         4.8524 
 124   0.0000       0.180116         4.9012 
 125   0.0000       0.182873         4.9762 
 126   0.0000       0.188822         5.1381 
 127   0.0000       0.190439         5.1821 
 128   0.0000       0.197064         5.3624 
 129   0.0000       0.202755         5.5172 
 130   0.0000       0.204551         5.5661 
 131   0.0000       0.208198         5.6654 
 132   0.0000       0.214958         5.8493 
 133   0.0000       0.217120         5.9081 
 134   0.0000       0.218553         5.9471 
 135   0.0000       0.221072         6.0157 
 136   0.0000       0.225435         6.1344 
 137   0.0000       0.228095         6.2068 
 138   0.0000       0.230038         6.2596 
 139   0.0000       0.233011         6.3405 
 140   0.0000       0.234278         6.3750 
 141   0.0000       0.238541         6.4910 
 142   0.0000       0.244301         6.6478 
 143   0.0000       0.245292         6.6747 
 144   0.0000       0.249513         6.7896 
 145   0.0000       0.254065         6.9135 
 146   0.0000       0.256916         6.9910 
 147   0.0000       0.262377         7.1396 
 148   0.0000       0.265184         7.2160 
 149   0.0000       0.268846         7.3157 
 150   0.0000       0.276841         7.5332 
 151   0.0000       0.278940         7.5903 
 152   0.0000       0.282404         7.6846 
 153   0.0000       0.287433         7.8215 
 154   0.0000       0.292427         7.9573 
 155   0.0000       0.295016         8.0278 
 156   0.0000       0.297893         8.1061 
 157   0.0000       0.301215         8.1965 
 158   0.0000       0.304549         8.2872 
 159   0.0000       0.313085         8.5195 
 160   0.0000       0.313618         8.5340 
 161   0.0000       0.313925         8.5423 
 162   0.0000       0.316116         8.6020 
 163   0.0000       0.326262         8.8780 
 164   0.0000       0.329234         8.9589 
 165   0.0000       0.331723         9.0266 
 166   0.0000       0.337374         9.1804 
 167   0.0000       0.339117         9.2278 
 168   0.0000       0.342250         9.3131 
 169   0.0000       0.343536         9.3481 
 170   0.0000       0.346925         9.4403 
 171   0.0000       0.352727         9.5982 
 172   0.0000       0.356474         9.7002 
 173   0.0000       0.357211         9.7202 
 174   0.0000       0.360447         9.8083 
 175   0.0000       0.364729         9.9248 
 176   0.0000       0.369687        10.0597 
 177   0.0000       0.372113        10.1257 
 178   0.0000       0.373102        10.1526 
 179   0.0000       0.376474        10.2444 
 180   0.0000       0.383241        10.4285 
 181   0.0000       0.388309        10.5664 
 182   0.0000       0.391947        10.6654 
 183   0.0000       0.394550        10.7362 
 184   0.0000       0.397820        10.8252 
 185   0.0000       0.399970        10.8837 
 186   0.0000       0.402638        10.9563 
 187   0.0000       0.404931        11.0187 
 188   0.0000       0.409041        11.1306 
 189   0.0000       0.411514        11.1979 
 190   0.0000       0.414745        11.2858 
 191   0.0000       0.416614        11.3366 
 192   0.0000       0.420484        11.4420 
 193   0.0000       0.426840        11.6149 
 194   0.0000       0.430614        11.7176 
 195   0.0000       0.433985        11.8093 
 196   0.0000       0.437346        11.9008 
 197   0.0000       0.442135        12.0311 
 198   0.0000       0.445063        12.1108 
 199   0.0000       0.449876        12.2418 
 200   0.0000       0.452435        12.3114 
 201   0.0000       0.456488        12.4217 
 202   0.0000       0.462926        12.5969 
 203   0.0000       0.465067        12.6551 
 204   0.0000       0.470433        12.8011 
 205   0.0000       0.471379        12.8269 
 206   0.0000       0.473476        12.8839 
 207   0.0000       0.476028        12.9534 
 208   0.0000       0.480749        13.0818 
 209   0.0000       0.483584        13.1590 
 210   0.0000       0.487283        13.2597 
 211   0.0000       0.492460        13.4005 
 212   0.0000       0.495080        13.4718 
 213   0.0000       0.496594        13.5130 
 214   0.0000       0.502993        13.6871 
 215   0.0000       0.504238        13.7210 
 216   0.0000       0.506946        13.7947 
 217   0.0000       0.509108        13.8535 
 218   0.0000       0.511910        13.9298 
 219   0.0000       0.514564        14.0020 
 220   0.0000       0.516545        14.0559 
 221   0.0000       0.521089        14.1796 
 222   0.0000       0.526106        14.3161 
 223   0.0000       0.529892        14.4191 
 224   0.0000       0.531625        14.4663 
 225   0.0000       0.534971        14.5573 
 226   0.0000       0.539924        14.6921 
 227   0.0000       0.543048        14.7771 
 228   0.0000       0.544066        14.8048 
 229   0.0000       0.547267        14.8919 
 230   0.0000       0.548379        14.9222 
 231   0.0000       0.552185        15.0257 
 232   0.0000       0.555836        15.1251 
 233   0.0000       0.560779        15.2596 
 234   0.0000       0.564197        15.3526 
 235   0.0000       0.567158        15.4332 
 236   0.0000       0.573668        15.6103 
 237   0.0000       0.577332        15.7100 
 238   0.0000       0.578391        15.7388 
 239   0.0000       0.583492        15.8776 
 240   0.0000       0.585842        15.9416 
 241   0.0000       0.587918        15.9981 
 242   0.0000       0.589458        16.0400 
 243   0.0000       0.597575        16.2608 
 244   0.0000       0.600894        16.3512 
 245   0.0000       0.603489        16.4218 
 246   0.0000       0.607869        16.5410 
 247   0.0000       0.609840        16.5946 
 248   0.0000       0.615032        16.7359 
 249   0.0000       0.620301        16.8792 
 250   0.0000       0.622215        16.9313 
 251   0.0000       0.624531        16.9944 
 252   0.0000       0.628248        17.0955 
 253   0.0000       0.630818        17.1654 
 254   0.0000       0.637275        17.3411 
 255   0.0000       0.641816        17.4647 
 256   0.0000       0.650993        17.7144 
 257   0.0000       0.653247        17.7758 
 258   0.0000       0.657716        17.8974 
 259   0.0000       0.663021        18.0417 
 260   0.0000       0.666648        18.1404 
 261   0.0000       0.668362        18.1871 
 262   0.0000       0.675142        18.3716 
 263   0.0000       0.681447        18.5431 
 264   0.0000       0.683692        18.6042 
 265   0.0000       0.688410        18.7326 
 266   0.0000       0.690124        18.7792 
 267   0.0000       0.694296        18.8928 
 268   0.0000       0.701504        19.0889 
 269   0.0000       0.702469        19.1152 
[...]
  | sigma^2 in % of trace(Dij) retained ...   8.96e+00
  | sigma^2 in % of trace(Dip) retained ...   1.53e+01
  | sigma^2 in % of trace(Dpq) retained ...   1.41e-01
  | Av. % of trace(Di) retained         ...  99.998495908268
  | Av. % of trace(Dp) retained         ...  99.999999201574
  | sigma^2 in % of trace(Di) retained  ...   7.62e-07
  | sigma^2 in % of trace(Dp) retained  ...   6.19e-13
 Distributions of % trace(Dij) recovered:
  |       >= 99.9  ...   103 ( 20.6 % of all IJ-pairs)
  |   [80.0, 90.0) ...    37 (  7.4 % of all IJ-pairs)
  |   [90.0, 99.0) ...   264 ( 52.7 % of all IJ-pairs)
  |   [99.0, 99.9) ...    97 ( 19.4 % of all IJ-pairs)
 Distributions of % trace(Dip) recovered:
  |   [80.0, 90.0) ...    12 ( 10.3 % of all IP-pairs)
  |   [90.0, 99.0) ...    64 ( 54.7 % of all IP-pairs)
  |   [99.0, 99.9) ...    41 ( 35.0 % of all IP-pairs)
 Distributions of % trace(Dpq) recovered:
  |       >= 99.9  ...     5 ( 33.3 % of all PQ-pairs)
  |   [99.0, 99.9) ...    10 ( 66.7 % of all PQ-pairs)
 Distributions of % trace(Di) recovered :
  |       >= 99.9  ...    43 (100.0 % of all I-pairs )
 Distributions of % trace(Dp) recovered :
  |       >= 99.9  ...     5 (100.0 % of all P-pairs )

                       ===========================
                       1101 OF 1673 PAIRS ARE KEPT
                       ===========================

 Initial PAO correlation energy (all pairs)    ...  -2.6991969090 Eh
 Energy constituents in PAO basis (Eh):
  | Vijab(+0) ...  -2.2703880858
  | Viab (-1) ...  -0.1750602828
  | Vab  (-2) ...  -0.0573665108
  | Va   (-1) ...  -0.0000430887
  | Vija (+1) ...  -0.0723961407
  | Vij  (+2) ...  -0.0155057332
  | Via  (+0) ...  -0.1082773298
  | Vi   (+1) ...  -0.0001597371
 Initial PNO correlation energy                ...  -2.6649240461 Eh
 Energy constituents in PNO basis (Eh):
  | Vijab(+0) ...  -2.2519756830 (err=  0.0184124027)
  | Viab (-1) ...  -0.1608370277 (err=  0.0142232551)
  | Vab  (-2) ...  -0.0568932786 (err=  0.0004732322)
  | Va   (-1) ...  -0.0000247594 (err=  0.0000183293)
  | Vija (+1) ...  -0.0713926429 (err=  0.0010034978)
  | Vij  (+2) ...  -0.0154550419 (err=  0.0000506913)
  | Via  (+0) ...  -0.1081862282 (err=  0.0000911016)
  | Vi   (+1) ...  -0.0001593844 (err=  0.0000003527)
 Sum of total truncation errors ...   0.0342728629 Eh
  | Pair screening ...   0.0111548782 Eh
  | PNO truncation ...   0.0231179847 Eh

 UMP2 correlation energy (PAO) ...  -2.6942672975
  | alpha-alpha ...  -0.3879424925 (NP_aa=  905)
  | alpha-beta  ...  -1.9979666316 (NP_ab= 1648)
  | beta -beta  ...  -0.3083581734 (NP_bb=  710)
 UMP2 correlation energy (PNO) ...  -2.6596083972
  | alpha-alpha ...  -0.3759378107 (err=  0.0120046818, NP_aa=  585)
  | alpha-beta  ...  -1.9792947110 (err=  0.0186719206, NP_ab= 1076)
  | beta -beta  ...  -0.3043758755 (err=  0.0039822979, NP_bb=  458)
 Sum of total UMP2 truncation errors ...   0.0346589003 Eh
  | Pair screening ...   0.0111709655 Eh
  | PNO truncation ...   0.0234879349 Eh
 Timing for NEV-PNO construction (sec.)
  | Intermediate construction  ..           50.297
  | Amplitude construction     ..           65.595
  | Total time                 ..          115.892
 Making pair pair interaction lists ...      ok
 Total size for 2-ext PNO integrals ...     11.2 MB
Checking the number of SOMO/SOMO doubles PNOs ... 
 #Truncate: (72, 72)[169] -> [87] .. 
 #Truncate: (73, 73)[174] -> [87] .. 
 #Truncate: (74, 74)[170] -> [87] .. 
 #Truncate: (75, 75)[171] -> [87] .. 
 #Truncate: (76, 76)[173] -> [87] .. 

--------------------------------
LOCAL RI TRANSFORMATION (VABPAO)
--------------------------------

Number of PAOs:    1030
Basis functions:   1025 (343 shells)
Aux. functions:    2424 (644 shells)

Processing maps (0.0 sec)
Average map sizes:
   Aux shells -> PAOs           1030.0
   PAOs       -> AO shells       343.0

Calculating integrals (192.4 sec, 37370.165 MB)
Finished
-----------------------------
LOCAL RI TRANSFORMATION (IJV)
-----------------------------

Orbital window:      29 to 76
Basis functions:   1025 (343 shells)
Aux. functions:    2424 (644 shells)

Processing maps (0.0 sec)
Average map sizes:
   Aux shells -> MOs(i)           46.2
   Aux shells -> MOs(j)           48.0
   MOs        -> AO shells       338.4

Calculating integrals (23.1 sec, 41.125 MB)
Sorting integrals (0.3 sec, 41.098 MB)
Total time for the integral transformation: 23.5 sec


-------------------------------------
Pair Pair Term precalculation with     
RI-(ij|mn) and (im|jn) transformation  
ON THE FLY                             
-------------------------------------

   IBatch   1 (of   2)              ... done (  970.410 sec)
   IBatch   2 (of   2)              ... done ( 1366.645 sec)
Total EXT                           ...        2337.056 sec

---------------------
RI-PNO TRANSFORMATION
---------------------

Total Number of PNOs                   ... 34902
Total Number of IJ-PNOs                ... 30719
Total Number of IP-PNOs                ...  3224
Total Number of PQ-PNOs                ...   959
Total Number of IJ-pairs               ...   959
Total Number of PI-pairs               ...   117
Total Number of PQ-pairs               ...    25
Average number of PNOs per pair        ...    31
Maximal number of PNOs per pair        ...    87
>> Statistics for ij-pairs..
   #pairs with  1 -  5 PNOs   :    0
   #pairs with  6 - 10 PNOs   :    0
   #pairs with 11 - 15 PNOs   :   38
   #pairs with 16 - 20 PNOs   :  234
   #pairs with 21 - 25 PNOs   :  154
   #pairs with 26 - 30 PNOs   :  170
   #pairs with 31 - 35 PNOs   :   66
   #pairs with 36 - 40 PNOs   :   48
   #pairs with 41 - 45 PNOs   :   46
   #pairs with 46 - 50 PNOs   :   30
   #pairs with 51 - 55 PNOs   :   32
   #pairs with 56 - 60 PNOs   :   57
   #pairs with 61 - 65 PNOs   :   73
   #pairs with 66 - 70 PNOs   :    8
   #pairs with 76 - 80 PNOs   :    3
>> Statistics for ip-pairs..
   #pairs with  1 -  5 PNOs   :    0
   #pairs with  6 - 10 PNOs   :    1
   #pairs with 11 - 15 PNOs   :   15
   #pairs with 16 - 20 PNOs   :    2
   #pairs with 21 - 25 PNOs   :   29
   #pairs with 26 - 30 PNOs   :   10
   #pairs with 31 - 35 PNOs   :   47
   #pairs with 36 - 40 PNOs   :   13
   #pairs with 41 - 45 PNOs   :    0
   #pairs with 46 - 50 PNOs   :    0
>> Statistics for pq-pairs..
   #pairs with  1 -  5 PNOs   :    0
   #pairs with  6 - 10 PNOs   :    0
   #pairs with 11 - 15 PNOs   :    0
   #pairs with 16 - 20 PNOs   :    0
   #pairs with 21 - 25 PNOs   :   12
   #pairs with 26 - 30 PNOs   :    8
   #pairs with 31 - 35 PNOs   :    0
   #pairs with 36 - 40 PNOs   :    0
   #pairs with 41 - 45 PNOs   :    0
   #pairs with 46 - 50 PNOs   :    0
   #pairs with 86 - 90 PNOs   :    5

Generation of (ij|ab)[P] integrals            ... on
Generation of (ia|bc)[P],(ja|bc)[P] integrals ... on
Storage of 3 and 4 external integrals         ... on
Generation of ALL (ka|bc)[P] integrals        ... on
Keep RI integrals in memory                   ... off

Ibatch:  1 (of  1)
Starting 2-4 index PNO integral generation ... done

Timings:
Total PNO integral transformation time     ...       2209.500 sec
Size of the 3-external file                ...       295 MB
Size of the 4-external file                ...      2026 MB
Size of the IKJL file                      ...        18 MB
Size of the all 3-external file            ...      7102 MB
Size of the 1-external file                ...        22 MB

Size of the PAO/PNO coefficient matrices   ...     227.0 MB

Making pair/pair overlap matrices          ... done (  346.124 sec)
Size of the pair overlap file              ...    2489.0 MB
Total # unrestricted pairs ...       2119
  # of alpha-alpha pairs   ...        585
  # of alpha-beta pairs    ...       1076
  # of beta-beta pairs     ...        458
Constructing the guess amplitudes          ... done (    0.599 sec)

-------------------------
FINAL STARTUP INFORMATION
-------------------------

E(0)                                       ...  -3028.428833209
E(SL-UMP2 in NEV-PNO space)                ...     -2.695216867
Initial E(tot)                             ...  -3031.124050076
<T|T>                                      ...      0.537595992
Number of unrestricted pairs included      ... 2119
Total number of pairs                      ... 4095
----------------------------------------------------------
                     OPEN-SHELL COUPLED CLUSTER ITERATIONS
----------------------------------------------------------

Number of PNO amplitudes to be optimized        ...          2172326
Number of canonical amplitudes for strong pairs ...       1913893789
Untruncated number of canonical amplitudes      ...       3698645738

Iter       E(tot)           E(Corr)          Delta-E          Residual     Time
  0  -3031.131245135     -2.666803456      0.028413411      0.020857224 1706.74
                           *** Turning on DIIS ***
  1  -3031.241338943     -2.776897264     -0.110093808      0.009112197 1673.66
  2  -3031.305672400     -2.841230721     -0.064333457      0.008285108 1653.43
  3  -3031.326680146     -2.862238467     -0.021007745      0.003005028 1948.68
  4  -3031.333791973     -2.869350294     -0.007111828      0.002658109 1951.72
  5  -3031.337577296     -2.873135617     -0.003785323      0.001722170 1964.31
  6  -3031.338960880     -2.874519201     -0.001383584      0.000886593 1963.40
  7  -3031.339722594     -2.875280915     -0.000761713      0.000466523 1961.51
  8  -3031.339884802     -2.875443123     -0.000162208      0.000216110 1967.18
  9  -3031.339935941     -2.875494262     -0.000051139      0.000178583 1957.17
 10  -3031.339930297     -2.875488618      0.000005644      0.000105242 1962.80
 11  -3031.339942032     -2.875500352     -0.000011735      0.000078336 1960.45
 12  -3031.339948600     -2.875506921     -0.000006569      0.000034722 1958.32
 13  -3031.339951051     -2.875509372     -0.000002451      0.000016959 1960.63
 14  -3031.339952106     -2.875510427     -0.000001054      0.000007783 1961.60
               --- The CCSD iterations have converged ---

E(0)                                       ...  -3028.428833209
E(CORR)(strong-pairs)                      ...     -2.875510427
E(CORR)(weak-pairs)                        ...     -0.035608470
E(CORR)(corrected)                         ...     -2.911118897
E(TOT)                                     ...  -3031.339952106
Singles norm <S|S>**1/2                    ...      0.195768665 ( 0.068332214, 0.127436451)  
T1 diagnostic                              ...      0.020522132                              
<S**2>(linearized)                         ...      8.7507825 (ideal value:      8.7500000)

----------------------
LARGEST PNO AMPLITUDES
----------------------
  71a-> 77a  71b-> 77b       0.070183
  50b-> 73b  -1b-> -1b       0.054752
  51b-> 73b  -1b-> -1b       0.052352
  48b-> 72b  -1b-> -1b       0.050704
  71a-> 78a  71b-> 78b       0.050147
  29a-> 77a  -1a-> -1a       0.048043
  29b-> 77b  -1b-> -1b       0.046448
  48b-> 74b  -1b-> -1b       0.046039
  62a-> 77a  62b-> 77b       0.045531
  48b-> 75b  -1b-> -1b       0.044932
  66a-> 77a  66b-> 77b       0.044853
  70a-> 77a  70b-> 77b       0.043250
  58a-> 77a  58b-> 77b       0.042820
  61a-> 77a  61b-> 77b       0.042670
  57a-> 78a  57b-> 78b       0.042316
  53a-> 77a  53b-> 77b       0.042074

Total # unrestricted pairs ...       1144
  # of alpha-alpha pairs   ...        320
  # of alpha-beta pairs    ...        572
  # of beta-beta pairs     ...        252

-------------------------------------------
DLPNO BASED TRIPLES CORRECTION
-------------------------------------------

Singles multiplier          ...  1.000000
Fragment selection                          .... not used
TCutTNO                     ... 1.000e-09
TCutMP2Pairs                ... 1.000e-05
TCutDOStrong                ... 2.000e-02
TCutMKNStrong               ... 1.000e-02
TCutDOWeak                  ... 4.000e-02
TCutMKNWeak                 ... 1.000e-01
NTCutTNO                    ... 1

Number of Triples that are to be computed         ...     33454

 . . . . . . . . .
10% done  
20% done  
30% done  
40% done  
50% done  
60% done  
70% done  
80% done  
90% done  
          Batch   1   done (  15412.115 sec)

Triples-Correction TCutTNO=   1.000e-09 (NWeakPairs = 0  1  2  3)  -0.118644261629   -0.001923711050    0.000000000000    0.000000000000
Triples-Correction  -0.120567972680

Triples timings:
Total time                      ... 16054.717 sec

Triples List generation         ...     0.001 sec
TNO generation                  ...   642.326 sec
Pair density generation         ...     0.104 sec
Look up tables                  ...     0.112 sec
Generating 3-index integrals    ...  9663.818 sec
Make 4-ind.int. from 3-ind.int  ...     3.638 sec
Projecting amplitudes (D + S)   ...  5477.509 sec
Sorting integrals for spin cases...    55.283 sec
Calculate W0/W1                 ...   170.851 sec
Energy contr. (sum over a,b,c)  ...    40.873 sec

Everything after 3-index        ...  5883.403 sec

Energy contribution AAA         ...    26.073 sec
Energy contribution AAB         ...   118.029 sec
Energy contribution ABB         ...   108.248 sec
Energy contribution BBB         ...    14.700 sec
prep                ...     3.269 sec
makeTTNO            ...  5420.560 sec
copyij              ...     0.138 sec
copyil              ...     4.193 sec
transposeij         ...     0.081 sec
newMatInDoubleProj  ...    54.360 sec
BlasInDoubleProj    ...  2958.878 sec
ProjSingles         ...    46.624 sec
ProjDoubles         ...  5430.884 sec
overall Doubles for projection      ... 2992975
used Doubles for projection         ... 2992975


Number of Triples   (0, 1, 2, 3 weak pairs; overall):  16652   11057       0       0  ( 27709)
Number of Atoms     (0, 1, 2, 3 weak pairs; overall):   19.3    15.0     0.0     0.0  (    29)
Number of PAOs      (0, 1, 2, 3 weak pairs; overall):  751.9   604.4     0.0     0.0  (  1025)
Number of AuxFcns   (0, 1, 2, 3 weak pairs; overall):  925.5   578.2     0.0     0.0  (  2424)
Number of TNOs (0, 1, 2, 3 weak pairs         ):   80.3    58.0     0.0     0.0
Aver. Number of NTNO, Atoms, PAOs, AuxFcns / Triples:  27709    71.4    17.6   693.0   786.9

Triples Correction (T)                     ...     -0.120567973
    alpha-alpha-alpha ... -0.003961828 (  3.3%)
    alpha-alpha-beta  ... -0.056582315 ( 46.9%)
    alpha-beta -beta  ... -0.055843269 ( 46.3%)
    beta -beta -beta  ... -0.004180561 (  3.5%)
Final correlation energy                   ...     -3.031686870
E(CCSD)                                    ...  -3031.339952106
E(CCSD(T))                                 ...  -3031.460520079

----------------------------
STATISTICS FOR PAIR-ENERGIES
----------------------------
Minimum, maximum and average ratios of UMP and CCSD pair-energies ... 0.54, 1.43, 1.02


------------------------------------------------------------------------------- 
                                     TIMINGS                                   
------------------------------------------------------------------------------- 


Total execution time                   ...    53083.930 sec

Localization of occupied MO's          ...       10.292 sec (  0.0%)
Fock Matrix Formation                  ...     1365.712 sec (  2.6%)
Differential overlap integrals         ...        1.555 sec (  0.0%)
Organizing maps                        ...        1.670 sec (  0.0%)
RI 3-index integral generations        ...      280.012 sec (  0.5%)
RI-PNO integral transformation         ...     4918.736 sec (  9.3%)
Initial Guess                          ...     1833.038 sec (  3.5%)
DIIS Solver                            ...       18.401 sec (  0.0%)
State Vector Update                    ...        0.743 sec (  0.0%)
Sigma-vector construction              ...    28551.603 sec ( 53.8%)
  <0|H|D>                              ...        0.032 sec (  0.0% of sigma)
  <D|H|D>(0-ext)                       ...     4861.659 sec ( 17.0% of sigma)
  <D|H|D>(2-ext Fock)                  ...        1.734 sec (  0.0% of sigma)
  <D|H|D>(2-ext)                       ...     4142.911 sec ( 14.5% of sigma)
  <D|H|D>(4-ext)                       ...      166.506 sec (  0.6% of sigma)
  <D|H|D>(4-ext-corr)                  ...     1032.896 sec (  3.6% of sigma)
  CCSD doubles correction              ...      493.599 sec (  1.7% of sigma)
  <S|H|S>                              ...      910.192 sec (  3.2% of sigma)
  <S|H|D>(1-ext)                       ...      305.807 sec (  1.1% of sigma)
  <D|H|S>(1-ext)                       ...        0.983 sec (  0.0% of sigma)
  <S|H|D>(3-ext)                       ...       21.354 sec (  0.1% of sigma)
  CCSD singles correction              ...        0.005 sec (  0.0% of sigma)
  Fock-dressing                        ...     8397.318 sec ( 29.4% of sigma)
  Singles amplitudes                   ...      127.702 sec (  0.4% of sigma)
  (ik|jl)-dressing                     ...     6408.262 sec ( 22.4% of sigma)
  (ij|ab),(ia|jb)-dressing             ...     1644.857 sec (  5.8% of sigma)
  Pair energies                        ...        0.161 sec (  0.0% of sigma)
Total Time for computing (T)           ...    16455.622 sec ( 31.0% of ALL)


-------------------------   --------------------
FINAL SINGLE POINT ENERGY     -3031.460520078533
-------------------------   --------------------


                            ***************************************
                            *     ORCA property calculations      *
                            ***************************************

                                    ---------------------
                                    Active property flags
                                    ---------------------
   (+) Dipole Moment


------------------------------------------------------------------------------
                       ORCA ELECTRIC PROPERTIES CALCULATION
------------------------------------------------------------------------------

Dipole Moment Calculation                       ... on
Quadrupole Moment Calculation                   ... off
Polarizability Calculation                      ... off
GBWName                                         ... simple-grid-195-280-b3lyp_d3bj-631gd-gas-singlepoint-DLPNO_CCSD_T1-NormalPNO-augtz-gas.gbw
Electron density file                           ... simple-grid-195-280-b3lyp_d3bj-631gd-gas-singlepoint-DLPNO_CCSD_T1-NormalPNO-augtz-gas.scfp.tmp
The origin for moment calculation is the CENTER OF MASS  = ( 0.322754,  0.046181 -0.007953)

-------------
DIPOLE MOMENT
-------------
                                X             Y             Z
Electronic contribution:     42.96777       6.33210      -1.30008
Nuclear contribution   :    -48.09028      -6.88104       1.18499
                        -----------------------------------------
Total Dipole Moment    :     -5.12250      -0.54894      -0.11509
                        -----------------------------------------
Magnitude (a.u.)       :      5.15312
Magnitude (Debye)      :     13.09819



--------------------
Rotational spectrum 
--------------------
 
Rotational constants in cm-1:     0.019728     0.010359     0.009894 
Rotational constants in MHz :   591.431911   310.558337   296.607130 

 Dipole components along the rotational axes: 
x,y,z [a.u.] :    -5.123108     0.525906    -0.178359 
x,y,z [Debye]:   -13.021906     1.336747    -0.453354 

 

Timings for individual modules:

Sum of individual times         ...    74273.325 sec (=1237.889 min)
GTO integral calculation        ...       13.229 sec (=   0.220 min)   0.0 %
SCF iterations                  ...    21157.767 sec (= 352.629 min)  28.5 %
MDCI module                     ...    53102.329 sec (= 885.039 min)  71.5 %
                             ****ORCA TERMINATED NORMALLY****
TOTAL RUN TIME: 0 days 20 hours 37 minutes 55 seconds 861 msec
