
                                 *****************
                                 * O   R   C   A *
                                 *****************

           --- An Ab Initio, DFT and Semiempirical electronic structure package ---

                  #######################################################
                  #                        -***-                        #
                  #          Department of theory and spectroscopy      #
                  #               Directorship: Frank Neese             #
                  #        Max Planck Institute fuer Kohlenforschung    #
                  #                Kaiser Wilhelm Platz 1               #
                  #                 D-45470 Muelheim/Ruhr               #
                  #                      Germany                        #
                  #                                                     #
                  #                  All rights reserved                #
                  #                        -***-                        #
                  #######################################################


                         Program Version 4.1.2  - RELEASE  -


 With contributions from (in alphabetic order):
   Daniel Aravena         : Magnetic Properties
   Michael Atanasov       : Ab Initio Ligand Field Theory
   Alexander A. Auer      : GIAO ZORA
   Ute Becker             : Parallelization
   Giovanni Bistoni       : ED, Open-shell LED
   Martin Brehm           : Molecular dynamics
   Dmytro Bykov           : SCF Hessian
   Vijay G. Chilkuri      : MRCI spin determinant printing
   Dipayan Datta          : RHF DLPNO-CCSD density
   Achintya Kumar Dutta   : EOM-CC, STEOM-CC
   Dmitry Ganyushin       : Spin-Orbit,Spin-Spin,Magnetic field MRCI
   Miquel Garcia          : C-PCM Hessian
   Yang Guo               : DLPNO-NEVPT2, CIM, IAO-localization
   Andreas Hansen         : Spin unrestricted coupled pair/coupled cluster methods
   Benjamin Helmich-Paris : CASSCF linear response (MC-RPA)
   Lee Huntington         : MR-EOM, pCC
   Robert Izsak           : Overlap fitted RIJCOSX, COSX-SCS-MP3, EOM
   Christian Kollmar      : KDIIS, OOCD, Brueckner-CCSD(T), CCSD density
   Simone Kossmann        : Meta GGA functionals, TD-DFT gradient, OOMP2, MP2 Hessian
   Martin Krupicka        : AUTO-CI
   Lucas Lang             : DCDCAS
   Dagmar Lenk            : GEPOL surface, SMD
   Dimitrios Liakos       : Extrapolation schemes; parallel MDCI
   Dimitrios Manganas     : ROCIS; embedding schemes
   Dimitrios Pantazis     : SARC Basis sets
   Taras Petrenko         : DFT Hessian,TD-DFT gradient, ASA, ECA, R-Raman, ABS, FL, XAS/XES, NRVS
   Peter Pinski           : DLPNO-MP2, DLPNO-MP2 Gradient
   Christoph Reimann      : Effective Core Potentials
   Marius Retegan         : Local ZFS, SOC
   Christoph Riplinger    : Optimizer, TS searches, QM/MM, DLPNO-CCSD(T), (RO)-DLPNO pert. Triples
   Tobias Risthaus        : Range-separated hybrids, TD-DFT gradient, RPA, STAB
   Michael Roemelt        : Restricted open shell CIS
   Masaaki Saitow         : Open-shell DLPNO
   Barbara Sandhoefer     : DKH picture change effects
   Avijit Sen             : IP-ROCIS
   Kantharuban Sivalingam : CASSCF convergence, NEVPT2, FIC-MRCI
   Bernardo de Souza      : ESD, SOC TD-DFT
   Georgi Stoychev        : AutoAux, RI-MP2 NMR
   Willem Van den Heuvel  : Paramagnetic NMR
   Boris Wezisla          : Elementary symmetry handling
   Frank Wennmohs         : Technical directorship


 We gratefully acknowledge several colleagues who have allowed us to
 interface, adapt or use parts of their codes:
   Stefan Grimme, W. Hujo, H. Kruse,             : VdW corrections, initial TS optimization,
                  C. Bannwarth                     DFT functionals, gCP, sTDA/sTD-DF
   Ed Valeev                                     : LibInt (2-el integral package), F12 methods
   Garnet Chan, S. Sharma, J. Yang, R. Olivares  : DMRG
   Ulf Ekstrom                                   : XCFun DFT Library
   Mihaly Kallay                                 : mrcc  (arbitrary order and MRCC methods)
   Andreas Klamt, Michael Diedenhofen            : otool_cosmo (COSMO solvation model)
   Jiri Pittner, Ondrej Demel                    : Mk-CCSD
   Frank Weinhold                                : gennbo (NPA and NBO analysis)
   Christopher J. Cramer and Donald G. Truhlar   : smd solvation model
   Lars Goerigk                                  : TD-DFT with DH, B97 family of functionals
   V. Asgeirsson, H. Jonsson                     : NEB implementation
   FAccTs GmbH                                   : IRC, NEB, NEB-TS, Multilevel


 Your calculation uses the libint2 library for the computation of 2-el integrals
 For citations please refer to: http://libint.valeyev.net

 This ORCA versions uses:
   CBLAS   interface :  Fast vector & matrix operations
   LAPACKE interface :  Fast linear algebra routines
   SCALAPACK package :  Parallel linear algebra routines


----- Orbital basis set information -----
Your calculation utilizes the basis: aug-cc-pVTZ 
    H, B-Ne : Obtained from the ccRepo (grant-hill.group.shef.ac.uk/ccrepo) Feb. 2017
              R. A. Kendall, T. H. Dunning, Jr., R. J. Harrison, J. Chem. Phys. 96, 6796 (1992)
         He : Obtained from the ccRepo (grant-hill.group.shef.ac.uk/ccrepo) Feb. 2017
              D. E. Woon, T. H. Dunning, Jr., J. Chem. Phys. 100, 2975 (1994)
  Li-Be, Na : Obtained from the ccRepo (grant-hill.group.shef.ac.uk/ccrepo) Feb. 2017
              B. P. Prascher, D. E. Woon, K. A. Peterson, T. H. Dunning, Jr., A. K. Wilson, Theor. Chem. Acc. 128, 69 (2011)
         Mg : Obtained from the Peterson Research Group Website (tyr0.chem.wsu.edu/~kipeters) Feb. 2017
              B. P. Prascher, D. E. Woon, K. A. Peterson, T. H. Dunning, Jr., A. K. Wilson, Theor. Chem. Acc. 128, 69 (2011)
      Al-Ar : Obtained from the ccRepo (grant-hill.group.shef.ac.uk/ccrepo) Feb. 2017
              D. E. Woon, T. H. Dunning, Jr., J. Chem. Phys. 98, 1358 (1993)
      Sc-Zn : Obtained from the ccRepo (grant-hill.group.shef.ac.uk/ccrepo) Feb. 2017
              N. B. Balabanov, K. A. Peterson, J. Chem. Phys. 123, 064107 (2005)
              N. B. Balabanov, K. A. Peterson, J. Chem. Phys. 125, 074110 (2006)
      Ga-Kr : Obtained from the ccRepo (grant-hill.group.shef.ac.uk/ccrepo) Feb. 2017
              A. K. Wilson, D. E. Woon, K. A. Peterson, T. H. Dunning, Jr., J. Chem. Phys. 110, 7667 (1999)
     Ag, Au : Obtained from the Peterson Research Group Website (tyr0.chem.wsu.edu/~kipeters) Feb. 2017
              K. A. Peterson, C. Puzzarini, Theor. Chem. Acc. 114, 283 (2005)

----- AuxJ basis set information -----
Your calculation utilizes the AutoAux generation procedure.
  G. L. Stoychev, A. A. Auer, F. Neese, J. Chem. Theory Comput. 13, 554 (2017)

----- AuxC basis set information -----
Your calculation utilizes the auxiliary basis: aug-cc-pVTZ/C 
  H-He, B-F, Al-Ar, Ga-Kr : Obtained from the EMSL Basis Set Exchange (bse.pnl.gov) Feb. 2017
                            F. Weigend, A. Kohn, C. Hattig, J. Chem. Phys. 116, 3175 (2002)
                   Be, Mg : Obtained from the TURBOMOLE 7.0 basis set library
                            C. Haettig, Phys. Chem. Chem. Phys. 7, 59 (2005)
                       Ne : Obtained from the EMSL Basis Set Exchange (bse.pnl.gov) Feb. 2017
                            C. Haettig, Phys. Chem. Chem. Phys. 7, 59 (2005)
                            F. Weigend, A. Kohn, C. Hattig, J. Chem. Phys. 116, 3175 (2002)
                    Sc-Zn : Obtained from the EMSL Basis Set Exchange (bse.pnl.gov) Feb. 2017
                            J. G. Hill, J. A. Platts, J. Chem. Phys. 128, 044104 (2008)

----- AuxJK basis set information -----
Your calculation utilizes the AutoAux generation procedure.
  G. L. Stoychev, A. A. Auer, F. Neese, J. Chem. Theory Comput. 13, 554 (2017)

================================================================================
                                        WARNINGS
                       Please study these warnings very carefully!
================================================================================


WARNING: your system is open-shell and RHF/RKS was chosen
  ===> : WILL SWITCH to UHF/UKS


WARNING: MDCI localization with Augmented Hessian Foster-Boys
  ===> : Switching off randomization!

WARNING: Post HF methods need fully converged wavefunctions
  ===> : Setting SCFConvForced true
         You can overwrite this default with %scf ConvForced false 


INFO   : the flag for use of LIBINT has been found!

================================================================================
                                       INPUT FILE
================================================================================
NAME = simple-grid-210-295-b3lyp_d3bj-631gd-gas-singlepoint-DLPNO_CCSD_T1-NormalPNO-augtz-gas.inp
|  1> ! aug-cc-pVTZ aug-cc-pVTZ/C DLPNO-CCSD(T1) TightSCF NormalPNO UNO MiniPrint AutoAux
|  2> %pal nproc 10 end
|  3> %maxcore 20000
|  4> %mdci
|  5>      density none
|  6> end
|  7> 
|  8> * xyz 0 6
|  9>  O     -0.29690000     -0.18991200     -0.46843400
| 10>  C     -1.14010100     -1.13033000     -0.21099900
| 11>  C     -2.66043300     -0.20045200      0.89982000
| 12>  C     -3.09456500      0.66255400     -0.08253900
| 13>  C     -4.20621900      0.30943000     -1.01682600
| 14> Fe      1.54783100      0.17455900     -0.10366200
| 15> Cl      1.87888400      2.09549300     -1.09691600
| 16>  C     -2.40367800      1.96285600     -0.30084700
| 17> Cl      2.54667700     -1.57226300     -0.98394300
| 18> Cl      1.83600400      0.27994000      2.07651900
| 19>  H     -3.26724100     -1.09271300      1.04972500
| 20>  H     -2.90072100      2.58317800     -1.04988800
| 21>  H     -2.28994500      2.53178600      0.62785500
| 22>  H     -1.37914100      1.74069900     -0.64861200
| 23>  H     -5.03893400      1.00550500     -0.84246800
| 24>  H     -3.90953700      0.44759200     -2.06407800
| 25>  H     -4.57708000     -0.70785300     -0.87409100
| 26>  C     -1.90974900      0.31202200      2.11277200
| 27>  H     -2.49096400      1.09906300      2.60759100
| 28>  H     -1.74771600     -0.48246800      2.84277400
| 29>  H     -0.93512700      0.73192400      1.85400000
| 30>  C     -0.74852800     -2.14474900      0.84849400
| 31>  H     -1.58577800     -2.77213800      1.16112000
| 32>  H      0.00628700     -2.78508400      0.37162400
| 33>  H     -0.27646800     -1.67581700      1.71087100
| 34>  C     -1.83658200     -1.71557700     -1.42147500
| 35>  H     -1.11556400     -2.39885700     -1.88828800
| 36>  H     -2.72911400     -2.28826200     -1.15942600
| 37>  H     -2.07882500     -0.94422300     -2.15268000
| 38> *
| 39> 
| 40> 
| 41>                          ****END OF INPUT****
================================================================================

                       ****************************
                       * Single Point Calculation *
                       ****************************

---------------------------------
CARTESIAN COORDINATES (ANGSTROEM)
---------------------------------
  O     -0.296900   -0.189912   -0.468434
  C     -1.140101   -1.130330   -0.210999
  C     -2.660433   -0.200452    0.899820
  C     -3.094565    0.662554   -0.082539
  C     -4.206219    0.309430   -1.016826
  Fe     1.547831    0.174559   -0.103662
  Cl     1.878884    2.095493   -1.096916
  C     -2.403678    1.962856   -0.300847
  Cl     2.546677   -1.572263   -0.983943
  Cl     1.836004    0.279940    2.076519
  H     -3.267241   -1.092713    1.049725
  H     -2.900721    2.583178   -1.049888
  H     -2.289945    2.531786    0.627855
  H     -1.379141    1.740699   -0.648612
  H     -5.038934    1.005505   -0.842468
  H     -3.909537    0.447592   -2.064078
  H     -4.577080   -0.707853   -0.874091
  C     -1.909749    0.312022    2.112772
  H     -2.490964    1.099063    2.607591
  H     -1.747716   -0.482468    2.842774
  H     -0.935127    0.731924    1.854000
  C     -0.748528   -2.144749    0.848494
  H     -1.585778   -2.772138    1.161120
  H      0.006287   -2.785084    0.371624
  H     -0.276468   -1.675817    1.710871
  C     -1.836582   -1.715577   -1.421475
  H     -1.115564   -2.398857   -1.888288
  H     -2.729114   -2.288262   -1.159426
  H     -2.078825   -0.944223   -2.152680

----------------------------
CARTESIAN COORDINATES (A.U.)
----------------------------
  NO LB      ZA    FRAG     MASS         X           Y           Z
   0 O     8.0000    0    15.999   -0.561060   -0.358882   -0.885212
   1 C     6.0000    0    12.011   -2.154479   -2.136014   -0.398730
   2 C     6.0000    0    12.011   -5.027490   -0.378799    1.700413
   3 C     6.0000    0    12.011   -5.847880    1.252046   -0.155976
   4 C     6.0000    0    12.011   -7.948602    0.584738   -1.921523
   5 Fe   26.0000    0    55.850    2.924977    0.329869   -0.195893
   6 Cl   17.0000    0    35.453    3.550576    3.959908   -2.072871
   7 C     6.0000    0    12.011   -4.542293    3.709260   -0.568518
   8 Cl   17.0000    0    35.453    4.812522   -2.971146   -1.859383
   9 Cl   17.0000    0    35.453    3.469545    0.529010    3.924052
  10 H     1.0000    0     1.008   -6.174191   -2.064928    1.983693
  11 H     1.0000    0     1.008   -5.481568    4.881499   -1.984001
  12 H     1.0000    0     1.008   -4.327369    4.784382    1.186474
  13 H     1.0000    0     1.008   -2.606199    3.289444   -1.225699
  14 H     1.0000    0     1.008   -9.522205    1.900129   -1.592034
  15 H     1.0000    0     1.008   -7.387954    0.845826   -3.900542
  16 H     1.0000    0     1.008   -8.649428   -1.337648   -1.651793
  17 C     6.0000    0    12.011   -3.608903    0.589636    3.992560
  18 H     1.0000    0     1.008   -4.707240    2.076928    4.927633
  19 H     1.0000    0     1.008   -3.302705   -0.911732    5.372064
  20 H     1.0000    0     1.008   -1.767134    1.383136    3.503552
  21 C     6.0000    0    12.011   -1.414513   -4.052988    1.603421
  22 H     1.0000    0     1.008   -2.996686   -5.238582    2.194199
  23 H     1.0000    0     1.008    0.011881   -5.263046    0.702268
  24 H     1.0000    0     1.008   -0.522449   -3.166835    3.233078
  25 C     6.0000    0    12.011   -3.470637   -3.241971   -2.686198
  26 H     1.0000    0     1.008   -2.108110   -4.533183   -3.568347
  27 H     1.0000    0     1.008   -5.157278   -4.324189   -2.190998
  28 H     1.0000    0     1.008   -3.928410   -1.784323   -4.067976



           ************************************************************
           *        Program running with 10 parallel MPI-processes    *
           *              working on a common directory               *
           ************************************************************


           ************************************************************
           *        Program running with 10 parallel MPI-processes    *
           *              working on a common directory               *
           ************************************************************

Diagonalization of the overlap matrix:
Smallest eigenvalue                        ... 7.111e-07
Time for diagonalization                   ...    0.334 sec
Threshold for overlap eigenvalues          ... 1.000e-08
Number of eigenvalues below threshold      ... 0
Time for construction of square roots      ...    0.276 sec
Total time needed                          ...    0.616 sec

-------------------
DFT GRID GENERATION
-------------------

General Integration Accuracy     IntAcc      ...  4.340
Radial Grid Type                 RadialGrid  ... Gauss-Chebyshev
Angular Grid (max. acc.)         AngularGrid ... Lebedev-110
Angular grid pruning method      GridPruning ... 3 (G Style)
Weight generation scheme         WeightScheme... Becke
Basis function cutoff            BFCut       ...    1.0000e-11
Integration weight cutoff        WCut        ...    1.0000e-14
Grids for H and He will be reduced by one unit

# of grid points (after initial pruning)     ...  36112 (   0.0 sec)
# of grid points (after weights+screening)   ...  32398 (   0.1 sec)
nearest neighbour list constructed           ...    0.0 sec
Grid point re-assignment to atoms done       ...    0.0 sec
Grid point division into batches done        ...    0.0 sec
Reduced shell lists constructed in    0.2 sec

Total number of grid points                  ...    32398
Total number of batches                      ...      522
Average number of points per batch           ...       62
Average number of grid points per atom       ...     1117
Average number of shells per batch           ...   291.11 (84.87%)
Average number of basis functions per batch  ...   863.89 (84.28%)
Average number of large shells per batch     ...   237.74 (81.67%)
Average number of large basis fcns per batch ...   705.26 (81.64%)
Maximum spatial batch extension              ...   3.41,  4.32,  5.73 au
Average spatial batch extension              ...   0.17,  0.18,  0.18 au

Time for grid setup =    0.360 sec

Loading Hartree-Fock densities                     ... done
Calculating cut-offs                               ... done
Setting up the integral package                    ... done
Initializing the effective Hamiltonian             ... done
Starting the Coulomb interaction                   ... done (   1.1 sec)
Reading the grid                                   ... done
Mapping shells                                     ... done
Starting the XC term evaluation                    ... done (   0.9 sec)
Transforming the Hamiltonian                       ... done (   0.2 sec)
Diagonalizing the Hamiltonian                      ... done (   0.4 sec)
Back transforming the eigenvectors                 ... done (   0.1 sec)
Now organizing SCF variables                       ... done
--------------
SCF ITERATIONS
--------------
ITER       Energy         Delta-E        Max-DP      RMS-DP      [F,P]     Damp
               ***  Starting incremental Fock matrix formation  ***
  0  -3027.5693549229   0.000000000000 0.27348398  0.00105285  0.2615911 0.7000
  1  -3027.8195742914  -0.250219368429 0.21352296  0.00082820  0.1584717 0.7000
                               ***Turning on DIIS***
  2  -3027.9877844316  -0.168210140193 0.15346103  0.00061127  0.1095636 0.7000
  3  -3029.5921796071  -1.604395175522 0.34476930  0.00152913  0.0820355 0.0000
  4  -3028.2917552845   1.300424322621 0.04759805  0.00021585  0.0210007 0.0000
  5  -3028.4052153884  -0.113460103908 0.03974522  0.00017086  0.0115664 0.0000
  6  -3028.4527658114  -0.047550423042 0.02121009  0.00007246  0.0056609 0.0000
  7  -3028.4690126146  -0.016246803223 0.00846572  0.00003318  0.0034737 0.0000
  8  -3028.4558065940   0.013206020638 0.00569964  0.00001889  0.0015904 0.0000
  9  -3028.4525604933   0.003246100713 0.00339191  0.00001119  0.0007293 0.0000
 10  -3028.4409473044   0.011613188900 0.00085517  0.00000305  0.0003444 0.0000
 11  -3028.4455238621  -0.004576557739 0.00041846  0.00000163  0.0000903 0.0000
 12  -3028.4434127643   0.002111097847 0.00027964  0.00000135  0.0000225 0.0000
 13  -3028.4435579031  -0.000145138837 0.00127511  0.00000258  0.0000104 0.0000
 14  -3028.4436050294  -0.000047126283 0.00045221  0.00000221  0.0000032 0.0000
 15  -3028.4435265576   0.000078471802 0.00097623  0.00000239  0.0000021 0.0000
 16  -3028.4435618201  -0.000035262528 0.00053690  0.00000195  0.0000017 0.0000
                            ***DIIS convergence achieved***

               *****************************************************
               *                     SUCCESS                       *
               *           SCF CONVERGED AFTER  17 CYCLES          *
               *****************************************************

Total Energy       :        -3028.44357689 Eh          -82408.13928 eV
  Last Energy change         ...   -1.5072e-05  Tolerance :   1.0000e-08
  Last MAX-Density change    ...    1.0596e-03  Tolerance :   1.0000e-07
             **** THE GBW FILE WAS UPDATED (simple-grid-210-295-b3lyp_d3bj-631gd-gas-singlepoint-DLPNO_CCSD_T1-NormalPNO-augtz-gas.gbw) ****
             **** DENSITY FILE WAS UPDATED (simple-grid-210-295-b3lyp_d3bj-631gd-gas-singlepoint-DLPNO_CCSD_T1-NormalPNO-augtz-gas.scfp.tmp) ****
             **** ENERGY FILE WAS UPDATED (simple-grid-210-295-b3lyp_d3bj-631gd-gas-singlepoint-DLPNO_CCSD_T1-NormalPNO-augtz-gas.en.tmp) ****
----------------------
UHF SPIN CONTAMINATION
----------------------

Expectation value of <S**2>     :     8.765933
Ideal value S*(S+1) for S=2.5   :     8.750000
Deviation                       :     0.015933

----------------
ORBITAL ENERGIES
----------------
                 SPIN UP ORBITALS
  NO   OCC          E(Eh)            E(eV) 
   0   1.0000    -261.558736     -7117.3750 
   1   1.0000    -104.780400     -2851.2196 
   2   1.0000    -104.778008     -2851.1545 
   3   1.0000    -104.777080     -2851.1293 
   4   1.0000     -32.226558      -876.9292 
   5   1.0000     -27.702820      -753.8321 
   6   1.0000     -27.702017      -753.8102 
   7   1.0000     -27.701876      -753.8064 
   8   1.0000     -20.581979      -560.0641 
   9   1.0000     -11.402324      -310.2730 
  10   1.0000     -11.327114      -308.2265 
  11   1.0000     -11.275078      -306.8105 
  12   1.0000     -11.268680      -306.6364 
  13   1.0000     -11.264588      -306.5250 
  14   1.0000     -11.259299      -306.3811 
  15   1.0000     -11.255476      -306.2771 
  16   1.0000     -11.244842      -305.9877 
  17   1.0000     -10.507061      -285.9117 
  18   1.0000     -10.504644      -285.8459 
  19   1.0000     -10.503679      -285.8196 
  20   1.0000      -7.973912      -216.9812 
  21   1.0000      -7.973117      -216.9596 
  22   1.0000      -7.973096      -216.9590 
  23   1.0000      -7.971515      -216.9159 
  24   1.0000      -7.970743      -216.8949 
  25   1.0000      -7.970660      -216.8927 
  26   1.0000      -7.970489      -216.8880 
  27   1.0000      -7.969810      -216.8696 
  28   1.0000      -7.969720      -216.8671 
  29   1.0000      -4.581758      -124.6760 
  30   1.0000      -3.194752       -86.9336 
  31   1.0000      -3.193423       -86.8975 
  32   1.0000      -3.193158       -86.8903 
  33   1.0000      -1.423320       -38.7305 
  34   1.0000      -1.163809       -31.6689 
  35   1.0000      -1.084957       -29.5232 
  36   1.0000      -1.052544       -28.6412 
  37   1.0000      -1.047287       -28.4981 
  38   1.0000      -1.044820       -28.4310 
  39   1.0000      -1.037824       -28.2406 
  40   1.0000      -0.992632       -27.0109 
  41   1.0000      -0.990920       -26.9643 
  42   1.0000      -0.927720       -25.2445 
  43   1.0000      -0.915948       -24.9242 
  44   1.0000      -0.910983       -24.7891 
  45   1.0000      -0.910902       -24.7869 
  46   1.0000      -0.900964       -24.5165 
  47   1.0000      -0.900576       -24.5059 
  48   1.0000      -0.796199       -21.6657 
  49   1.0000      -0.758052       -20.6277 
  50   1.0000      -0.691087       -18.8054 
  51   1.0000      -0.683838       -18.6082 
  52   1.0000      -0.680349       -18.5132 
  53   1.0000      -0.675152       -18.3718 
  54   1.0000      -0.647312       -17.6143 
  55   1.0000      -0.624719       -16.9995 
  56   1.0000      -0.604285       -16.4434 
  57   1.0000      -0.596052       -16.2194 
  58   1.0000      -0.583553       -15.8793 
  59   1.0000      -0.578792       -15.7497 
  60   1.0000      -0.569846       -15.5063 
  61   1.0000      -0.564497       -15.3607 
  62   1.0000      -0.559835       -15.2339 
  63   1.0000      -0.543762       -14.7965 
  64   1.0000      -0.535932       -14.5834 
  65   1.0000      -0.520904       -14.1745 
  66   1.0000      -0.518091       -14.0980 
  67   1.0000      -0.483958       -13.1692 
  68   1.0000      -0.466103       -12.6833 
  69   1.0000      -0.458826       -12.4853 
  70   1.0000      -0.433803       -11.8044 
  71   1.0000      -0.429134       -11.6773 
  72   1.0000      -0.426618       -11.6089 
  73   1.0000      -0.418407       -11.3854 
  74   1.0000      -0.416745       -11.3402 
  75   1.0000      -0.416005       -11.3201 
  76   1.0000      -0.381250       -10.3743 
  77   0.0000       0.008726         0.2375 
  78   0.0000       0.020316         0.5528 
  79   0.0000       0.021154         0.5756 
  80   0.0000       0.026354         0.7171 
  81   0.0000       0.033277         0.9055 
  82   0.0000       0.039504         1.0750 
  83   0.0000       0.040526         1.1028 
  84   0.0000       0.042614         1.1596 
  85   0.0000       0.044814         1.2194 
  86   0.0000       0.046117         1.2549 
  87   0.0000       0.057040         1.5521 
  88   0.0000       0.057451         1.5633 
  89   0.0000       0.060601         1.6490 
  90   0.0000       0.063621         1.7312 
  91   0.0000       0.065307         1.7771 
  92   0.0000       0.073437         1.9983 
  93   0.0000       0.075277         2.0484 
  94   0.0000       0.083346         2.2680 
  95   0.0000       0.087500         2.3810 
  96   0.0000       0.090399         2.4599 
  97   0.0000       0.092590         2.5195 
  98   0.0000       0.096466         2.6250 
  99   0.0000       0.098524         2.6810 
 100   0.0000       0.104442         2.8420 
 101   0.0000       0.104905         2.8546 
 102   0.0000       0.117021         3.1843 
 103   0.0000       0.117849         3.2068 
 104   0.0000       0.121233         3.2989 
 105   0.0000       0.123871         3.3707 
 106   0.0000       0.125705         3.4206 
 107   0.0000       0.130806         3.5594 
 108   0.0000       0.130978         3.5641 
 109   0.0000       0.135888         3.6977 
 110   0.0000       0.138875         3.7790 
 111   0.0000       0.142213         3.8698 
 112   0.0000       0.145410         3.9568 
 113   0.0000       0.148881         4.0513 
 114   0.0000       0.150694         4.1006 
 115   0.0000       0.154607         4.2071 
 116   0.0000       0.157171         4.2768 
 117   0.0000       0.159193         4.3319 
 118   0.0000       0.160975         4.3804 
 119   0.0000       0.162360         4.4181 
 120   0.0000       0.165624         4.5068 
 121   0.0000       0.169381         4.6091 
 122   0.0000       0.173877         4.7314 
 123   0.0000       0.177030         4.8172 
 124   0.0000       0.179350         4.8804 
 125   0.0000       0.181413         4.9365 
 126   0.0000       0.187904         5.1131 
 127   0.0000       0.189800         5.1647 
 128   0.0000       0.191898         5.2218 
 129   0.0000       0.197667         5.3788 
 130   0.0000       0.200474         5.4552 
 131   0.0000       0.204460         5.5636 
 132   0.0000       0.206680         5.6240 
 133   0.0000       0.210946         5.7401 
 134   0.0000       0.213992         5.8230 
 135   0.0000       0.216080         5.8798 
 136   0.0000       0.219343         5.9686 
 137   0.0000       0.222542         6.0557 
 138   0.0000       0.223181         6.0731 
 139   0.0000       0.226618         6.1666 
 140   0.0000       0.228250         6.2110 
 141   0.0000       0.236369         6.4319 
 142   0.0000       0.237372         6.4592 
 143   0.0000       0.243317         6.6210 
 144   0.0000       0.246113         6.6971 
 145   0.0000       0.251254         6.8370 
 146   0.0000       0.254101         6.9144 
 147   0.0000       0.255523         6.9531 
 148   0.0000       0.260352         7.0845 
 149   0.0000       0.262896         7.1538 
 150   0.0000       0.267480         7.2785 
 151   0.0000       0.274846         7.4789 
 152   0.0000       0.278558         7.5799 
 153   0.0000       0.279974         7.6185 
 154   0.0000       0.287353         7.8193 
 155   0.0000       0.290472         7.9042 
 156   0.0000       0.294450         8.0124 
 157   0.0000       0.295179         8.0322 
 158   0.0000       0.301057         8.1922 
 159   0.0000       0.302097         8.2205 
 160   0.0000       0.304198         8.2777 
 161   0.0000       0.313655         8.5350 
 162   0.0000       0.313840         8.5400 
 163   0.0000       0.319766         8.7013 
 164   0.0000       0.324032         8.8174 
 165   0.0000       0.329577         8.9682 
 166   0.0000       0.331289         9.0148 
 167   0.0000       0.335182         9.1208 
 168   0.0000       0.336281         9.1507 
 169   0.0000       0.338734         9.2174 
 170   0.0000       0.344054         9.3622 
 171   0.0000       0.348411         9.4807 
 172   0.0000       0.353306         9.6140 
 173   0.0000       0.355155         9.6643 
 174   0.0000       0.357046         9.7157 
 175   0.0000       0.360492         9.8095 
 176   0.0000       0.367219         9.9925 
 177   0.0000       0.369562        10.0563 
 178   0.0000       0.370827        10.0907 
 179   0.0000       0.375861        10.2277 
 180   0.0000       0.377752        10.2792 
 181   0.0000       0.379613        10.3298 
 182   0.0000       0.385201        10.4819 
 183   0.0000       0.387571        10.5463 
 184   0.0000       0.388390        10.5686 
 185   0.0000       0.392400        10.6777 
 186   0.0000       0.395282        10.7562 
 187   0.0000       0.401820        10.9341 
 188   0.0000       0.404140        10.9972 
 189   0.0000       0.406111        11.0509 
 190   0.0000       0.410637        11.1740 
 191   0.0000       0.411952        11.2098 
 192   0.0000       0.417352        11.3567 
 193   0.0000       0.421081        11.4582 
 194   0.0000       0.426366        11.6020 
 195   0.0000       0.431989        11.7550 
 196   0.0000       0.432790        11.7768 
 197   0.0000       0.433470        11.7953 
 198   0.0000       0.439704        11.9649 
 199   0.0000       0.445569        12.1245 
 200   0.0000       0.447201        12.1689 
 201   0.0000       0.451769        12.2933 
 202   0.0000       0.454957        12.3800 
 203   0.0000       0.456658        12.4263 
 204   0.0000       0.463380        12.6092 
 205   0.0000       0.464735        12.6461 
 206   0.0000       0.468359        12.7447 
 207   0.0000       0.470321        12.7981 
 208   0.0000       0.474831        12.9208 
 209   0.0000       0.479398        13.0451 
 210   0.0000       0.484192        13.1755 
 211   0.0000       0.486938        13.2503 
 212   0.0000       0.489378        13.3167 
 213   0.0000       0.492989        13.4149 
 214   0.0000       0.495031        13.4705 
 215   0.0000       0.499140        13.5823 
 216   0.0000       0.501395        13.6436 
 217   0.0000       0.506599        13.7853 
 218   0.0000       0.508735        13.8434 
 219   0.0000       0.510760        13.8985 
 220   0.0000       0.513343        13.9688 
 221   0.0000       0.516924        14.0662 
 222   0.0000       0.521265        14.1843 
 223   0.0000       0.525987        14.3128 
 224   0.0000       0.527151        14.3445 
 225   0.0000       0.529732        14.4148 
 226   0.0000       0.530539        14.4367 
 227   0.0000       0.537817        14.6347 
 228   0.0000       0.539177        14.6718 
 229   0.0000       0.543143        14.7797 
 230   0.0000       0.545741        14.8504 
 231   0.0000       0.547576        14.9003 
 232   0.0000       0.553190        15.0531 
 233   0.0000       0.555207        15.1080 
 234   0.0000       0.559475        15.2241 
 235   0.0000       0.563048        15.3213 
 236   0.0000       0.569622        15.5002 
 237   0.0000       0.572196        15.5702 
 238   0.0000       0.576906        15.6984 
 239   0.0000       0.578724        15.7479 
 240   0.0000       0.580896        15.8070 
 241   0.0000       0.582843        15.8600 
 242   0.0000       0.588314        16.0088 
 243   0.0000       0.588569        16.0158 
 244   0.0000       0.596343        16.2273 
 245   0.0000       0.600204        16.3324 
 246   0.0000       0.607927        16.5425 
 247   0.0000       0.609460        16.5843 
 248   0.0000       0.612705        16.6725 
 249   0.0000       0.615653        16.7528 
 250   0.0000       0.617280        16.7971 
 251   0.0000       0.620388        16.8816 
 252   0.0000       0.624053        16.9814 
 253   0.0000       0.628973        17.1152 
 254   0.0000       0.633198        17.2302 
 255   0.0000       0.635637        17.2966 
 256   0.0000       0.644976        17.5507 
 257   0.0000       0.650755        17.7079 
 258   0.0000       0.651951        17.7405 
 259   0.0000       0.656794        17.8723 
 260   0.0000       0.659977        17.9589 
 261   0.0000       0.666815        18.1450 
 262   0.0000       0.671380        18.2692 
 263   0.0000       0.673006        18.3134 
 264   0.0000       0.677099        18.4248 
 265   0.0000       0.678246        18.4560 
 266   0.0000       0.685785        18.6612 
 267   0.0000       0.689281        18.7563 
 268   0.0000       0.696216        18.9450 
 269   0.0000       0.697402        18.9773 
 270   0.0000       0.702759        19.1230 
 271   0.0000       0.707697        19.2574 
 272   0.0000       0.709927        19.3181 
 273   0.0000       0.716604        19.4998 
 274   0.0000       0.720990        19.6191 
 275   0.0000       0.723896        19.6982 
 276   0.0000       0.728261        19.8170 
 277   0.0000       0.731398        19.9023 
 278   0.0000       0.735943        20.0260 
 279   0.0000       0.736260        20.0347 
 280   0.0000       0.745446        20.2846 
 281   0.0000       0.750527        20.4229 
 282   0.0000       0.756704        20.5910 
 283   0.0000       0.759322        20.6622 
 284   0.0000       0.769327        20.9345 
 285   0.0000       0.779688        21.2164 
 286   0.0000       0.782576        21.2950 
 287   0.0000       0.790678        21.5154 
 288   0.0000       0.792494        21.5649 
 289   0.0000       0.795774        21.6541 
 290   0.0000       0.798580        21.7305 
 291   0.0000       0.813715        22.1423 
 292   0.0000       0.815709        22.1966 
 293   0.0000       0.825364        22.4593 
 294   0.0000       0.831367        22.6226 
 295   0.0000       0.837578        22.7916 
 296   0.0000       0.841013        22.8851 
 297   0.0000       0.846799        23.0426 
 298   0.0000       0.851609        23.1734 
 299   0.0000       0.855498        23.2793 
 300   0.0000       0.858527        23.3617 
 301   0.0000       0.865133        23.5415 
 302   0.0000       0.868762        23.6402 
 303   0.0000       0.871211        23.7069 
 304   0.0000       0.876076        23.8392 
 305   0.0000       0.878034        23.8925 
 306   0.0000       0.886659        24.1272 
 307   0.0000       0.888336        24.1728 
 308   0.0000       0.902054        24.5461 
 309   0.0000       0.904199        24.6045 
 310   0.0000       0.905945        24.6520 
 311   0.0000       0.910455        24.7748 
 312   0.0000       0.914509        24.8851 
 313   0.0000       0.916391        24.9363 
 314   0.0000       0.917512        24.9668 
 315   0.0000       0.923892        25.1404 
 316   0.0000       0.932419        25.3724 
 317   0.0000       0.935236        25.4491 
 318   0.0000       0.939544        25.5663 
 319   0.0000       0.942958        25.6592 
 320   0.0000       0.945392        25.7254 
 321   0.0000       0.950105        25.8537 
 322   0.0000       0.953950        25.9583 
 323   0.0000       0.957460        26.0538 
 324   0.0000       0.958650        26.0862 
 325   0.0000       0.963382        26.2149 
 326   0.0000       0.969784        26.3892 
 327   0.0000       0.973611        26.4933 
 328   0.0000       0.976953        26.5842 
 329   0.0000       0.981208        26.7000 
 330   0.0000       0.984971        26.8024 
 331   0.0000       0.986687        26.8491 
 332   0.0000       0.991107        26.9694 
 333   0.0000       0.992759        27.0143 
 334   0.0000       0.994221        27.0541 
 335   0.0000       1.001002        27.2386 
 336   0.0000       1.002314        27.2743 
 337   0.0000       1.005111        27.3505 
 338   0.0000       1.011803        27.5326 
 339   0.0000       1.015394        27.6303 
 340   0.0000       1.019802        27.7502 
 341   0.0000       1.021137        27.7865 
 342   0.0000       1.025021        27.8922 
 343   0.0000       1.027839        27.9689 
 344   0.0000       1.035200        28.1692 
 345   0.0000       1.035965        28.1900 
 346   0.0000       1.040123        28.3032 
 347   0.0000       1.043582        28.3973 
 348   0.0000       1.043673        28.3998 
 349   0.0000       1.049922        28.5698 
 350   0.0000       1.054860        28.7042 
 351   0.0000       1.059400        28.8277 
 352   0.0000       1.064354        28.9625 
 353   0.0000       1.067069        29.0364 
 354   0.0000       1.068540        29.0764 
 355   0.0000       1.076517        29.2935 
 356   0.0000       1.077560        29.3219 
 357   0.0000       1.082620        29.4596 
 358   0.0000       1.082747        29.4630 
 359   0.0000       1.087266        29.5860 
 360   0.0000       1.089756        29.6538 
 361   0.0000       1.093402        29.7530 
 362   0.0000       1.099632        29.9225 
 363   0.0000       1.104322        30.0501 
 364   0.0000       1.107971        30.1494 
 365   0.0000       1.109446        30.1896 
 366   0.0000       1.114581        30.3293 
 367   0.0000       1.123559        30.5736 
 368   0.0000       1.125906        30.6375 
 369   0.0000       1.129761        30.7423 
 370   0.0000       1.131467        30.7888 
 371   0.0000       1.137658        30.9573 
 372   0.0000       1.142911        31.1002 
 373   0.0000       1.147071        31.2134 
 374   0.0000       1.149110        31.2689 
 375   0.0000       1.152064        31.3493 
 376   0.0000       1.158610        31.5274 
 377   0.0000       1.166820        31.7508 
 378   0.0000       1.173285        31.9267 
 379   0.0000       1.174111        31.9492 
 380   0.0000       1.178154        32.0592 
 381   0.0000       1.182887        32.1880 
 382   0.0000       1.189011        32.3546 
 383   0.0000       1.192656        32.4538 
 384   0.0000       1.198078        32.6014 
 385   0.0000       1.201443        32.6929 
 386   0.0000       1.209638        32.9159 
 387   0.0000       1.212373        32.9904 
 388   0.0000       1.214116        33.0378 
 389   0.0000       1.215732        33.0817 
 390   0.0000       1.221822        33.2475 
 391   0.0000       1.227216        33.3942 
 392   0.0000       1.228905        33.4402 
 393   0.0000       1.239351        33.7245 
 394   0.0000       1.246329        33.9143 
 395   0.0000       1.255415        34.1616 
 396   0.0000       1.256384        34.1879 
 397   0.0000       1.258355        34.2416 
 398   0.0000       1.263500        34.3816 
 399   0.0000       1.265435        34.4342 
 400   0.0000       1.277916        34.7739 
 401   0.0000       1.279434        34.8152 
 402   0.0000       1.285398        34.9775 
 403   0.0000       1.289988        35.1024 
 404   0.0000       1.293324        35.1931 
 405   0.0000       1.297121        35.2964 
 406   0.0000       1.304220        35.4896 
 407   0.0000       1.307209        35.5710 
 408   0.0000       1.308070        35.5944 
 409   0.0000       1.312676        35.7197 
 410   0.0000       1.317790        35.8589 
 411   0.0000       1.320483        35.9322 
 412   0.0000       1.328423        36.1482 
 413   0.0000       1.335344        36.3365 
 414   0.0000       1.345931        36.6246 
 415   0.0000       1.351072        36.7645 
 416   0.0000       1.354725        36.8639 
 417   0.0000       1.362354        37.0715 
 418   0.0000       1.363653        37.1069 
 419   0.0000       1.366339        37.1800 
 420   0.0000       1.376669        37.4611 
 421   0.0000       1.377677        37.4885 
 422   0.0000       1.385273        37.6952 
 423   0.0000       1.388675        37.7878 
 424   0.0000       1.400926        38.1211 
 425   0.0000       1.403889        38.2018 
 426   0.0000       1.407577        38.3021 
 427   0.0000       1.416612        38.5480 
 428   0.0000       1.423327        38.7307 
 429   0.0000       1.427444        38.8427 
 430   0.0000       1.430932        38.9377 
 431   0.0000       1.433796        39.0156 
 432   0.0000       1.440106        39.1873 
 433   0.0000       1.447597        39.3911 
 434   0.0000       1.452717        39.5304 
 435   0.0000       1.456654        39.6376 
 436   0.0000       1.457330        39.6560 
 437   0.0000       1.464518        39.8516 
 438   0.0000       1.468588        39.9623 
 439   0.0000       1.472271        40.0625 
 440   0.0000       1.476425        40.1756 
 441   0.0000       1.480031        40.2737 
 442   0.0000       1.485996        40.4360 
 443   0.0000       1.496147        40.7122 
 444   0.0000       1.501579        40.8600 
 445   0.0000       1.506931        41.0057 
 446   0.0000       1.508986        41.0616 
 447   0.0000       1.513982        41.1975 
 448   0.0000       1.515605        41.2417 
 449   0.0000       1.528679        41.5975 
 450   0.0000       1.531352        41.6702 
 451   0.0000       1.541824        41.9552 
 452   0.0000       1.542262        41.9671 
 453   0.0000       1.546270        42.0762 
 454   0.0000       1.555105        42.3166 
 455   0.0000       1.558616        42.4121 
 456   0.0000       1.563338        42.5406 
 457   0.0000       1.565230        42.5921 
 458   0.0000       1.572521        42.7905 
 459   0.0000       1.575996        42.8850 
 460   0.0000       1.577993        42.9394 
 461   0.0000       1.589273        43.2463 
 462   0.0000       1.590637        43.2834 
 463   0.0000       1.600987        43.5651 
 464   0.0000       1.603256        43.6268 
 465   0.0000       1.607670        43.7469 
 466   0.0000       1.613402        43.9029 
 467   0.0000       1.622060        44.1385 
 468   0.0000       1.624032        44.1922 
 469   0.0000       1.629791        44.3489 
 470   0.0000       1.635899        44.5151 
 471   0.0000       1.638918        44.5972 
 472   0.0000       1.648830        44.8669 
 473   0.0000       1.653650        44.9981 
 474   0.0000       1.660899        45.1953 
 475   0.0000       1.663629        45.2697 
 476   0.0000       1.669810        45.4378 
 477   0.0000       1.674910        45.5766 
 478   0.0000       1.679696        45.7069 
 479   0.0000       1.685364        45.8611 
 480   0.0000       1.689477        45.9730 
 481   0.0000       1.691703        46.0336 
 482   0.0000       1.694973        46.1226 
 483   0.0000       1.696023        46.1511 
 484   0.0000       1.705672        46.4137 
 485   0.0000       1.714652        46.6581 
 486   0.0000       1.716127        46.6982 
 487   0.0000       1.719973        46.8028 
 488   0.0000       1.727634        47.0113 
 489   0.0000       1.735939        47.2373 
 490   0.0000       1.742690        47.4210 
 491   0.0000       1.748812        47.5876 
 492   0.0000       1.752325        47.6832 
 493   0.0000       1.753831        47.7242 
 494   0.0000       1.763197        47.9790 
 495   0.0000       1.764787        48.0223 
 496   0.0000       1.775947        48.3260 
 497   0.0000       1.784061        48.5468 
 498   0.0000       1.788803        48.6758 
 499   0.0000       1.793312        48.7985 
 500   0.0000       1.795631        48.8616 
 501   0.0000       1.803552        49.0771 
 502   0.0000       1.810396        49.2634 
 503   0.0000       1.812737        49.3271 
 504   0.0000       1.817503        49.4568 
 505   0.0000       1.824166        49.6381 
 506   0.0000       1.827673        49.7335 
 507   0.0000       1.831446        49.8362 
 508   0.0000       1.840437        50.0809 
 509   0.0000       1.844659        50.1957 
 510   0.0000       1.850218        50.3470 
 511   0.0000       1.853751        50.4431 
 512   0.0000       1.860077        50.6153 
 513   0.0000       1.865233        50.7556 
 514   0.0000       1.868991        50.8578 
 515   0.0000       1.874148        50.9982 
 516   0.0000       1.877773        51.0968 
 517   0.0000       1.881377        51.1949 
 518   0.0000       1.884674        51.2846 
 519   0.0000       1.896885        51.6169 
 520   0.0000       1.900991        51.7286 
 521   0.0000       1.906667        51.8830 
 522   0.0000       1.908778        51.9405 
 523   0.0000       1.914567        52.0980 
 524   0.0000       1.917990        52.1912 
 525   0.0000       1.925860        52.4053 
 526   0.0000       1.928973        52.4900 
 527   0.0000       1.934289        52.6347 
 528   0.0000       1.938461        52.7482 
 529   0.0000       1.947460        52.9931 
 530   0.0000       1.950794        53.0838 
 531   0.0000       1.957778        53.2738 
 532   0.0000       1.966255        53.5045 
 533   0.0000       1.969725        53.5989 
 534   0.0000       1.973579        53.7038 
 535   0.0000       1.977476        53.8099 
 536   0.0000       1.985643        54.0321 
 537   0.0000       1.992968        54.2314 
 538   0.0000       2.000780        54.4440 
 539   0.0000       2.008600        54.6568 
 540   0.0000       2.014230        54.8100 
 541   0.0000       2.017903        54.9099 
 542   0.0000       2.026281        55.1379 
 543   0.0000       2.039303        55.4923 
 544   0.0000       2.046580        55.6903 
 545   0.0000       2.047960        55.7278 
 546   0.0000       2.052893        55.8621 
 547   0.0000       2.056078        55.9487 
 548   0.0000       2.063840        56.1599 
 549   0.0000       2.069152        56.3045 
 550   0.0000       2.078597        56.5615 
 551   0.0000       2.089008        56.8448 
 552   0.0000       2.092269        56.9335 
 553   0.0000       2.095482        57.0210 
 554   0.0000       2.103033        57.2264 
 555   0.0000       2.116893        57.6036 
 556   0.0000       2.118679        57.6522 
 557   0.0000       2.131115        57.9906 
 558   0.0000       2.133889        58.0661 
 559   0.0000       2.144498        58.3547 
 560   0.0000       2.147684        58.4415 
 561   0.0000       2.154614        58.6300 
 562   0.0000       2.158591        58.7382 
 563   0.0000       2.163349        58.8677 
 564   0.0000       2.176122        59.2153 
 565   0.0000       2.183112        59.4055 
 566   0.0000       2.191215        59.6260 
 567   0.0000       2.199459        59.8503 
 568   0.0000       2.200671        59.8833 
 569   0.0000       2.212412        60.2028 
 570   0.0000       2.222915        60.4886 
 571   0.0000       2.227198        60.6051 
 572   0.0000       2.230250        60.6882 
 573   0.0000       2.232601        60.7522 
 574   0.0000       2.238681        60.9176 
 575   0.0000       2.250917        61.2506 
 576   0.0000       2.261186        61.5300 
 577   0.0000       2.265850        61.6569 
 578   0.0000       2.269323        61.7514 
 579   0.0000       2.284951        62.1767 
 580   0.0000       2.288527        62.2740 
 581   0.0000       2.296369        62.4874 
 582   0.0000       2.303818        62.6901 
 583   0.0000       2.309145        62.8350 
 584   0.0000       2.311883        62.9095 
 585   0.0000       2.314281        62.9748 
 586   0.0000       2.322781        63.2061 
 587   0.0000       2.335249        63.5453 
 588   0.0000       2.347156        63.8694 
 589   0.0000       2.354252        64.0625 
 590   0.0000       2.361876        64.2699 
 591   0.0000       2.371879        64.5421 
 592   0.0000       2.381053        64.7918 
 593   0.0000       2.383558        64.8599 
 594   0.0000       2.387286        64.9613 
 595   0.0000       2.394297        65.1521 
 596   0.0000       2.406816        65.4928 
 597   0.0000       2.416642        65.7602 
 598   0.0000       2.426218        66.0208 
 599   0.0000       2.433520        66.2194 
 600   0.0000       2.446062        66.5607 
 601   0.0000       2.453379        66.7598 
 602   0.0000       2.459041        66.9139 
 603   0.0000       2.474036        67.3219 
 604   0.0000       2.480239        67.4907 
 605   0.0000       2.493662        67.8560 
 606   0.0000       2.498510        67.9879 
 607   0.0000       2.514393        68.4201 
 608   0.0000       2.529550        68.8325 
 609   0.0000       2.534101        68.9564 
 610   0.0000       2.545906        69.2776 
 611   0.0000       2.560395        69.6719 
 612   0.0000       2.574017        70.0426 
 613   0.0000       2.593235        70.5655 
 614   0.0000       2.609178        70.9994 
 615   0.0000       2.618331        71.2484 
 616   0.0000       2.621648        71.3387 
 617   0.0000       2.639156        71.8151 
 618   0.0000       2.639808        71.8328 
 619   0.0000       2.652548        72.1795 
 620   0.0000       2.661137        72.4132 
 621   0.0000       2.666378        72.5558 
 622   0.0000       2.669507        72.6410 
 623   0.0000       2.683622        73.0251 
 624   0.0000       2.687942        73.1426 
 625   0.0000       2.701344        73.5073 
 626   0.0000       2.709681        73.7342 
 627   0.0000       2.713022        73.8251 
 628   0.0000       2.716385        73.9166 
 629   0.0000       2.727431        74.2172 
 630   0.0000       2.736298        74.4585 
 631   0.0000       2.739945        74.5577 
 632   0.0000       2.743601        74.6572 
 633   0.0000       2.756945        75.0203 
 634   0.0000       2.768063        75.3228 
 635   0.0000       2.775505        75.5253 
 636   0.0000       2.788128        75.8688 
 637   0.0000       2.805470        76.3407 
 638   0.0000       2.827645        76.9441 
 639   0.0000       2.832053        77.0641 
 640   0.0000       2.844981        77.4159 
 641   0.0000       2.868585        78.0582 
 642   0.0000       2.875187        78.2378 
 643   0.0000       2.884443        78.4897 
 644   0.0000       2.891056        78.6696 
 645   0.0000       2.916942        79.3740 
 646   0.0000       2.917094        79.3782 
 647   0.0000       2.930664        79.7474 
 648   0.0000       2.937238        79.9263 
 649   0.0000       2.948227        80.2253 
 650   0.0000       2.964708        80.6738 
 651   0.0000       2.967728        80.7560 
 652   0.0000       2.991277        81.3968 
 653   0.0000       3.018176        82.1287 
 654   0.0000       3.030920        82.4755 
 655   0.0000       3.039983        82.7221 
 656   0.0000       3.063133        83.3521 
 657   0.0000       3.074486        83.6610 
 658   0.0000       3.080020        83.8116 
 659   0.0000       3.094945        84.2177 
 660   0.0000       3.119005        84.8724 
 661   0.0000       3.130666        85.1898 
 662   0.0000       3.146098        85.6097 
 663   0.0000       3.148827        85.6839 
 664   0.0000       3.164766        86.1177 
 665   0.0000       3.178353        86.4874 
 666   0.0000       3.190017        86.8048 
 667   0.0000       3.207025        87.2676 
 668   0.0000       3.212050        87.4043 
 669   0.0000       3.223310        87.7107 
 670   0.0000       3.237650        88.1009 
 671   0.0000       3.239285        88.1454 
 672   0.0000       3.249226        88.4159 
 673   0.0000       3.252972        88.5179 
 674   0.0000       3.259511        88.6958 
 675   0.0000       3.270308        88.9896 
 676   0.0000       3.287385        89.4543 
 677   0.0000       3.298618        89.7600 
 678   0.0000       3.303714        89.8986 
 679   0.0000       3.308141        90.0191 
 680   0.0000       3.316326        90.2418 
 681   0.0000       3.333629        90.7127 
 682   0.0000       3.339777        90.8800 
 683   0.0000       3.346738        91.0694 
 684   0.0000       3.355932        91.3196 
 685   0.0000       3.359939        91.4286 
 686   0.0000       3.368040        91.6490 
 687   0.0000       3.379994        91.9743 
 688   0.0000       3.390083        92.2488 
 689   0.0000       3.404001        92.6276 
 690   0.0000       3.416919        92.9791 
 691   0.0000       3.425116        93.2021 
 692   0.0000       3.427752        93.2739 
 693   0.0000       3.434231        93.4502 
 694   0.0000       3.453427        93.9725 
 695   0.0000       3.472128        94.4814 
 696   0.0000       3.476509        94.6006 
 697   0.0000       3.478034        94.6421 
 698   0.0000       3.482579        94.7658 
 699   0.0000       3.490567        94.9832 
 700   0.0000       3.495343        95.1131 
 701   0.0000       3.508655        95.4754 
 702   0.0000       3.511144        95.5431 
 703   0.0000       3.519063        95.7586 
 704   0.0000       3.525399        95.9310 
 705   0.0000       3.532449        96.1228 
 706   0.0000       3.546671        96.5098 
 707   0.0000       3.547104        96.5216 
 708   0.0000       3.556195        96.7690 
 709   0.0000       3.568259        97.0973 
 710   0.0000       3.576961        97.3341 
 711   0.0000       3.587555        97.6223 
 712   0.0000       3.589866        97.6852 
 713   0.0000       3.604255        98.0768 
 714   0.0000       3.612399        98.2984 
 715   0.0000       3.620267        98.5125 
 716   0.0000       3.630163        98.7818 
 717   0.0000       3.643818        99.1533 
 718   0.0000       3.648776        99.2882 
 719   0.0000       3.665013        99.7301 
 720   0.0000       3.670205        99.8713 
 721   0.0000       3.673325        99.9563 
 722   0.0000       3.691027       100.4380 
 723   0.0000       3.694359       100.5286 
 724   0.0000       3.707584       100.8885 
 725   0.0000       3.715977       101.1169 
 726   0.0000       3.718800       101.1937 
 727   0.0000       3.726555       101.4047 
 728   0.0000       3.733320       101.5888 
 729   0.0000       3.739768       101.7643 
 730   0.0000       3.750002       102.0427 
 731   0.0000       3.759883       102.3116 
 732   0.0000       3.760585       102.3307 
 733   0.0000       3.771185       102.6192 
 734   0.0000       3.780462       102.8716 
 735   0.0000       3.783676       102.9591 
 736   0.0000       3.791600       103.1747 
 737   0.0000       3.795867       103.2908 
 738   0.0000       3.800012       103.4036 
 739   0.0000       3.805353       103.5489 
 740   0.0000       3.818064       103.8948 
 741   0.0000       3.825695       104.1025 
 742   0.0000       3.831674       104.2651 
 743   0.0000       3.842467       104.5588 
 744   0.0000       3.849801       104.7584 
 745   0.0000       3.857094       104.9569 
 746   0.0000       3.859916       105.0337 
 747   0.0000       3.866633       105.2164 
 748   0.0000       3.873247       105.3964 
 749   0.0000       3.881818       105.6296 
 750   0.0000       3.888564       105.8132 
 751   0.0000       3.905656       106.2783 
 752   0.0000       3.908245       106.3488 
 753   0.0000       3.910561       106.4118 
 754   0.0000       3.921871       106.7195 
 755   0.0000       3.929490       106.9269 
 756   0.0000       3.941541       107.2548 
 757   0.0000       3.944746       107.3420 
 758   0.0000       3.953977       107.5932 
 759   0.0000       3.954719       107.6134 
 760   0.0000       3.965984       107.9199 
 761   0.0000       3.968069       107.9766 
 762   0.0000       3.982478       108.3687 
 763   0.0000       3.987501       108.5054 
 764   0.0000       4.000074       108.8475 
 765   0.0000       4.004078       108.9565 
 766   0.0000       4.007549       109.0510 
 767   0.0000       4.013085       109.2016 
 768   0.0000       4.014481       109.2396 
 769   0.0000       4.023956       109.4974 
 770   0.0000       4.034712       109.7901 
 771   0.0000       4.042834       110.0111 
 772   0.0000       4.050102       110.2089 
 773   0.0000       4.054727       110.3347 
 774   0.0000       4.077773       110.9619 
 775   0.0000       4.080054       111.0239 
 776   0.0000       4.082453       111.0892 
 777   0.0000       4.093641       111.3936 
 778   0.0000       4.096361       111.4676 
 779   0.0000       4.098353       111.5219 
 780   0.0000       4.107441       111.7692 
 781   0.0000       4.116266       112.0093 
 782   0.0000       4.119645       112.1012 
 783   0.0000       4.136995       112.5734 
 784   0.0000       4.142514       112.7235 
 785   0.0000       4.156521       113.1047 
 786   0.0000       4.161503       113.2402 
 787   0.0000       4.171453       113.5110 
 788   0.0000       4.183865       113.8488 
 789   0.0000       4.186150       113.9109 
 790   0.0000       4.194774       114.1456 
 791   0.0000       4.200638       114.3052 
 792   0.0000       4.211699       114.6062 
 793   0.0000       4.218662       114.7956 
 794   0.0000       4.225852       114.9913 
 795   0.0000       4.230082       115.1064 
 796   0.0000       4.247201       115.5722 
 797   0.0000       4.252399       115.7136 
 798   0.0000       4.267596       116.1272 
 799   0.0000       4.275388       116.3392 
 800   0.0000       4.282466       116.5318 
 801   0.0000       4.290935       116.7623 
 802   0.0000       4.304487       117.1311 
 803   0.0000       4.309354       117.2635 
 804   0.0000       4.313826       117.3852 
 805   0.0000       4.319311       117.5344 
 806   0.0000       4.324845       117.6850 
 807   0.0000       4.333133       117.9106 
 808   0.0000       4.343739       118.1992 
 809   0.0000       4.358233       118.5935 
 810   0.0000       4.364142       118.7543 
 811   0.0000       4.377663       119.1223 
 812   0.0000       4.385578       119.3376 
 813   0.0000       4.393527       119.5540 
 814   0.0000       4.411422       120.0409 
 815   0.0000       4.419533       120.2616 
 816   0.0000       4.432610       120.6175 
 817   0.0000       4.440247       120.8253 
 818   0.0000       4.448681       121.0548 
 819   0.0000       4.453280       121.1799 
 820   0.0000       4.461392       121.4006 
 821   0.0000       4.478471       121.8654 
 822   0.0000       4.484346       122.0253 
 823   0.0000       4.491321       122.2151 
 824   0.0000       4.507188       122.6468 
 825   0.0000       4.519280       122.9759 
 826   0.0000       4.524459       123.1168 
 827   0.0000       4.533701       123.3683 
 828   0.0000       4.547184       123.7352 
 829   0.0000       4.553347       123.9029 
 830   0.0000       4.560866       124.1075 
 831   0.0000       4.573421       124.4491 
 832   0.0000       4.585692       124.7830 
 833   0.0000       4.595464       125.0489 
 834   0.0000       4.603402       125.2649 
 835   0.0000       4.603901       125.2785 
 836   0.0000       4.619859       125.7127 
 837   0.0000       4.635599       126.1411 
 838   0.0000       4.643499       126.3560 
 839   0.0000       4.654631       126.6589 
 840   0.0000       4.680036       127.3503 
 841   0.0000       4.692811       127.6979 
 842   0.0000       4.696234       127.7910 
 843   0.0000       4.706835       128.0795 
 844   0.0000       4.722289       128.5000 
 845   0.0000       4.733873       128.8152 
 846   0.0000       4.740556       128.9971 
 847   0.0000       4.746013       129.1456 
 848   0.0000       4.754574       129.3785 
 849   0.0000       4.775327       129.9433 
 850   0.0000       4.780805       130.0923 
 851   0.0000       4.791233       130.3761 
 852   0.0000       4.794233       130.4577 
 853   0.0000       4.802081       130.6713 
 854   0.0000       4.813190       130.9736 
 855   0.0000       4.831939       131.4837 
 856   0.0000       4.841654       131.7481 
 857   0.0000       4.845565       131.8545 
 858   0.0000       4.868972       132.4915 
 859   0.0000       4.880808       132.8135 
 860   0.0000       4.889271       133.0438 
 861   0.0000       4.892913       133.1429 
 862   0.0000       4.909271       133.5881 
 863   0.0000       4.924584       134.0047 
 864   0.0000       4.943752       134.5263 
 865   0.0000       4.955281       134.8400 
 866   0.0000       4.964723       135.0970 
 867   0.0000       4.971368       135.2778 
 868   0.0000       4.980572       135.5283 
 869   0.0000       4.986616       135.6927 
 870   0.0000       4.990777       135.8060 
 871   0.0000       5.013229       136.4169 
 872   0.0000       5.030301       136.8815 
 873   0.0000       5.035853       137.0325 
 874   0.0000       5.050961       137.4436 
 875   0.0000       5.054022       137.5269 
 876   0.0000       5.066248       137.8596 
 877   0.0000       5.076369       138.1350 
 878   0.0000       5.099699       138.7699 
 879   0.0000       5.107844       138.9915 
 880   0.0000       5.114504       139.1727 
 881   0.0000       5.117775       139.2617 
 882   0.0000       5.141754       139.9142 
 883   0.0000       5.155338       140.2839 
 884   0.0000       5.162345       140.4745 
 885   0.0000       5.173679       140.7830 
 886   0.0000       5.190428       141.2387 
 887   0.0000       5.201191       141.5316 
 888   0.0000       5.208193       141.7221 
 889   0.0000       5.222575       142.1135 
 890   0.0000       5.236171       142.4834 
 891   0.0000       5.251467       142.8997 
 892   0.0000       5.259398       143.1155 
 893   0.0000       5.267795       143.3440 
 894   0.0000       5.275709       143.5593 
 895   0.0000       5.289210       143.9267 
 896   0.0000       5.291494       143.9889 
 897   0.0000       5.329379       145.0198 
 898   0.0000       5.341367       145.3460 
 899   0.0000       5.364073       145.9639 
 900   0.0000       5.366782       146.0376 
 901   0.0000       5.380217       146.4032 
 902   0.0000       5.394934       146.8036 
 903   0.0000       5.397119       146.8631 
 904   0.0000       5.402570       147.0114 
 905   0.0000       5.413248       147.3020 
 906   0.0000       5.434547       147.8815 
 907   0.0000       5.446850       148.2163 
 908   0.0000       5.453015       148.3841 
 909   0.0000       5.471124       148.8769 
 910   0.0000       5.487051       149.3103 
 911   0.0000       5.489694       149.3822 
 912   0.0000       5.500455       149.6750 
 913   0.0000       5.524259       150.3227 
 914   0.0000       5.537963       150.6956 
 915   0.0000       5.543452       150.8450 
 916   0.0000       5.554704       151.1512 
 917   0.0000       5.569122       151.5435 
 918   0.0000       5.586710       152.0221 
 919   0.0000       5.591396       152.1496 
 920   0.0000       5.605587       152.5358 
 921   0.0000       5.620114       152.9311 
 922   0.0000       5.635628       153.3532 
 923   0.0000       5.644216       153.5869 
 924   0.0000       5.655000       153.8804 
 925   0.0000       5.657267       153.9421 
 926   0.0000       5.671391       154.3264 
 927   0.0000       5.679546       154.5483 
 928   0.0000       5.687685       154.7698 
 929   0.0000       5.702497       155.1728 
 930   0.0000       5.711744       155.4244 
 931   0.0000       5.732446       155.9878 
 932   0.0000       5.739979       156.1928 
 933   0.0000       5.744085       156.3045 
 934   0.0000       5.754230       156.5806 
 935   0.0000       5.777102       157.2029 
 936   0.0000       5.791806       157.6030 
 937   0.0000       5.799594       157.8150 
 938   0.0000       5.815825       158.2566 
 939   0.0000       5.833816       158.7462 
 940   0.0000       5.852463       159.2536 
 941   0.0000       5.875025       159.8675 
 942   0.0000       5.889388       160.2584 
 943   0.0000       5.901725       160.5941 
 944   0.0000       5.936556       161.5419 
 945   0.0000       5.965579       162.3317 
 946   0.0000       6.035987       164.2476 
 947   0.0000       6.060849       164.9241 
 948   0.0000       6.080857       165.4685 
 949   0.0000       6.123948       166.6411 
 950   0.0000       6.144629       167.2039 
 951   0.0000       6.152109       167.4074 
 952   0.0000       6.184790       168.2967 
 953   0.0000       6.190909       168.4632 
 954   0.0000       6.219681       169.2461 
 955   0.0000       6.227511       169.4592 
 956   0.0000       6.247788       170.0110 
 957   0.0000       6.257605       170.2781 
 958   0.0000       6.259910       170.3408 
 959   0.0000       6.295666       171.3138 
 960   0.0000       6.307702       171.6413 
 961   0.0000       6.316598       171.8834 
 962   0.0000       6.331772       172.2963 
 963   0.0000       6.353519       172.8880 
 964   0.0000       6.355974       172.9548 
 965   0.0000       6.365337       173.2096 
 966   0.0000       6.393669       173.9806 
 967   0.0000       6.413526       174.5209 
 968   0.0000       6.472042       176.1132 
 969   0.0000       6.510741       177.1663 
 970   0.0000       6.547515       178.1670 
 971   0.0000       6.660113       181.2309 
 972   0.0000       6.814305       185.4267 
 973   0.0000       6.850247       186.4047 
 974   0.0000       6.878025       187.1606 
 975   0.0000       6.899822       187.7537 
 976   0.0000       6.920929       188.3281 
 977   0.0000       6.937744       188.7856 
 978   0.0000       6.962961       189.4718 
 979   0.0000       6.981100       189.9654 
 980   0.0000       7.008770       190.7183 
 981   0.0000       7.028004       191.2417 
 982   0.0000       7.039758       191.5616 
 983   0.0000       7.055801       191.9981 
 984   0.0000       7.115381       193.6194 
 985   0.0000       7.161159       194.8650 
 986   0.0000       7.278956       198.0705 
 987   0.0000       7.345478       199.8806 
 988   0.0000       7.364977       200.4112 
 989   0.0000       7.455972       202.8873 
 990   0.0000       7.544074       205.2847 
 991   0.0000       7.591955       206.5876 
 992   0.0000       7.632445       207.6894 
 993   0.0000       7.725147       210.2119 
 994   0.0000       7.768295       211.3861 
 995   0.0000       7.903571       215.0671 
 996   0.0000       7.979750       217.1400 
 997   0.0000       8.098838       220.3806 
 998   0.0000       8.291949       225.6354 
 999   0.0000       9.428468       256.5616 
 1000   0.0000       9.440341       256.8847 
 1001   0.0000       9.447702       257.0850 
 1002   0.0000       9.460683       257.4383 
 1003   0.0000       9.469471       257.6774 
 1004   0.0000       9.497134       258.4302 
 1005   0.0000       9.707945       264.1666 
 1006   0.0000      10.097555       274.7685 
 1007   0.0000      10.106494       275.0117 
 1008   0.0000      10.130797       275.6730 
 1009   0.0000      10.215818       277.9865 
 1010   0.0000      10.220435       278.1122 
 1011   0.0000      10.253690       279.0171 
 1012   0.0000      10.376013       282.3457 
 1013   0.0000      10.406305       283.1699 
 1014   0.0000      10.518021       286.2099 
 1015   0.0000      15.048063       409.4786 
 1016   0.0000      17.238060       469.0715 
 1017   0.0000      18.107897       492.7409 
 1018   0.0000      18.406020       500.8533 
 1019   0.0000      18.563847       505.1480 
 1020   0.0000      18.920870       514.8630 
 1021   0.0000      19.034415       517.9528 
 1022   0.0000      19.875094       540.8288 
 1023   0.0000      20.597275       560.4804 
 1024   0.0000      21.783343       592.7549 

                 SPIN DOWN ORBITALS
  NO   OCC          E(Eh)            E(eV) 
   0   1.0000    -261.555172     -7117.2781 
   1   1.0000    -104.778946     -2851.1801 
   2   1.0000    -104.776527     -2851.1143 
   3   1.0000    -104.775604     -2851.0891 
   4   1.0000     -32.064494      -872.5192 
   5   1.0000     -27.542453      -749.4682 
   6   1.0000     -27.542387      -749.4665 
   7   1.0000     -27.542108      -749.4589 
   8   1.0000     -20.577933      -559.9540 
   9   1.0000     -11.402252      -310.2710 
  10   1.0000     -11.326348      -308.2056 
  11   1.0000     -11.275179      -306.8132 
  12   1.0000     -11.269071      -306.6470 
  13   1.0000     -11.264487      -306.5223 
  14   1.0000     -11.259313      -306.3815 
  15   1.0000     -11.255569      -306.2796 
  16   1.0000     -11.244817      -305.9870 
  17   1.0000     -10.505504      -285.8693 
  18   1.0000     -10.503060      -285.8028 
  19   1.0000     -10.502105      -285.7768 
  20   1.0000      -7.971405      -216.9130 
  21   1.0000      -7.970746      -216.8950 
  22   1.0000      -7.970686      -216.8934 
  23   1.0000      -7.968961      -216.8464 
  24   1.0000      -7.968312      -216.8288 
  25   1.0000      -7.968215      -216.8262 
  26   1.0000      -7.968082      -216.8225 
  27   1.0000      -7.967307      -216.8014 
  28   1.0000      -7.967209      -216.7988 
  29   1.0000      -4.139458      -112.6404 
  30   1.0000      -2.661123       -72.4128 
  31   1.0000      -2.661054       -72.4110 
  32   1.0000      -2.660504       -72.3960 
  33   1.0000      -1.412969       -38.4488 
  34   1.0000      -1.162341       -31.6289 
  35   1.0000      -1.082427       -29.4543 
  36   1.0000      -1.039417       -28.2840 
  37   1.0000      -1.036292       -28.1989 
  38   1.0000      -1.025248       -27.8984 
  39   1.0000      -1.023370       -27.8473 
  40   1.0000      -0.992283       -27.0014 
  41   1.0000      -0.990607       -26.9558 
  42   1.0000      -0.916348       -24.9351 
  43   1.0000      -0.810846       -22.0642 
  44   1.0000      -0.758207       -20.6319 
  45   1.0000      -0.693648       -18.8751 
  46   1.0000      -0.683962       -18.6116 
  47   1.0000      -0.680078       -18.5059 
  48   1.0000      -0.674285       -18.3482 
  49   1.0000      -0.647203       -17.6113 
  50   1.0000      -0.623862       -16.9762 
  51   1.0000      -0.603935       -16.4339 
  52   1.0000      -0.595640       -16.2082 
  53   1.0000      -0.583452       -15.8765 
  54   1.0000      -0.578768       -15.7491 
  55   1.0000      -0.569201       -15.4888 
  56   1.0000      -0.564483       -15.3604 
  57   1.0000      -0.559780       -15.2324 
  58   1.0000      -0.542794       -14.7702 
  59   1.0000      -0.533839       -14.5265 
  60   1.0000      -0.520730       -14.1698 
  61   1.0000      -0.508928       -13.8486 
  62   1.0000      -0.482168       -13.1205 
  63   1.0000      -0.470836       -12.8121 
  64   1.0000      -0.469236       -12.7686 
  65   1.0000      -0.441636       -12.0175 
  66   1.0000      -0.438464       -11.9312 
  67   1.0000      -0.436343       -11.8735 
  68   1.0000      -0.422645       -11.5007 
  69   1.0000      -0.416483       -11.3331 
  70   1.0000      -0.401717       -10.9313 
  71   1.0000      -0.379581       -10.3289 
  72   0.0000       0.008727         0.2375 
  73   0.0000       0.020312         0.5527 
  74   0.0000       0.021205         0.5770 
  75   0.0000       0.026189         0.7126 
  76   0.0000       0.032711         0.8901 
  77   0.0000       0.039393         1.0719 
  78   0.0000       0.040563         1.1038 
  79   0.0000       0.042276         1.1504 
  80   0.0000       0.044529         1.2117 
  81   0.0000       0.046199         1.2571 
  82   0.0000       0.056968         1.5502 
  83   0.0000       0.057393         1.5617 
  84   0.0000       0.060492         1.6461 
  85   0.0000       0.063549         1.7293 
  86   0.0000       0.065261         1.7758 
  87   0.0000       0.073348         1.9959 
  88   0.0000       0.075279         2.0484 
  89   0.0000       0.083322         2.2673 
  90   0.0000       0.087335         2.3765 
  91   0.0000       0.090016         2.4495 
  92   0.0000       0.092515         2.5175 
  93   0.0000       0.096395         2.6230 
  94   0.0000       0.098490         2.6800 
  95   0.0000       0.104289         2.8379 
  96   0.0000       0.104486         2.8432 
  97   0.0000       0.115147         3.1333 
  98   0.0000       0.116474         3.1694 
  99   0.0000       0.117203         3.1892 
 100   0.0000       0.118977         3.2375 
 101   0.0000       0.121972         3.3190 
 102   0.0000       0.122862         3.3432 
 103   0.0000       0.123942         3.3726 
 104   0.0000       0.126908         3.4533 
 105   0.0000       0.127330         3.4648 
 106   0.0000       0.128987         3.5099 
 107   0.0000       0.132861         3.6153 
 108   0.0000       0.134776         3.6674 
 109   0.0000       0.136778         3.7219 
 110   0.0000       0.140767         3.8305 
 111   0.0000       0.144200         3.9239 
 112   0.0000       0.146112         3.9759 
 113   0.0000       0.150260         4.0888 
 114   0.0000       0.151853         4.1321 
 115   0.0000       0.155116         4.2209 
 116   0.0000       0.158402         4.3103 
 117   0.0000       0.161379         4.3913 
 118   0.0000       0.161704         4.4002 
 119   0.0000       0.164749         4.4830 
 120   0.0000       0.165966         4.5162 
 121   0.0000       0.170154         4.6301 
 122   0.0000       0.174735         4.7548 
 123   0.0000       0.178456         4.8560 
 124   0.0000       0.180195         4.9034 
 125   0.0000       0.182182         4.9574 
 126   0.0000       0.189725         5.1627 
 127   0.0000       0.191496         5.2109 
 128   0.0000       0.192772         5.2456 
 129   0.0000       0.198969         5.4142 
 130   0.0000       0.201950         5.4953 
 131   0.0000       0.206669         5.6238 
 132   0.0000       0.210508         5.7282 
 133   0.0000       0.215644         5.8680 
 134   0.0000       0.217017         5.9053 
 135   0.0000       0.219648         5.9769 
 136   0.0000       0.224188         6.1005 
 137   0.0000       0.225907         6.1472 
 138   0.0000       0.228592         6.2203 
 139   0.0000       0.230102         6.2614 
 140   0.0000       0.232731         6.3329 
 141   0.0000       0.238424         6.4878 
 142   0.0000       0.241434         6.5697 
 143   0.0000       0.246467         6.7067 
 144   0.0000       0.249815         6.7978 
 145   0.0000       0.256168         6.9707 
 146   0.0000       0.258038         7.0216 
 147   0.0000       0.262325         7.1382 
 148   0.0000       0.263044         7.1578 
 149   0.0000       0.266765         7.2590 
 150   0.0000       0.272771         7.4225 
 151   0.0000       0.279378         7.6023 
 152   0.0000       0.281923         7.6715 
 153   0.0000       0.288448         7.8491 
 154   0.0000       0.291120         7.9218 
 155   0.0000       0.295678         8.0458 
 156   0.0000       0.297703         8.1009 
 157   0.0000       0.300545         8.1782 
 158   0.0000       0.302730         8.2377 
 159   0.0000       0.308593         8.3973 
 160   0.0000       0.312947         8.5157 
 161   0.0000       0.315033         8.5725 
 162   0.0000       0.319263         8.6876 
 163   0.0000       0.324524         8.8307 
 164   0.0000       0.326968         8.8972 
 165   0.0000       0.331524         9.0212 
 166   0.0000       0.335967         9.1421 
 167   0.0000       0.338633         9.2147 
 168   0.0000       0.339757         9.2452 
 169   0.0000       0.344004         9.3608 
 170   0.0000       0.346583         9.4310 
 171   0.0000       0.352231         9.5847 
 172   0.0000       0.355190         9.6652 
 173   0.0000       0.356417         9.6986 
 174   0.0000       0.362077         9.8526 
 175   0.0000       0.362947         9.8763 
 176   0.0000       0.370219        10.0742 
 177   0.0000       0.371101        10.0982 
 178   0.0000       0.372780        10.1439 
 179   0.0000       0.377156        10.2629 
 180   0.0000       0.381698        10.3865 
 181   0.0000       0.387648        10.5484 
 182   0.0000       0.388680        10.5765 
 183   0.0000       0.391304        10.6479 
 184   0.0000       0.394947        10.7470 
 185   0.0000       0.401702        10.9309 
 186   0.0000       0.401929        10.9370 
 187   0.0000       0.405418        11.0320 
 188   0.0000       0.406232        11.0541 
 189   0.0000       0.408710        11.1216 
 190   0.0000       0.414105        11.2684 
 191   0.0000       0.416844        11.3429 
 192   0.0000       0.419922        11.4267 
 193   0.0000       0.425715        11.5843 
 194   0.0000       0.430757        11.7215 
 195   0.0000       0.434255        11.8167 
 196   0.0000       0.435288        11.8448 
 197   0.0000       0.439007        11.9460 
 198   0.0000       0.444188        12.0870 
 199   0.0000       0.448756        12.2113 
 200   0.0000       0.452204        12.3051 
 201   0.0000       0.455974        12.4077 
 202   0.0000       0.456264        12.4156 
 203   0.0000       0.462853        12.5949 
 204   0.0000       0.465520        12.6675 
 205   0.0000       0.468673        12.7532 
 206   0.0000       0.470899        12.8138 
 207   0.0000       0.476992        12.9796 
 208   0.0000       0.478294        13.0150 
 209   0.0000       0.484955        13.1963 
 210   0.0000       0.487510        13.2658 
 211   0.0000       0.492113        13.3911 
 212   0.0000       0.494659        13.4604 
 213   0.0000       0.497119        13.5273 
 214   0.0000       0.501765        13.6537 
 215   0.0000       0.503042        13.6885 
 216   0.0000       0.504951        13.7404 
 217   0.0000       0.509676        13.8690 
 218   0.0000       0.511563        13.9203 
 219   0.0000       0.513562        13.9747 
 220   0.0000       0.515680        14.0324 
 221   0.0000       0.520245        14.1566 
 222   0.0000       0.527297        14.3485 
 223   0.0000       0.529622        14.4117 
 224   0.0000       0.531019        14.4498 
 225   0.0000       0.532844        14.4994 
 226   0.0000       0.535085        14.5604 
 227   0.0000       0.540882        14.7181 
 228   0.0000       0.542362        14.7584 
 229   0.0000       0.546760        14.8781 
 230   0.0000       0.547987        14.9115 
 231   0.0000       0.550865        14.9898 
 232   0.0000       0.555661        15.1203 
 233   0.0000       0.558011        15.1843 
 234   0.0000       0.561807        15.2875 
 235   0.0000       0.565194        15.3797 
 236   0.0000       0.572191        15.5701 
 237   0.0000       0.575320        15.6553 
 238   0.0000       0.579359        15.7652 
 239   0.0000       0.579962        15.7816 
 240   0.0000       0.583657        15.8821 
 241   0.0000       0.584134        15.8951 
 242   0.0000       0.589581        16.0433 
 243   0.0000       0.590350        16.0642 
 244   0.0000       0.598538        16.2871 
 245   0.0000       0.602112        16.3843 
 246   0.0000       0.608974        16.5710 
 247   0.0000       0.611489        16.6395 
 248   0.0000       0.613905        16.7052 
 249   0.0000       0.616853        16.7854 
 250   0.0000       0.619122        16.8472 
 251   0.0000       0.622705        16.9447 
 252   0.0000       0.626484        17.0475 
 253   0.0000       0.630932        17.1685 
 254   0.0000       0.635872        17.3030 
 255   0.0000       0.637106        17.3365 
 256   0.0000       0.647606        17.6222 
 257   0.0000       0.653177        17.7739 
 258   0.0000       0.654477        17.8092 
 259   0.0000       0.658577        17.9208 
 260   0.0000       0.663596        18.0574 
 261   0.0000       0.669846        18.2274 
 262   0.0000       0.674762        18.3612 
 263   0.0000       0.675234        18.3740 
 264   0.0000       0.679964        18.5028 
 265   0.0000       0.681025        18.5316 
 266   0.0000       0.689290        18.7565 
 267   0.0000       0.692153        18.8344 
 268   0.0000       0.698703        19.0127 
 269   0.0000       0.701455        19.0876 
 270   0.0000       0.705928        19.2093 
 271   0.0000       0.710035        19.3210 
 272   0.0000       0.716340        19.4926 
 273   0.0000       0.722239        19.6531 
 274   0.0000       0.723639        19.6912 
 275   0.0000       0.725727        19.7480 
 276   0.0000       0.731176        19.8963 
 277   0.0000       0.736971        20.0540 
 278   0.0000       0.738519        20.0961 
 279   0.0000       0.740141        20.1402 
 280   0.0000       0.748578        20.3698 
 281   0.0000       0.754673        20.5357 
 282   0.0000       0.761262        20.7150 
 283   0.0000       0.764594        20.8057 
 284   0.0000       0.772620        21.0241 
 285   0.0000       0.781942        21.2777 
 286   0.0000       0.785484        21.3741 
[...]
  | sigma^2 in % of trace(Dij) retained ...   9.20e+00
  | sigma^2 in % of trace(Dip) retained ...   1.72e+01
  | sigma^2 in % of trace(Dpq) retained ...   1.37e-01
  | Av. % of trace(Di) retained         ...  99.998527726463
  | Av. % of trace(Dp) retained         ...  99.999999247676
  | sigma^2 in % of trace(Di) retained  ...   7.33e-07
  | sigma^2 in % of trace(Dp) retained  ...   4.61e-13
 Distributions of % trace(Dij) recovered:
  |       >= 99.9  ...   105 ( 21.4 % of all IJ-pairs)
  |   [80.0, 90.0) ...    32 (  6.5 % of all IJ-pairs)
  |   [90.0, 99.0) ...   262 ( 53.4 % of all IJ-pairs)
  |   [99.0, 99.9) ...    92 ( 18.7 % of all IJ-pairs)
 Distributions of % trace(Dip) recovered:
  |   [80.0, 90.0) ...    15 ( 12.8 % of all IP-pairs)
  |   [90.0, 99.0) ...    60 ( 51.3 % of all IP-pairs)
  |   [99.0, 99.9) ...    42 ( 35.9 % of all IP-pairs)
 Distributions of % trace(Dpq) recovered:
  |       >= 99.9  ...     5 ( 33.3 % of all PQ-pairs)
  |   [99.0, 99.9) ...    10 ( 66.7 % of all PQ-pairs)
 Distributions of % trace(Di) recovered :
  |       >= 99.9  ...    43 (100.0 % of all I-pairs )
 Distributions of % trace(Dp) recovered :
  |       >= 99.9  ...     5 (100.0 % of all P-pairs )

                       ===========================
                       1081 OF 1648 PAIRS ARE KEPT
                       ===========================

 Initial PAO correlation energy (all pairs)    ...  -2.6969190352 Eh
 Energy constituents in PAO basis (Eh):
  | Vijab(+0) ...  -2.2688673634
  | Viab (-1) ...  -0.1746168632
  | Vab  (-2) ...  -0.0573558486
  | Va   (-1) ...  -0.0000454163
  | Vija (+1) ...  -0.0719846444
  | Vij  (+2) ...  -0.0155168832
  | Via  (+0) ...  -0.1083706340
  | Vi   (+1) ...  -0.0001613819
 Initial PNO correlation energy                ...  -2.6627297099 Eh
 Energy constituents in PNO basis (Eh):
  | Vijab(+0) ...  -2.2504243454 (err=  0.0184430181)
  | Viab (-1) ...  -0.1604777376 (err=  0.0141391256)
  | Vab  (-2) ...  -0.0569028331 (err=  0.0004530155)
  | Va   (-1) ...  -0.0000258490 (err=  0.0000195674)
  | Vija (+1) ...  -0.0709975582 (err=  0.0009870862)
  | Vij  (+2) ...  -0.0154643865 (err=  0.0000524967)
  | Via  (+0) ...  -0.1082760711 (err=  0.0000945630)
  | Vi   (+1) ...  -0.0001609292 (err=  0.0000004528)
 Sum of total truncation errors ...   0.0341893253 Eh
  | Pair screening ...   0.0112389340 Eh
  | PNO truncation ...   0.0229503912 Eh

 UMP2 correlation energy (PAO) ...  -2.6919896050
  | alpha-alpha ...  -0.3872455240 (NP_aa=  887)
  | alpha-beta  ...  -1.9970891571 (NP_ab= 1623)
  | beta -beta  ...  -0.3076549239 (NP_bb=  703)
 UMP2 correlation energy (PNO) ...  -2.6574162973
  | alpha-alpha ...  -0.3752713487 (err=  0.0119741753, NP_aa=  575)
  | alpha-beta  ...  -1.9784875528 (err=  0.0186016043, NP_ab= 1056)
  | beta -beta  ...  -0.3036573959 (err=  0.0039975280, NP_bb=  448)
 Sum of total UMP2 truncation errors ...   0.0345733077 Eh
  | Pair screening ...   0.0112554481 Eh
  | PNO truncation ...   0.0233178596 Eh
 Timing for NEV-PNO construction (sec.)
  | Intermediate construction  ..           38.270
  | Amplitude construction     ..           53.609
  | Total time                 ..           91.878
 Making pair pair interaction lists ...      ok
 Total size for 2-ext PNO integrals ...     10.9 MB
Checking the number of SOMO/SOMO doubles PNOs ... 
 #Truncate: (72, 72)[157] -> [87] .. 
 #Truncate: (73, 73)[159] -> [87] .. 
 #Truncate: (74, 74)[157] -> [87] .. 
 #Truncate: (75, 75)[158] -> [87] .. 
 #Truncate: (76, 76)[160] -> [87] .. 

--------------------------------
LOCAL RI TRANSFORMATION (VABPAO)
--------------------------------

Number of PAOs:    1030
Basis functions:   1025 (343 shells)
Aux. functions:    2424 (644 shells)

Processing maps (0.0 sec)
Average map sizes:
   Aux shells -> PAOs           1030.0
   PAOs       -> AO shells       343.0

Calculating integrals (189.5 sec, 37370.165 MB)
Finished
-----------------------------
LOCAL RI TRANSFORMATION (IJV)
-----------------------------

Orbital window:      29 to 76
Basis functions:   1025 (343 shells)
Aux. functions:    2424 (644 shells)

Processing maps (0.0 sec)
Average map sizes:
   Aux shells -> MOs(i)           45.5
   Aux shells -> MOs(j)           48.0
   MOs        -> AO shells       339.0

Calculating integrals (22.1 sec, 40.506 MB)
Sorting integrals (0.3 sec, 40.479 MB)
Total time for the integral transformation: 22.5 sec


-------------------------------------
Pair Pair Term precalculation with     
RI-(ij|mn) and (im|jn) transformation  
ON THE FLY                             
-------------------------------------

   IBatch   1 (of   2)              ... done (  985.884 sec)
   IBatch   2 (of   2)              ... done ( 1005.043 sec)
Total EXT                           ...        1990.927 sec

---------------------
RI-PNO TRANSFORMATION
---------------------

Total Number of PNOs                   ... 34277
Total Number of IJ-PNOs                ... 30108
Total Number of IP-PNOs                ...  3206
Total Number of PQ-PNOs                ...   963
Total Number of IJ-pairs               ...   939
Total Number of PI-pairs               ...   117
Total Number of PQ-pairs               ...    25
Average number of PNOs per pair        ...    31
Maximal number of PNOs per pair        ...    87
>> Statistics for ij-pairs..
   #pairs with  1 -  5 PNOs   :    0
   #pairs with  6 - 10 PNOs   :    0
   #pairs with 11 - 15 PNOs   :   56
   #pairs with 16 - 20 PNOs   :  206
   #pairs with 21 - 25 PNOs   :  148
   #pairs with 26 - 30 PNOs   :  170
   #pairs with 31 - 35 PNOs   :   60
   #pairs with 36 - 40 PNOs   :   50
   #pairs with 41 - 45 PNOs   :   50
   #pairs with 46 - 50 PNOs   :   26
   #pairs with 51 - 55 PNOs   :   34
   #pairs with 56 - 60 PNOs   :   57
   #pairs with 61 - 65 PNOs   :   71
   #pairs with 66 - 70 PNOs   :    8
   #pairs with 76 - 80 PNOs   :    1
   #pairs with 81 - 85 PNOs   :    2
>> Statistics for ip-pairs..
   #pairs with  1 -  5 PNOs   :    0
   #pairs with  6 - 10 PNOs   :    1
   #pairs with 11 - 15 PNOs   :   15
   #pairs with 16 - 20 PNOs   :    4
   #pairs with 21 - 25 PNOs   :   27
   #pairs with 26 - 30 PNOs   :   12
   #pairs with 31 - 35 PNOs   :   45
   #pairs with 36 - 40 PNOs   :   13
   #pairs with 41 - 45 PNOs   :    0
   #pairs with 46 - 50 PNOs   :    0
>> Statistics for pq-pairs..
   #pairs with  1 -  5 PNOs   :    0
   #pairs with  6 - 10 PNOs   :    0
   #pairs with 11 - 15 PNOs   :    0
   #pairs with 16 - 20 PNOs   :    0
   #pairs with 21 - 25 PNOs   :   10
   #pairs with 26 - 30 PNOs   :   10
   #pairs with 31 - 35 PNOs   :    0
   #pairs with 36 - 40 PNOs   :    0
   #pairs with 41 - 45 PNOs   :    0
   #pairs with 46 - 50 PNOs   :    0
   #pairs with 86 - 90 PNOs   :    5

Generation of (ij|ab)[P] integrals            ... on
Generation of (ia|bc)[P],(ja|bc)[P] integrals ... on
Storage of 3 and 4 external integrals         ... on
Generation of ALL (ka|bc)[P] integrals        ... on
Keep RI integrals in memory                   ... off

Ibatch:  1 (of  1)
Starting 2-4 index PNO integral generation ... done

Timings:
Total PNO integral transformation time     ...       2063.923 sec
Size of the 3-external file                ...       292 MB
Size of the 4-external file                ...      2010 MB
Size of the IKJL file                      ...        17 MB
Size of the all 3-external file            ...      7029 MB
Size of the 1-external file                ...        22 MB

Size of the PAO/PNO coefficient matrices   ...     218.7 MB

Making pair/pair overlap matrices          ... done (  302.240 sec)
Size of the pair overlap file              ...    2412.0 MB
Total # unrestricted pairs ...       2079
  # of alpha-alpha pairs   ...        575
  # of alpha-beta pairs    ...       1056
  # of beta-beta pairs     ...        448
Constructing the guess amplitudes          ... done (    0.597 sec)

-------------------------
FINAL STARTUP INFORMATION
-------------------------

E(0)                                       ...  -3028.435539314
E(SL-UMP2 in NEV-PNO space)                ...     -2.693008710
Initial E(tot)                             ...  -3031.128548024
<T|T>                                      ...      0.537987375
Number of unrestricted pairs included      ... 2079
Total number of pairs                      ... 4095
----------------------------------------------------------
                     OPEN-SHELL COUPLED CLUSTER ITERATIONS
----------------------------------------------------------

Number of PNO amplitudes to be optimized        ...          2137784
Number of canonical amplitudes for strong pairs ...       1877755779
Untruncated number of canonical amplitudes      ...       3698645738

Iter       E(tot)           E(Corr)          Delta-E          Residual     Time
  0  -3031.135703966     -2.664572239      0.028436471      0.020821770 1635.86
                           *** Turning on DIIS ***
  1  -3031.245853229     -2.774721502     -0.110149263      0.010263994 1662.13
  2  -3031.310480678     -2.839348951     -0.064627449      0.008303919 1874.00
  3  -3031.331741885     -2.860610158     -0.021261207      0.002953115 1861.18
  4  -3031.338975444     -2.867843717     -0.007233559      0.002652941 1866.08
  5  -3031.342875465     -2.871743738     -0.003900021      0.001609573 1879.18
  6  -3031.344296412     -2.873164685     -0.001420947      0.000836718 1890.82
  7  -3031.345015135     -2.873883408     -0.000718723      0.000587017 1882.49
  8  -3031.345183420     -2.874051693     -0.000168285      0.000236519 1880.90
  9  -3031.345239200     -2.874107473     -0.000055780      0.000196965 1888.84
 10  -3031.345233271     -2.874101544      0.000005929      0.000091080 1884.67
 11  -3031.345245855     -2.874114128     -0.000012584      0.000073036 1897.56
 12  -3031.345252273     -2.874120546     -0.000006418      0.000028200 1884.79
 13  -3031.345254808     -2.874123081     -0.000002535      0.000013723 1892.36
 14  -3031.345256379     -2.874124652     -0.000001571      0.000007109 1881.29
               --- The CCSD iterations have converged ---

E(0)                                       ...  -3028.435539314
E(CORR)(strong-pairs)                      ...     -2.874124652
E(CORR)(weak-pairs)                        ...     -0.035592413
E(CORR)(corrected)                         ...     -2.909717064
E(TOT)                                     ...  -3031.345256379
Singles norm <S|S>**1/2                    ...      0.195394676 ( 0.066883549, 0.128511127)  
T1 diagnostic                              ...      0.020482928                              
<S**2>(linearized)                         ...      8.7508171 (ideal value:      8.7500000)

----------------------
LARGEST PNO AMPLITUDES
----------------------
  71a-> 77a  71b-> 77b       0.067797
  51b-> 76b  -1b-> -1b       0.054350
  50b-> 76b  -1b-> -1b       0.053780
  48b-> 72b  -1b-> -1b       0.052645
  71a-> 78a  71b-> 78b       0.050297
  44a-> 77a  -1a-> -1a       0.049215
  48b-> 75b  -1b-> -1b       0.046558
  44b-> 77b  -1b-> -1b       0.046447
  48b-> 74b  -1b-> -1b       0.045753
  62a-> 77a  62b-> 77b       0.045624
  66a-> 77a  66b-> 77b       0.045498
  55a-> 78a  55b-> 78b       0.043419
  70a-> 77a  70b-> 77b       0.043402
  37b-> 73b  -1b-> -1b       0.042876
  57a-> 78a  57b-> 78b       0.042870
  61a-> 77a  61b-> 77b       0.042536

Total # unrestricted pairs ...       1134
  # of alpha-alpha pairs   ...        312
  # of alpha-beta pairs    ...        567
  # of beta-beta pairs     ...        255

-------------------------------------------
DLPNO BASED TRIPLES CORRECTION
-------------------------------------------

Singles multiplier          ...  1.000000
Fragment selection                          .... not used
TCutTNO                     ... 1.000e-09
TCutMP2Pairs                ... 1.000e-05
TCutDOStrong                ... 2.000e-02
TCutMKNStrong               ... 1.000e-02
TCutDOWeak                  ... 4.000e-02
TCutMKNWeak                 ... 1.000e-01
NTCutTNO                    ... 1

Number of Triples that are to be computed         ...     32314

 . . . . . . . . .
10% done  
20% done  
30% done  
40% done  
50% done  
60% done  
70% done  
80% done  
90% done  
          Batch   1   done (  14141.243 sec)

Triples-Correction TCutTNO=   1.000e-09 (NWeakPairs = 0  1  2  3)  -0.118501049440   -0.001958961218    0.000000000000    0.000000000000
Triples-Correction  -0.120460010658

Triples timings:
Total time                      ... 14731.690 sec

Triples List generation         ...     0.000 sec
TNO generation                  ...   590.168 sec
Pair density generation         ...     0.096 sec
Look up tables                  ...     0.105 sec
Generating 3-index integrals    ...  8789.098 sec
Make 4-ind.int. from 3-ind.int  ...     3.451 sec
Projecting amplitudes (D + S)   ...  5078.878 sec
Sorting integrals for spin cases...    54.840 sec
Calculate W0/W1                 ...   173.652 sec
Energy contr. (sum over a,b,c)  ...    41.207 sec

Everything after 3-index        ...  5483.156 sec

Energy contribution AAA         ...    26.208 sec
Energy contribution AAB         ...   118.726 sec
Energy contribution ABB         ...   109.555 sec
Energy contribution BBB         ...    15.245 sec
prep                ...     3.058 sec
makeTTNO            ...  5026.130 sec
copyij              ...     0.125 sec
copyil              ...     3.925 sec
transposeij         ...     0.076 sec
newMatInDoubleProj  ...    50.442 sec
BlasInDoubleProj    ...  2744.103 sec
ProjSingles         ...    43.219 sec
ProjDoubles         ...  5035.658 sec
overall Doubles for projection      ... 2849579
used Doubles for projection         ... 2849579


Number of Triples   (0, 1, 2, 3 weak pairs; overall):  15927   10816       0       0  ( 26743)
Number of Atoms     (0, 1, 2, 3 weak pairs; overall):   19.0    14.7     0.0     0.0  (    29)
Number of PAOs      (0, 1, 2, 3 weak pairs; overall):  745.0   594.4     0.0     0.0  (  1025)
Number of AuxFcns   (0, 1, 2, 3 weak pairs; overall):  917.2   570.7     0.0     0.0  (  2424)
Number of TNOs (0, 1, 2, 3 weak pairs         ):   80.2    58.1     0.0     0.0
Aver. Number of NTNO, Atoms, PAOs, AuxFcns / Triples:  26743    71.3    17.3   684.1   777.0

Triples Correction (T)                     ...     -0.120460011
    alpha-alpha-alpha ... -0.003920380 (  3.3%)
    alpha-alpha-beta  ... -0.056535947 ( 46.9%)
    alpha-beta -beta  ... -0.055842048 ( 46.4%)
    beta -beta -beta  ... -0.004161636 (  3.5%)
Final correlation energy                   ...     -3.030177075
E(CCSD)                                    ...  -3031.345256379
E(CCSD(T))                                 ...  -3031.465716390

----------------------------
STATISTICS FOR PAIR-ENERGIES
----------------------------
Minimum, maximum and average ratios of UMP and CCSD pair-energies ... 0.49, 1.44, 1.02


------------------------------------------------------------------------------- 
                                     TIMINGS                                   
------------------------------------------------------------------------------- 


Total execution time                   ...    50763.827 sec

Localization of occupied MO's          ...        9.595 sec (  0.0%)
Fock Matrix Formation                  ...     1341.427 sec (  2.6%)
Differential overlap integrals         ...        1.498 sec (  0.0%)
Organizing maps                        ...        1.629 sec (  0.0%)
RI 3-index integral generations        ...      273.351 sec (  0.5%)
RI-PNO integral transformation         ...     4655.764 sec (  9.2%)
Initial Guess                          ...     1712.084 sec (  3.4%)
DIIS Solver                            ...       16.865 sec (  0.0%)
State Vector Update                    ...        0.788 sec (  0.0%)
Sigma-vector construction              ...    27762.151 sec ( 54.7%)
  <0|H|D>                              ...        0.030 sec (  0.0% of sigma)
  <D|H|D>(0-ext)                       ...     4669.007 sec ( 16.8% of sigma)
  <D|H|D>(2-ext Fock)                  ...        1.644 sec (  0.0% of sigma)
  <D|H|D>(2-ext)                       ...     4209.043 sec ( 15.2% of sigma)
  <D|H|D>(4-ext)                       ...      161.200 sec (  0.6% of sigma)
  <D|H|D>(4-ext-corr)                  ...      993.675 sec (  3.6% of sigma)
  CCSD doubles correction              ...      464.146 sec (  1.7% of sigma)
  <S|H|S>                              ...      771.349 sec (  2.8% of sigma)
  <S|H|D>(1-ext)                       ...      320.816 sec (  1.2% of sigma)
  <D|H|S>(1-ext)                       ...        1.110 sec (  0.0% of sigma)
  <S|H|D>(3-ext)                       ...       21.360 sec (  0.1% of sigma)
  CCSD singles correction              ...        0.005 sec (  0.0% of sigma)
  Fock-dressing                        ...     7985.827 sec ( 28.8% of sigma)
  Singles amplitudes                   ...      119.917 sec (  0.4% of sigma)
  (ik|jl)-dressing                     ...     6342.614 sec ( 22.8% of sigma)
  (ij|ab),(ia|jb)-dressing             ...     1521.259 sec (  5.5% of sigma)
  Pair energies                        ...        0.147 sec (  0.0% of sigma)
Total Time for computing (T)           ...    15323.452 sec ( 30.2% of ALL)


-------------------------   --------------------
FINAL SINGLE POINT ENERGY     -3031.465716389520
-------------------------   --------------------


                            ***************************************
                            *     ORCA property calculations      *
                            ***************************************

                                    ---------------------
                                    Active property flags
                                    ---------------------
   (+) Dipole Moment


------------------------------------------------------------------------------
                       ORCA ELECTRIC PROPERTIES CALCULATION
------------------------------------------------------------------------------

Dipole Moment Calculation                       ... on
Quadrupole Moment Calculation                   ... off
Polarizability Calculation                      ... off
GBWName                                         ... simple-grid-210-295-b3lyp_d3bj-631gd-gas-singlepoint-DLPNO_CCSD_T1-NormalPNO-augtz-gas.gbw
Electron density file                           ... simple-grid-210-295-b3lyp_d3bj-631gd-gas-singlepoint-DLPNO_CCSD_T1-NormalPNO-augtz-gas.scfp.tmp
The origin for moment calculation is the CENTER OF MASS  = ( 0.331097,  0.044151 -0.012555)

-------------
DIPOLE MOMENT
-------------
                                X             Y             Z
Electronic contribution:     44.61045       5.71956      -1.92206
Nuclear contribution   :    -49.33340      -6.57858       1.87066
                        -----------------------------------------
Total Dipole Moment    :     -4.72295      -0.85903      -0.05140
                        -----------------------------------------
Magnitude (a.u.)       :      4.80071
Magnitude (Debye)      :     12.20244



--------------------
Rotational spectrum 
--------------------
 
Rotational constants in cm-1:     0.019936     0.009977     0.009555 
Rotational constants in MHz :   597.660881   299.096084   286.466633 

 Dipole components along the rotational axes: 
x,y,z [a.u.] :    -4.725045     0.841218    -0.114570 
x,y,z [Debye]:   -12.010110     2.138206    -0.291213 

 

Timings for individual modules:

Sum of individual times         ...    65601.894 sec (=1093.365 min)
GTO integral calculation        ...       11.870 sec (=   0.198 min)   0.0 %
SCF iterations                  ...    14808.236 sec (= 246.804 min)  22.6 %
MDCI module                     ...    50781.788 sec (= 846.363 min)  77.4 %
                             ****ORCA TERMINATED NORMALLY****
TOTAL RUN TIME: 0 days 18 hours 13 minutes 24 seconds 382 msec
