
                                 *****************
                                 * O   R   C   A *
                                 *****************

           --- An Ab Initio, DFT and Semiempirical electronic structure package ---

                  #######################################################
                  #                        -***-                        #
                  #          Department of theory and spectroscopy      #
                  #               Directorship: Frank Neese             #
                  #        Max Planck Institute fuer Kohlenforschung    #
                  #                Kaiser Wilhelm Platz 1               #
                  #                 D-45470 Muelheim/Ruhr               #
                  #                      Germany                        #
                  #                                                     #
                  #                  All rights reserved                #
                  #                        -***-                        #
                  #######################################################


                         Program Version 4.1.2  - RELEASE  -


 With contributions from (in alphabetic order):
   Daniel Aravena         : Magnetic Properties
   Michael Atanasov       : Ab Initio Ligand Field Theory
   Alexander A. Auer      : GIAO ZORA
   Ute Becker             : Parallelization
   Giovanni Bistoni       : ED, Open-shell LED
   Martin Brehm           : Molecular dynamics
   Dmytro Bykov           : SCF Hessian
   Vijay G. Chilkuri      : MRCI spin determinant printing
   Dipayan Datta          : RHF DLPNO-CCSD density
   Achintya Kumar Dutta   : EOM-CC, STEOM-CC
   Dmitry Ganyushin       : Spin-Orbit,Spin-Spin,Magnetic field MRCI
   Miquel Garcia          : C-PCM Hessian
   Yang Guo               : DLPNO-NEVPT2, CIM, IAO-localization
   Andreas Hansen         : Spin unrestricted coupled pair/coupled cluster methods
   Benjamin Helmich-Paris : CASSCF linear response (MC-RPA)
   Lee Huntington         : MR-EOM, pCC
   Robert Izsak           : Overlap fitted RIJCOSX, COSX-SCS-MP3, EOM
   Christian Kollmar      : KDIIS, OOCD, Brueckner-CCSD(T), CCSD density
   Simone Kossmann        : Meta GGA functionals, TD-DFT gradient, OOMP2, MP2 Hessian
   Martin Krupicka        : AUTO-CI
   Lucas Lang             : DCDCAS
   Dagmar Lenk            : GEPOL surface, SMD
   Dimitrios Liakos       : Extrapolation schemes; parallel MDCI
   Dimitrios Manganas     : ROCIS; embedding schemes
   Dimitrios Pantazis     : SARC Basis sets
   Taras Petrenko         : DFT Hessian,TD-DFT gradient, ASA, ECA, R-Raman, ABS, FL, XAS/XES, NRVS
   Peter Pinski           : DLPNO-MP2, DLPNO-MP2 Gradient
   Christoph Reimann      : Effective Core Potentials
   Marius Retegan         : Local ZFS, SOC
   Christoph Riplinger    : Optimizer, TS searches, QM/MM, DLPNO-CCSD(T), (RO)-DLPNO pert. Triples
   Tobias Risthaus        : Range-separated hybrids, TD-DFT gradient, RPA, STAB
   Michael Roemelt        : Restricted open shell CIS
   Masaaki Saitow         : Open-shell DLPNO
   Barbara Sandhoefer     : DKH picture change effects
   Avijit Sen             : IP-ROCIS
   Kantharuban Sivalingam : CASSCF convergence, NEVPT2, FIC-MRCI
   Bernardo de Souza      : ESD, SOC TD-DFT
   Georgi Stoychev        : AutoAux, RI-MP2 NMR
   Willem Van den Heuvel  : Paramagnetic NMR
   Boris Wezisla          : Elementary symmetry handling
   Frank Wennmohs         : Technical directorship


 We gratefully acknowledge several colleagues who have allowed us to
 interface, adapt or use parts of their codes:
   Stefan Grimme, W. Hujo, H. Kruse,             : VdW corrections, initial TS optimization,
                  C. Bannwarth                     DFT functionals, gCP, sTDA/sTD-DF
   Ed Valeev                                     : LibInt (2-el integral package), F12 methods
   Garnet Chan, S. Sharma, J. Yang, R. Olivares  : DMRG
   Ulf Ekstrom                                   : XCFun DFT Library
   Mihaly Kallay                                 : mrcc  (arbitrary order and MRCC methods)
   Andreas Klamt, Michael Diedenhofen            : otool_cosmo (COSMO solvation model)
   Jiri Pittner, Ondrej Demel                    : Mk-CCSD
   Frank Weinhold                                : gennbo (NPA and NBO analysis)
   Christopher J. Cramer and Donald G. Truhlar   : smd solvation model
   Lars Goerigk                                  : TD-DFT with DH, B97 family of functionals
   V. Asgeirsson, H. Jonsson                     : NEB implementation
   FAccTs GmbH                                   : IRC, NEB, NEB-TS, Multilevel


 Your calculation uses the libint2 library for the computation of 2-el integrals
 For citations please refer to: http://libint.valeyev.net

 This ORCA versions uses:
   CBLAS   interface :  Fast vector & matrix operations
   LAPACKE interface :  Fast linear algebra routines
   SCALAPACK package :  Parallel linear algebra routines


----- Orbital basis set information -----
Your calculation utilizes the basis: aug-cc-pVTZ 
    H, B-Ne : Obtained from the ccRepo (grant-hill.group.shef.ac.uk/ccrepo) Feb. 2017
              R. A. Kendall, T. H. Dunning, Jr., R. J. Harrison, J. Chem. Phys. 96, 6796 (1992)
         He : Obtained from the ccRepo (grant-hill.group.shef.ac.uk/ccrepo) Feb. 2017
              D. E. Woon, T. H. Dunning, Jr., J. Chem. Phys. 100, 2975 (1994)
  Li-Be, Na : Obtained from the ccRepo (grant-hill.group.shef.ac.uk/ccrepo) Feb. 2017
              B. P. Prascher, D. E. Woon, K. A. Peterson, T. H. Dunning, Jr., A. K. Wilson, Theor. Chem. Acc. 128, 69 (2011)
         Mg : Obtained from the Peterson Research Group Website (tyr0.chem.wsu.edu/~kipeters) Feb. 2017
              B. P. Prascher, D. E. Woon, K. A. Peterson, T. H. Dunning, Jr., A. K. Wilson, Theor. Chem. Acc. 128, 69 (2011)
      Al-Ar : Obtained from the ccRepo (grant-hill.group.shef.ac.uk/ccrepo) Feb. 2017
              D. E. Woon, T. H. Dunning, Jr., J. Chem. Phys. 98, 1358 (1993)
      Sc-Zn : Obtained from the ccRepo (grant-hill.group.shef.ac.uk/ccrepo) Feb. 2017
              N. B. Balabanov, K. A. Peterson, J. Chem. Phys. 123, 064107 (2005)
              N. B. Balabanov, K. A. Peterson, J. Chem. Phys. 125, 074110 (2006)
      Ga-Kr : Obtained from the ccRepo (grant-hill.group.shef.ac.uk/ccrepo) Feb. 2017
              A. K. Wilson, D. E. Woon, K. A. Peterson, T. H. Dunning, Jr., J. Chem. Phys. 110, 7667 (1999)
     Ag, Au : Obtained from the Peterson Research Group Website (tyr0.chem.wsu.edu/~kipeters) Feb. 2017
              K. A. Peterson, C. Puzzarini, Theor. Chem. Acc. 114, 283 (2005)

----- AuxJ basis set information -----
Your calculation utilizes the AutoAux generation procedure.
  G. L. Stoychev, A. A. Auer, F. Neese, J. Chem. Theory Comput. 13, 554 (2017)

----- AuxC basis set information -----
Your calculation utilizes the auxiliary basis: aug-cc-pVTZ/C 
  H-He, B-F, Al-Ar, Ga-Kr : Obtained from the EMSL Basis Set Exchange (bse.pnl.gov) Feb. 2017
                            F. Weigend, A. Kohn, C. Hattig, J. Chem. Phys. 116, 3175 (2002)
                   Be, Mg : Obtained from the TURBOMOLE 7.0 basis set library
                            C. Haettig, Phys. Chem. Chem. Phys. 7, 59 (2005)
                       Ne : Obtained from the EMSL Basis Set Exchange (bse.pnl.gov) Feb. 2017
                            C. Haettig, Phys. Chem. Chem. Phys. 7, 59 (2005)
                            F. Weigend, A. Kohn, C. Hattig, J. Chem. Phys. 116, 3175 (2002)
                    Sc-Zn : Obtained from the EMSL Basis Set Exchange (bse.pnl.gov) Feb. 2017
                            J. G. Hill, J. A. Platts, J. Chem. Phys. 128, 044104 (2008)

----- AuxJK basis set information -----
Your calculation utilizes the AutoAux generation procedure.
  G. L. Stoychev, A. A. Auer, F. Neese, J. Chem. Theory Comput. 13, 554 (2017)

================================================================================
                                        WARNINGS
                       Please study these warnings very carefully!
================================================================================


WARNING: your system is open-shell and RHF/RKS was chosen
  ===> : WILL SWITCH to UHF/UKS


WARNING: MDCI localization with Augmented Hessian Foster-Boys
  ===> : Switching off randomization!

WARNING: Post HF methods need fully converged wavefunctions
  ===> : Setting SCFConvForced true
         You can overwrite this default with %scf ConvForced false 


INFO   : the flag for use of LIBINT has been found!

================================================================================
                                       INPUT FILE
================================================================================
NAME = simple-grid-210-290-b3lyp_d3bj-631gd-gas-singlepoint-DLPNO_CCSD_T1-NormalPNO-augtz-gas.inp
|  1> ! aug-cc-pVTZ aug-cc-pVTZ/C DLPNO-CCSD(T1) TightSCF NormalPNO UNO MiniPrint AutoAux
|  2> %pal nproc 10 end
|  3> %maxcore 20000
|  4> %mdci
|  5>      density none
|  6> end
|  7> 
|  8> * xyz 0 6
|  9>  O     -0.30576400     -0.18997400     -0.48258400
| 10>  C     -1.14436800     -1.14077500     -0.25071600
| 11>  C     -2.67324900     -0.24002100      0.87230200
| 12>  C     -3.03980200      0.68785800     -0.07701200
| 13>  C     -4.11747400      0.41708100     -1.07701800
| 14> Fe      1.53291500      0.17733900     -0.09633700
| 15> Cl      1.85465800      2.12157100     -1.04795100
| 16>  C     -2.31657100      1.98230100     -0.19233900
| 17> Cl      2.55642500     -1.54164600     -1.00160900
| 18> Cl      1.79960300      0.24404600      2.08874800
| 19>  H     -3.30707800     -1.12315900      0.94483200
| 20>  H     -2.79777900      2.67127500     -0.89008300
| 21>  H     -2.18262200      2.47373100      0.77630300
| 22>  H     -1.30122400      1.75931500     -0.56552800
| 23>  H     -4.94412000      1.11752300     -0.89187100
| 24>  H     -3.77455200      0.61614700     -2.10008700
| 25>  H     -4.51234500     -0.59919600     -1.01557900
| 26>  C     -1.95899900      0.17945000      2.14149100
| 27>  H     -2.54375400      0.94650600      2.66295100
| 28>  H     -1.84131400     -0.66243500      2.82558500
| 29>  H     -0.96709700      0.59391600      1.94640500
| 30>  C     -0.75234900     -2.17972000      0.78429400
| 31>  H     -1.59026800     -2.81277500      1.08375900
| 32>  H      0.00036500     -2.81017800      0.29131500
| 33>  H     -0.27839300     -1.73189800      1.65670100
| 34>  C     -1.83608100     -1.70083900     -1.47599500
| 35>  H     -1.11214200     -2.37283500     -1.95446200
| 36>  H     -2.72816200     -2.28106400     -1.22910000
| 37>  H     -2.07748600     -0.91542000     -2.19195900
| 38> *
| 39> 
| 40> 
| 41>                          ****END OF INPUT****
================================================================================

                       ****************************
                       * Single Point Calculation *
                       ****************************

---------------------------------
CARTESIAN COORDINATES (ANGSTROEM)
---------------------------------
  O     -0.305764   -0.189974   -0.482584
  C     -1.144368   -1.140775   -0.250716
  C     -2.673249   -0.240021    0.872302
  C     -3.039802    0.687858   -0.077012
  C     -4.117474    0.417081   -1.077018
  Fe     1.532915    0.177339   -0.096337
  Cl     1.854658    2.121571   -1.047951
  C     -2.316571    1.982301   -0.192339
  Cl     2.556425   -1.541646   -1.001609
  Cl     1.799603    0.244046    2.088748
  H     -3.307078   -1.123159    0.944832
  H     -2.797779    2.671275   -0.890083
  H     -2.182622    2.473731    0.776303
  H     -1.301224    1.759315   -0.565528
  H     -4.944120    1.117523   -0.891871
  H     -3.774552    0.616147   -2.100087
  H     -4.512345   -0.599196   -1.015579
  C     -1.958999    0.179450    2.141491
  H     -2.543754    0.946506    2.662951
  H     -1.841314   -0.662435    2.825585
  H     -0.967097    0.593916    1.946405
  C     -0.752349   -2.179720    0.784294
  H     -1.590268   -2.812775    1.083759
  H      0.000365   -2.810178    0.291315
  H     -0.278393   -1.731898    1.656701
  C     -1.836081   -1.700839   -1.475995
  H     -1.112142   -2.372835   -1.954462
  H     -2.728162   -2.281064   -1.229100
  H     -2.077486   -0.915420   -2.191959

----------------------------
CARTESIAN COORDINATES (A.U.)
----------------------------
  NO LB      ZA    FRAG     MASS         X           Y           Z
   0 O     8.0000    0    15.999   -0.577810   -0.358999   -0.911952
   1 C     6.0000    0    12.011   -2.162542   -2.155752   -0.473785
   2 C     6.0000    0    12.011   -5.051708   -0.453574    1.648412
   3 C     6.0000    0    12.011   -5.744393    1.299863   -0.145532
   4 C     6.0000    0    12.011   -7.780898    0.788169   -2.035269
   5 Fe   26.0000    0    55.850    2.896790    0.335122   -0.182051
   6 Cl   17.0000    0    35.453    3.504796    4.009188   -1.980340
   7 C     6.0000    0    12.011   -4.377685    3.746006   -0.363468
   8 Cl   17.0000    0    35.453    4.830943   -2.913289   -1.892767
   9 Cl   17.0000    0    35.453    3.400757    0.461180    3.947162
  10 H     1.0000    0     1.008   -6.249472   -2.122463    1.785474
  11 H     1.0000    0     1.008   -5.287036    5.047978   -1.682013
  12 H     1.0000    0     1.008   -4.124558    4.674674    1.467000
  13 H     1.0000    0     1.008   -2.458957    3.324624   -1.068693
  14 H     1.0000    0     1.008   -9.343033    2.111812   -1.685392
  15 H     1.0000    0     1.008   -7.132870    1.164349   -3.968589
  16 H     1.0000    0     1.008   -8.527096   -1.132316   -1.919166
  17 C     6.0000    0    12.011   -3.701972    0.339111    4.046832
  18 H     1.0000    0     1.008   -4.806998    1.788637    5.032248
  19 H     1.0000    0     1.008   -3.479579   -1.251821    5.339582
  20 H     1.0000    0     1.008   -1.827548    1.122339    3.678172
  21 C     6.0000    0    12.011   -1.421734   -4.119074    1.482101
  22 H     1.0000    0     1.008   -3.005171   -5.315374    2.048008
  23 H     1.0000    0     1.008    0.000690   -5.310467    0.550506
  24 H     1.0000    0     1.008   -0.526087   -3.272813    3.130711
  25 C     6.0000    0    12.011   -3.469690   -3.214120   -2.789226
  26 H     1.0000    0     1.008   -2.101644   -4.484008   -3.693398
  27 H     1.0000    0     1.008   -5.155479   -4.310586   -2.322662
  28 H     1.0000    0     1.008   -3.925880   -1.729893   -4.142202



           ************************************************************
           *        Program running with 10 parallel MPI-processes    *
           *              working on a common directory               *
           ************************************************************


           ************************************************************
           *        Program running with 10 parallel MPI-processes    *
           *              working on a common directory               *
           ************************************************************

Diagonalization of the overlap matrix:
Smallest eigenvalue                        ... 6.932e-07
Time for diagonalization                   ...    0.374 sec
Threshold for overlap eigenvalues          ... 1.000e-08
Number of eigenvalues below threshold      ... 0
Time for construction of square roots      ...    0.311 sec
Total time needed                          ...    0.689 sec

-------------------
DFT GRID GENERATION
-------------------

General Integration Accuracy     IntAcc      ...  4.340
Radial Grid Type                 RadialGrid  ... Gauss-Chebyshev
Angular Grid (max. acc.)         AngularGrid ... Lebedev-110
Angular grid pruning method      GridPruning ... 3 (G Style)
Weight generation scheme         WeightScheme... Becke
Basis function cutoff            BFCut       ...    1.0000e-11
Integration weight cutoff        WCut        ...    1.0000e-14
Grids for H and He will be reduced by one unit

# of grid points (after initial pruning)     ...  36112 (   0.0 sec)
# of grid points (after weights+screening)   ...  32380 (   0.1 sec)
nearest neighbour list constructed           ...    0.0 sec
Grid point re-assignment to atoms done       ...    0.0 sec
Grid point division into batches done        ...    0.0 sec
Reduced shell lists constructed in    0.3 sec

Total number of grid points                  ...    32380
Total number of batches                      ...      521
Average number of points per batch           ...       62
Average number of grid points per atom       ...     1117
Average number of shells per batch           ...   290.89 (84.81%)
Average number of basis functions per batch  ...   863.48 (84.24%)
Average number of large shells per batch     ...   237.81 (81.75%)
Average number of large basis fcns per batch ...   705.81 (81.74%)
Maximum spatial batch extension              ...   3.40,  3.76,  5.84 au
Average spatial batch extension              ...   0.18,  0.18,  0.18 au

Time for grid setup =    0.397 sec

Loading Hartree-Fock densities                     ... done
Calculating cut-offs                               ... done
Setting up the integral package                    ... done
Initializing the effective Hamiltonian             ... done
Starting the Coulomb interaction                   ... done (   1.1 sec)
Reading the grid                                   ... done
Mapping shells                                     ... done
Starting the XC term evaluation                    ... done (   0.9 sec)
Transforming the Hamiltonian                       ... done (   0.2 sec)
Diagonalizing the Hamiltonian                      ... done (   0.4 sec)
Back transforming the eigenvectors                 ... done (   0.1 sec)
Now organizing SCF variables                       ... done
--------------
SCF ITERATIONS
--------------
ITER       Energy         Delta-E        Max-DP      RMS-DP      [F,P]     Damp
               ***  Starting incremental Fock matrix formation  ***
  0  -3027.5710078183   0.000000000000 0.27894392  0.00107061  0.2630293 0.7000
  1  -3027.8207812622  -0.249773443855 0.21559728  0.00084101  0.1587118 0.7000
                               ***Turning on DIIS***
  2  -3027.9887172130  -0.167935950843 0.15403423  0.00061965  0.1095428 0.7000
  3  -3029.5950614279  -1.606344214928 0.34267577  0.00154604  0.0820297 0.0000
  4  -3028.2923436565   1.302717771467 0.04720870  0.00021538  0.0209262 0.0000
  5  -3028.4059760860  -0.113632429587 0.03944376  0.00016991  0.0117112 0.0000
  6  -3028.4526432216  -0.046667135525 0.02088873  0.00007164  0.0055953 0.0000
  7  -3028.4683968776  -0.015753656065 0.00838651  0.00003304  0.0035030 0.0000
  8  -3028.4558306560   0.012566221643 0.00565996  0.00001885  0.0015825 0.0000
  9  -3028.4523455960   0.003485059966 0.00341387  0.00001127  0.0007373 0.0000
 10  -3028.4407739069   0.011571689090 0.00085203  0.00000306  0.0003493 0.0000
 11  -3028.4454389261  -0.004665019203 0.00044601  0.00000167  0.0000869 0.0000
 12  -3028.4432948686   0.002144057533 0.00027168  0.00000126  0.0000221 0.0000
 13  -3028.4434401377  -0.000145269044 0.00090198  0.00000191  0.0000105 0.0000
 14  -3028.4434991553  -0.000059017689 0.00021245  0.00000169  0.0000034 0.0000
 15  -3028.4434155654   0.000083589959 0.00127609  0.00000247  0.0000022 0.0000
 16  -3028.4434473419  -0.000031776557 0.00042269  0.00000143  0.0000017 0.0000
                            ***DIIS convergence achieved***

               *****************************************************
               *                     SUCCESS                       *
               *           SCF CONVERGED AFTER  17 CYCLES          *
               *****************************************************

Total Energy       :        -3028.44346205 Eh          -82408.13615 eV
  Last Energy change         ...   -1.4709e-05  Tolerance :   1.0000e-08
  Last MAX-Density change    ...    1.0046e-03  Tolerance :   1.0000e-07
             **** THE GBW FILE WAS UPDATED (simple-grid-210-290-b3lyp_d3bj-631gd-gas-singlepoint-DLPNO_CCSD_T1-NormalPNO-augtz-gas.gbw) ****
             **** DENSITY FILE WAS UPDATED (simple-grid-210-290-b3lyp_d3bj-631gd-gas-singlepoint-DLPNO_CCSD_T1-NormalPNO-augtz-gas.scfp.tmp) ****
             **** ENERGY FILE WAS UPDATED (simple-grid-210-290-b3lyp_d3bj-631gd-gas-singlepoint-DLPNO_CCSD_T1-NormalPNO-augtz-gas.en.tmp) ****
----------------------
UHF SPIN CONTAMINATION
----------------------

Expectation value of <S**2>     :     8.765686
Ideal value S*(S+1) for S=2.5   :     8.750000
Deviation                       :     0.015686

----------------
ORBITAL ENERGIES
----------------
                 SPIN UP ORBITALS
  NO   OCC          E(Eh)            E(eV) 
   0   1.0000    -261.558907     -7117.3797 
   1   1.0000    -104.780792     -2851.2303 
   2   1.0000    -104.778277     -2851.1619 
   3   1.0000    -104.777403     -2851.1381 
   4   1.0000     -32.226736      -876.9341 
   5   1.0000     -27.702988      -753.8366 
   6   1.0000     -27.702202      -753.8153 
   7   1.0000     -27.702056      -753.8113 
   8   1.0000     -20.581510      -560.0513 
   9   1.0000     -11.402339      -310.2734 
  10   1.0000     -11.326377      -308.2064 
  11   1.0000     -11.274373      -306.7913 
  12   1.0000     -11.268732      -306.6378 
  13   1.0000     -11.264510      -306.5229 
  14   1.0000     -11.259307      -306.3813 
  15   1.0000     -11.254007      -306.2371 
  16   1.0000     -11.244991      -305.9918 
  17   1.0000     -10.507447      -285.9222 
  18   1.0000     -10.504912      -285.8532 
  19   1.0000     -10.504002      -285.8284 
  20   1.0000      -7.974298      -216.9917 
  21   1.0000      -7.973501      -216.9700 
  22   1.0000      -7.973480      -216.9694 
  23   1.0000      -7.971780      -216.9232 
  24   1.0000      -7.971012      -216.9023 
  25   1.0000      -7.970930      -216.9000 
  26   1.0000      -7.970814      -216.8969 
  27   1.0000      -7.970132      -216.8783 
  28   1.0000      -7.970042      -216.8759 
  29   1.0000      -4.581948      -124.6811 
  30   1.0000      -3.194931       -86.9385 
  31   1.0000      -3.193626       -86.9030 
  32   1.0000      -3.193349       -86.8955 
  33   1.0000      -1.423592       -38.7379 
  34   1.0000      -1.163442       -31.6589 
  35   1.0000      -1.085332       -29.5334 
  36   1.0000      -1.052863       -28.6499 
  37   1.0000      -1.047594       -28.5065 
  38   1.0000      -1.045119       -28.4391 
  39   1.0000      -1.037729       -28.2380 
  40   1.0000      -0.992687       -27.0124 
  41   1.0000      -0.989916       -26.9370 
  42   1.0000      -0.928083       -25.2544 
  43   1.0000      -0.915976       -24.9250 
  44   1.0000      -0.911189       -24.7947 
  45   1.0000      -0.911115       -24.7927 
  46   1.0000      -0.901198       -24.5228 
  47   1.0000      -0.900815       -24.5124 
  48   1.0000      -0.796208       -21.6659 
  49   1.0000      -0.757793       -20.6206 
  50   1.0000      -0.691537       -18.8177 
  51   1.0000      -0.684027       -18.6133 
  52   1.0000      -0.680278       -18.5113 
  53   1.0000      -0.674716       -18.3600 
  54   1.0000      -0.646967       -17.6049 
  55   1.0000      -0.624423       -16.9914 
  56   1.0000      -0.603891       -16.4327 
  57   1.0000      -0.596388       -16.2285 
  58   1.0000      -0.582702       -15.8561 
  59   1.0000      -0.578742       -15.7484 
  60   1.0000      -0.570095       -15.5131 
  61   1.0000      -0.564505       -15.3610 
  62   1.0000      -0.559083       -15.2134 
  63   1.0000      -0.543120       -14.7791 
  64   1.0000      -0.536096       -14.5879 
  65   1.0000      -0.520521       -14.1641 
  66   1.0000      -0.518535       -14.1100 
  67   1.0000      -0.484117       -13.1735 
  68   1.0000      -0.466447       -12.6927 
  69   1.0000      -0.459096       -12.4926 
  70   1.0000      -0.433998       -11.8097 
  71   1.0000      -0.429453       -11.6860 
  72   1.0000      -0.426958       -11.6181 
  73   1.0000      -0.418738       -11.3945 
  74   1.0000      -0.417065       -11.3489 
  75   1.0000      -0.416349       -11.3294 
  76   1.0000      -0.381002       -10.3676 
  77   0.0000       0.008980         0.2443 
  78   0.0000       0.020438         0.5561 
  79   0.0000       0.021417         0.5828 
  80   0.0000       0.026719         0.7271 
  81   0.0000       0.033768         0.9189 
  82   0.0000       0.039541         1.0760 
  83   0.0000       0.040529         1.1028 
  84   0.0000       0.042820         1.1652 
  85   0.0000       0.045237         1.2310 
  86   0.0000       0.046043         1.2529 
  87   0.0000       0.057373         1.5612 
  88   0.0000       0.057558         1.5662 
  89   0.0000       0.060903         1.6573 
  90   0.0000       0.063328         1.7232 
  91   0.0000       0.064979         1.7682 
  92   0.0000       0.073138         1.9902 
  93   0.0000       0.075303         2.0491 
  94   0.0000       0.083669         2.2768 
  95   0.0000       0.088138         2.3984 
  96   0.0000       0.090960         2.4752 
  97   0.0000       0.092125         2.5068 
  98   0.0000       0.096830         2.6349 
  99   0.0000       0.098918         2.6917 
 100   0.0000       0.104615         2.8467 
 101   0.0000       0.104951         2.8559 
 102   0.0000       0.116837         3.1793 
 103   0.0000       0.118044         3.2121 
 104   0.0000       0.121541         3.3073 
 105   0.0000       0.123599         3.3633 
 106   0.0000       0.125217         3.4073 
 107   0.0000       0.130713         3.5569 
 108   0.0000       0.131398         3.5755 
 109   0.0000       0.135776         3.6946 
 110   0.0000       0.137892         3.7522 
 111   0.0000       0.141638         3.8542 
 112   0.0000       0.145233         3.9520 
 113   0.0000       0.149869         4.0781 
 114   0.0000       0.150715         4.1012 
 115   0.0000       0.155371         4.2279 
 116   0.0000       0.157142         4.2761 
 117   0.0000       0.159433         4.3384 
 118   0.0000       0.161402         4.3920 
 119   0.0000       0.162867         4.4318 
 120   0.0000       0.166124         4.5205 
 121   0.0000       0.169638         4.6161 
 122   0.0000       0.174104         4.7376 
 123   0.0000       0.177153         4.8206 
 124   0.0000       0.179405         4.8819 
 125   0.0000       0.180758         4.9187 
 126   0.0000       0.187130         5.0921 
 127   0.0000       0.189258         5.1500 
 128   0.0000       0.191986         5.2242 
 129   0.0000       0.198002         5.3879 
 130   0.0000       0.201195         5.4748 
 131   0.0000       0.204371         5.5612 
 132   0.0000       0.207209         5.6384 
 133   0.0000       0.210582         5.7302 
 134   0.0000       0.214477         5.8362 
 135   0.0000       0.216214         5.8835 
 136   0.0000       0.219461         5.9718 
 137   0.0000       0.222261         6.0480 
 138   0.0000       0.223938         6.0937 
 139   0.0000       0.226979         6.1764 
 140   0.0000       0.228919         6.2292 
 141   0.0000       0.235718         6.4142 
 142   0.0000       0.238058         6.4779 
 143   0.0000       0.243323         6.6212 
 144   0.0000       0.246097         6.6966 
 145   0.0000       0.251144         6.8340 
 146   0.0000       0.253808         6.9065 
 147   0.0000       0.254793         6.9333 
 148   0.0000       0.260452         7.0873 
 149   0.0000       0.262570         7.1449 
 150   0.0000       0.268949         7.3185 
 151   0.0000       0.274642         7.4734 
 152   0.0000       0.279005         7.5921 
 153   0.0000       0.280435         7.6310 
 154   0.0000       0.286731         7.8023 
 155   0.0000       0.290815         7.9135 
 156   0.0000       0.294326         8.0090 
 157   0.0000       0.295943         8.0530 
 158   0.0000       0.300240         8.1700 
 159   0.0000       0.301710         8.2099 
 160   0.0000       0.304980         8.2989 
 161   0.0000       0.313111         8.5202 
 162   0.0000       0.314356         8.5541 
 163   0.0000       0.320060         8.7093 
 164   0.0000       0.325026         8.8444 
 165   0.0000       0.330296         8.9878 
 166   0.0000       0.331952         9.0329 
 167   0.0000       0.334989         9.1155 
 168   0.0000       0.335313         9.1243 
 169   0.0000       0.339719         9.2442 
 170   0.0000       0.343664         9.3516 
 171   0.0000       0.349147         9.5008 
 172   0.0000       0.354588         9.6488 
 173   0.0000       0.356544         9.7020 
 174   0.0000       0.357336         9.7236 
 175   0.0000       0.360795         9.8177 
 176   0.0000       0.366018         9.9599 
 177   0.0000       0.368959        10.0399 
 178   0.0000       0.371465        10.1081 
 179   0.0000       0.375322        10.2130 
 180   0.0000       0.378407        10.2970 
 181   0.0000       0.380912        10.3651 
 182   0.0000       0.384527        10.4635 
 183   0.0000       0.387495        10.5443 
 184   0.0000       0.389755        10.6058 
 185   0.0000       0.392455        10.6792 
 186   0.0000       0.395826        10.7710 
 187   0.0000       0.400866        10.9081 
 188   0.0000       0.403706        10.9854 
 189   0.0000       0.407644        11.0926 
 190   0.0000       0.411020        11.1844 
 191   0.0000       0.413115        11.2414 
 192   0.0000       0.417057        11.3487 
 193   0.0000       0.421846        11.4790 
 194   0.0000       0.425661        11.5828 
 195   0.0000       0.431822        11.7505 
 196   0.0000       0.433794        11.8041 
 197   0.0000       0.434407        11.8208 
 198   0.0000       0.440145        11.9769 
 199   0.0000       0.445860        12.1325 
 200   0.0000       0.447200        12.1689 
 201   0.0000       0.453039        12.3278 
 202   0.0000       0.456599        12.4247 
 203   0.0000       0.457387        12.4461 
 204   0.0000       0.464850        12.6492 
 205   0.0000       0.465547        12.6682 
 206   0.0000       0.468940        12.7605 
 207   0.0000       0.470538        12.8040 
 208   0.0000       0.474468        12.9109 
 209   0.0000       0.478999        13.0342 
 210   0.0000       0.483583        13.1590 
 211   0.0000       0.487553        13.2670 
 212   0.0000       0.488604        13.2956 
 213   0.0000       0.493543        13.4300 
 214   0.0000       0.497134        13.5277 
 215   0.0000       0.500341        13.6150 
 216   0.0000       0.501241        13.6395 
 217   0.0000       0.507087        13.7985 
 218   0.0000       0.508205        13.8290 
 219   0.0000       0.510532        13.8923 
 220   0.0000       0.513263        13.9666 
 221   0.0000       0.516889        14.0653 
 222   0.0000       0.522514        14.2183 
 223   0.0000       0.524862        14.2822 
 224   0.0000       0.527754        14.3609 
 225   0.0000       0.529918        14.4198 
 226   0.0000       0.531262        14.4564 
 227   0.0000       0.539231        14.6732 
 228   0.0000       0.539388        14.6775 
 229   0.0000       0.543309        14.7842 
 230   0.0000       0.546297        14.8655 
 231   0.0000       0.547757        14.9052 
 232   0.0000       0.553731        15.0678 
 233   0.0000       0.556326        15.1384 
 234   0.0000       0.560345        15.2478 
 235   0.0000       0.563905        15.3446 
 236   0.0000       0.569753        15.5038 
 237   0.0000       0.573325        15.6010 
 238   0.0000       0.577877        15.7248 
 239   0.0000       0.579611        15.7720 
 240   0.0000       0.580870        15.8063 
 241   0.0000       0.583321        15.8730 
 242   0.0000       0.587053        15.9745 
 243   0.0000       0.591157        16.0862 
 244   0.0000       0.596970        16.2444 
 245   0.0000       0.600351        16.3364 
 246   0.0000       0.606612        16.5068 
 247   0.0000       0.607889        16.5415 
 248   0.0000       0.611919        16.6512 
 249   0.0000       0.617778        16.8106 
 250   0.0000       0.619204        16.8494 
 251   0.0000       0.621444        16.9104 
 252   0.0000       0.625533        17.0216 
 253   0.0000       0.627318        17.0702 
 254   0.0000       0.633670        17.2431 
 255   0.0000       0.637904        17.3582 
 256   0.0000       0.646054        17.5800 
 257   0.0000       0.650750        17.7078 
 258   0.0000       0.653786        17.7904 
 259   0.0000       0.658672        17.9234 
 260   0.0000       0.660476        17.9725 
 261   0.0000       0.665145        18.0995 
 262   0.0000       0.670563        18.2469 
 263   0.0000       0.674621        18.3574 
 264   0.0000       0.677429        18.4338 
 265   0.0000       0.680593        18.5199 
 266   0.0000       0.686577        18.6827 
 267   0.0000       0.688046        18.7227 
 268   0.0000       0.697904        18.9909 
 269   0.0000       0.698424        19.0051 
 270   0.0000       0.700903        19.0725 
 271   0.0000       0.707582        19.2543 
 272   0.0000       0.711420        19.3587 
 273   0.0000       0.717228        19.5168 
 274   0.0000       0.722478        19.6596 
 275   0.0000       0.726450        19.7677 
 276   0.0000       0.730019        19.8648 
 277   0.0000       0.732401        19.9297 
 278   0.0000       0.737056        20.0563 
 279   0.0000       0.738242        20.0886 
 280   0.0000       0.744246        20.2520 
 281   0.0000       0.749761        20.4020 
 282   0.0000       0.757104        20.6018 
 283   0.0000       0.757604        20.6155 
 284   0.0000       0.772371        21.0173 
 285   0.0000       0.781419        21.2635 
 286   0.0000       0.782203        21.2848 
 287   0.0000       0.790998        21.5242 
 288   0.0000       0.793600        21.5950 
 289   0.0000       0.794884        21.6299 
 290   0.0000       0.801040        21.7974 
 291   0.0000       0.813495        22.1363 
 292   0.0000       0.818848        22.2820 
 293   0.0000       0.825165        22.4539 
 294   0.0000       0.832410        22.6510 
 295   0.0000       0.839244        22.8370 
 296   0.0000       0.840216        22.8635 
 297   0.0000       0.846358        23.0306 
 298   0.0000       0.849647        23.1201 
 299   0.0000       0.853878        23.2352 
 300   0.0000       0.859406        23.3856 
 301   0.0000       0.863789        23.5049 
 302   0.0000       0.869752        23.6671 
 303   0.0000       0.872944        23.7540 
 304   0.0000       0.879961        23.9450 
 305   0.0000       0.881245        23.9799 
 306   0.0000       0.889065        24.1927 
 307   0.0000       0.891838        24.2682 
 308   0.0000       0.900932        24.5156 
 309   0.0000       0.901988        24.5443 
 310   0.0000       0.904389        24.6097 
 311   0.0000       0.912001        24.8168 
 312   0.0000       0.914947        24.8970 
 313   0.0000       0.917059        24.9544 
 314   0.0000       0.918956        25.0061 
 315   0.0000       0.921757        25.0823 
 316   0.0000       0.932155        25.3652 
 317   0.0000       0.935769        25.4636 
 318   0.0000       0.941490        25.6192 
 319   0.0000       0.943812        25.6824 
 320   0.0000       0.947291        25.7771 
 321   0.0000       0.950625        25.8678 
 322   0.0000       0.952708        25.9245 
 323   0.0000       0.958464        26.0811 
 324   0.0000       0.959991        26.1227 
 325   0.0000       0.965367        26.2690 
 326   0.0000       0.969006        26.3680 
 327   0.0000       0.972179        26.4543 
 328   0.0000       0.977607        26.6020 
 329   0.0000       0.980587        26.6831 
 330   0.0000       0.983984        26.7756 
 331   0.0000       0.987252        26.8645 
 332   0.0000       0.991514        26.9805 
 333   0.0000       0.994939        27.0737 
 334   0.0000       0.995773        27.0964 
 335   0.0000       0.999608        27.2007 
 336   0.0000       1.004713        27.3396 
 337   0.0000       1.005526        27.3618 
 338   0.0000       1.010587        27.4995 
 339   0.0000       1.015814        27.6417 
 340   0.0000       1.019834        27.7511 
 341   0.0000       1.022856        27.8333 
 342   0.0000       1.027686        27.9647 
 343   0.0000       1.031734        28.0749 
 344   0.0000       1.033245        28.1160 
 345   0.0000       1.036475        28.2039 
 346   0.0000       1.041195        28.3324 
 347   0.0000       1.043411        28.3927 
 348   0.0000       1.046674        28.4815 
 349   0.0000       1.050796        28.5936 
 350   0.0000       1.056643        28.7527 
 351   0.0000       1.058339        28.7989 
 352   0.0000       1.063305        28.9340 
 353   0.0000       1.068554        29.0768 
 354   0.0000       1.072432        29.1824 
 355   0.0000       1.074612        29.2417 
 356   0.0000       1.080108        29.3912 
 357   0.0000       1.082943        29.4684 
 358   0.0000       1.086206        29.5572 
 359   0.0000       1.088746        29.6263 
 360   0.0000       1.090614        29.6771 
 361   0.0000       1.097032        29.8518 
 362   0.0000       1.099933        29.9307 
 363   0.0000       1.108532        30.1647 
 364   0.0000       1.110441        30.2166 
 365   0.0000       1.112686        30.2777 
 366   0.0000       1.115080        30.3429 
 367   0.0000       1.124185        30.5906 
 368   0.0000       1.127337        30.6764 
 369   0.0000       1.132501        30.8169 
 370   0.0000       1.136104        30.9150 
 371   0.0000       1.137369        30.9494 
 372   0.0000       1.139928        31.0190 
 373   0.0000       1.145650        31.1747 
 374   0.0000       1.150827        31.3156 
 375   0.0000       1.152662        31.3655 
 376   0.0000       1.159150        31.5421 
 377   0.0000       1.168316        31.7915 
 378   0.0000       1.172897        31.9161 
 379   0.0000       1.178267        32.0623 
 380   0.0000       1.179267        32.0895 
 381   0.0000       1.188373        32.3373 
 382   0.0000       1.190484        32.3947 
 383   0.0000       1.194951        32.5163 
 384   0.0000       1.199511        32.6404 
 385   0.0000       1.201109        32.6838 
 386   0.0000       1.208713        32.8908 
 387   0.0000       1.213938        33.0329 
 388   0.0000       1.214921        33.0597 
 389   0.0000       1.219075        33.1727 
 390   0.0000       1.225103        33.3368 
 391   0.0000       1.228577        33.4313 
 392   0.0000       1.234637        33.5962 
 393   0.0000       1.239504        33.7286 
 394   0.0000       1.247860        33.9560 
 395   0.0000       1.250852        34.0374 
 396   0.0000       1.256945        34.2032 
 397   0.0000       1.260834        34.3090 
 398   0.0000       1.264586        34.4111 
 399   0.0000       1.269004        34.5314 
 400   0.0000       1.276735        34.7417 
 401   0.0000       1.280317        34.8392 
 402   0.0000       1.283676        34.9306 
 403   0.0000       1.291629        35.1470 
 404   0.0000       1.292979        35.1837 
 405   0.0000       1.298951        35.3463 
 406   0.0000       1.302249        35.4360 
 407   0.0000       1.308101        35.5952 
 408   0.0000       1.309836        35.6425 
 409   0.0000       1.311842        35.6970 
 410   0.0000       1.318805        35.8865 
 411   0.0000       1.319850        35.9149 
 412   0.0000       1.329573        36.1795 
 413   0.0000       1.334276        36.3075 
 414   0.0000       1.343099        36.5476 
 415   0.0000       1.352066        36.7916 
 416   0.0000       1.354700        36.8633 
 417   0.0000       1.360128        37.0110 
 418   0.0000       1.362785        37.0833 
 419   0.0000       1.364777        37.1375 
 420   0.0000       1.374177        37.3933 
 421   0.0000       1.381671        37.5972 
 422   0.0000       1.387148        37.7462 
 423   0.0000       1.393367        37.9154 
 424   0.0000       1.403865        38.2011 
 425   0.0000       1.404770        38.2257 
 426   0.0000       1.408067        38.3154 
 427   0.0000       1.421321        38.6761 
 428   0.0000       1.423962        38.7480 
 429   0.0000       1.430380        38.9226 
 430   0.0000       1.431395        38.9502 
 431   0.0000       1.433951        39.0198 
 432   0.0000       1.439602        39.1736 
 433   0.0000       1.448206        39.4077 
 434   0.0000       1.452761        39.5316 
 435   0.0000       1.455436        39.6044 
 436   0.0000       1.458438        39.6861 
 437   0.0000       1.462861        39.8065 
 438   0.0000       1.465795        39.8863 
 439   0.0000       1.475921        40.1619 
 440   0.0000       1.480189        40.2780 
 441   0.0000       1.481219        40.3060 
 442   0.0000       1.486556        40.4512 
 443   0.0000       1.498215        40.7685 
 444   0.0000       1.500459        40.8296 
 445   0.0000       1.507903        41.0321 
 446   0.0000       1.514871        41.2217 
 447   0.0000       1.516616        41.2692 
 448   0.0000       1.519760        41.3548 
 449   0.0000       1.529093        41.6087 
 450   0.0000       1.532554        41.7029 
 451   0.0000       1.540103        41.9083 
 452   0.0000       1.544190        42.0196 
 453   0.0000       1.547550        42.1110 
 454   0.0000       1.550483        42.1908 
 455   0.0000       1.562200        42.5096 
 456   0.0000       1.564764        42.5794 
 457   0.0000       1.565456        42.5982 
 458   0.0000       1.575884        42.8820 
 459   0.0000       1.578420        42.9510 
 460   0.0000       1.584936        43.1283 
 461   0.0000       1.586290        43.1651 
 462   0.0000       1.592105        43.3234 
 463   0.0000       1.602540        43.6073 
 464   0.0000       1.604573        43.6627 
 465   0.0000       1.609614        43.7998 
 466   0.0000       1.615505        43.9601 
 467   0.0000       1.622842        44.1598 
 468   0.0000       1.626372        44.2558 
 469   0.0000       1.632834        44.4317 
 470   0.0000       1.634629        44.4805 
 471   0.0000       1.642766        44.7019 
 472   0.0000       1.651858        44.9493 
 473   0.0000       1.655209        45.0405 
 474   0.0000       1.660263        45.1781 
 475   0.0000       1.663755        45.2731 
 476   0.0000       1.668115        45.3917 
 477   0.0000       1.676197        45.6116 
 478   0.0000       1.683156        45.8010 
 479   0.0000       1.686251        45.8852 
 480   0.0000       1.690002        45.9873 
 481   0.0000       1.692877        46.0655 
 482   0.0000       1.694311        46.1045 
 483   0.0000       1.700106        46.2622 
 484   0.0000       1.705889        46.4196 
 485   0.0000       1.711510        46.5726 
 486   0.0000       1.716989        46.7216 
 487   0.0000       1.719727        46.7962 
 488   0.0000       1.733076        47.1594 
 489   0.0000       1.735854        47.2350 
 490   0.0000       1.740922        47.3729 
 491   0.0000       1.747102        47.5411 
 492   0.0000       1.753155        47.7058 
 493   0.0000       1.755348        47.7655 
 494   0.0000       1.763620        47.9905 
 495   0.0000       1.770974        48.1907 
 496   0.0000       1.779390        48.4197 
 497   0.0000       1.786112        48.6026 
 498   0.0000       1.791062        48.7373 
 499   0.0000       1.794979        48.8439 
 500   0.0000       1.799168        48.9579 
 501   0.0000       1.806369        49.1538 
 502   0.0000       1.809616        49.2422 
 503   0.0000       1.816114        49.4190 
 504   0.0000       1.821768        49.5728 
 505   0.0000       1.824340        49.6428 
 506   0.0000       1.827167        49.7197 
 507   0.0000       1.835754        49.9534 
 508   0.0000       1.843195        50.1559 
 509   0.0000       1.844863        50.2013 
 510   0.0000       1.851069        50.3701 
 511   0.0000       1.856779        50.5255 
 512   0.0000       1.858656        50.5766 
 513   0.0000       1.864182        50.7270 
 514   0.0000       1.867458        50.8161 
 515   0.0000       1.872682        50.9583 
 516   0.0000       1.877310        51.0842 
 517   0.0000       1.881729        51.2045 
 518   0.0000       1.889233        51.4086 
 519   0.0000       1.896135        51.5965 
 520   0.0000       1.903656        51.8011 
 521   0.0000       1.906081        51.8671 
 522   0.0000       1.909049        51.9479 
 523   0.0000       1.914423        52.0941 
 524   0.0000       1.920648        52.2635 
 525   0.0000       1.925003        52.3820 
 526   0.0000       1.925430        52.3936 
 527   0.0000       1.931550        52.5601 
 528   0.0000       1.937119        52.7117 
 529   0.0000       1.944802        52.9208 
 530   0.0000       1.947553        52.9956 
 531   0.0000       1.963337        53.4251 
 532   0.0000       1.965748        53.4907 
 533   0.0000       1.969901        53.6037 
 534   0.0000       1.972031        53.6617 
 535   0.0000       1.980726        53.8983 
 536   0.0000       1.988723        54.1159 
 537   0.0000       1.995071        54.2886 
 538   0.0000       2.000428        54.4344 
 539   0.0000       2.008199        54.6459 
 540   0.0000       2.014683        54.8223 
 541   0.0000       2.017558        54.9005 
 542   0.0000       2.029770        55.2328 
 543   0.0000       2.036363        55.4122 
 544   0.0000       2.040081        55.5134 
 545   0.0000       2.047880        55.7256 
 546   0.0000       2.053378        55.8752 
 547   0.0000       2.061794        56.1043 
 548   0.0000       2.065981        56.2182 
 549   0.0000       2.074768        56.4573 
 550   0.0000       2.079528        56.5868 
 551   0.0000       2.089039        56.8456 
 552   0.0000       2.093324        56.9622 
 553   0.0000       2.094907        57.0053 
 554   0.0000       2.102875        57.2221 
 555   0.0000       2.113828        57.5202 
 556   0.0000       2.119679        57.6794 
 557   0.0000       2.129520        57.9472 
 558   0.0000       2.137369        58.1608 
 559   0.0000       2.145458        58.3809 
 560   0.0000       2.150684        58.5231 
 561   0.0000       2.154414        58.6246 
 562   0.0000       2.160922        58.8017 
 563   0.0000       2.167629        58.9842 
 564   0.0000       2.171957        59.1020 
 565   0.0000       2.183791        59.4240 
 566   0.0000       2.196136        59.7599 
 567   0.0000       2.197667        59.8016 
 568   0.0000       2.203111        59.9497 
 569   0.0000       2.211247        60.1711 
 570   0.0000       2.223567        60.5063 
 571   0.0000       2.224555        60.5332 
 572   0.0000       2.236124        60.8480 
 573   0.0000       2.238876        60.9229 
 574   0.0000       2.239743        60.9465 
 575   0.0000       2.248215        61.1770 
 576   0.0000       2.258449        61.4555 
 577   0.0000       2.268204        61.7210 
 578   0.0000       2.273561        61.8668 
 579   0.0000       2.287753        62.2529 
 580   0.0000       2.292903        62.3931 
 581   0.0000       2.300244        62.5928 
 582   0.0000       2.305256        62.7292 
 583   0.0000       2.310460        62.8708 
 584   0.0000       2.314905        62.9918 
 585   0.0000       2.318569        63.0915 
 586   0.0000       2.320220        63.1364 
 587   0.0000       2.342039        63.7301 
 588   0.0000       2.348494        63.9058 
 589   0.0000       2.353559        64.0436 
 590   0.0000       2.363262        64.3076 
 591   0.0000       2.374631        64.6170 
 592   0.0000       2.375971        64.6535 
 593   0.0000       2.382194        64.8228 
 594   0.0000       2.390480        65.0483 
 595   0.0000       2.392042        65.0908 
 596   0.0000       2.413367        65.6711 
 597   0.0000       2.419966        65.8506 
 598   0.0000       2.426489        66.0281 
 599   0.0000       2.434725        66.2522 
 600   0.0000       2.451359        66.7049 
 601   0.0000       2.456441        66.8431 
 602   0.0000       2.458694        66.9045 
 603   0.0000       2.472261        67.2736 
 604   0.0000       2.478624        67.4468 
 605   0.0000       2.489505        67.7429 
 606   0.0000       2.497607        67.9633 
 607   0.0000       2.517773        68.5121 
 608   0.0000       2.528659        68.8083 
 609   0.0000       2.534879        68.9776 
 610   0.0000       2.545247        69.2597 
 611   0.0000       2.555489        69.5384 
 612   0.0000       2.575062        70.0710 
 613   0.0000       2.597780        70.6892 
 614   0.0000       2.610739        71.0418 
 615   0.0000       2.616291        71.1929 
 616   0.0000       2.620982        71.3205 
 617   0.0000       2.635521        71.7162 
 618   0.0000       2.643474        71.9326 
 619   0.0000       2.647307        72.0369 
 620   0.0000       2.665952        72.5442 
 621   0.0000       2.668696        72.6189 
 622   0.0000       2.673015        72.7364 
 623   0.0000       2.685142        73.0664 
 624   0.0000       2.687290        73.1249 
 625   0.0000       2.701248        73.5047 
 626   0.0000       2.709024        73.7163 
 627   0.0000       2.714802        73.8735 
 628   0.0000       2.719033        73.9886 
 629   0.0000       2.727346        74.2149 
 630   0.0000       2.736801        74.4721 
 631   0.0000       2.740300        74.5673 
 632   0.0000       2.748345        74.7863 
 633   0.0000       2.757827        75.0443 
 634   0.0000       2.764721        75.2319 
 635   0.0000       2.778494        75.6067 
 636   0.0000       2.789521        75.9067 
 637   0.0000       2.807196        76.3877 
 638   0.0000       2.830289        77.0161 
 639   0.0000       2.836236        77.1779 
 640   0.0000       2.852963        77.6331 
 641   0.0000       2.865468        77.9733 
 642   0.0000       2.874490        78.2189 
 643   0.0000       2.885648        78.5225 
 644   0.0000       2.889326        78.6225 
 645   0.0000       2.915579        79.3370 
 646   0.0000       2.918209        79.4085 
 647   0.0000       2.927245        79.6544 
 648   0.0000       2.936820        79.9149 
 649   0.0000       2.949110        80.2494 
 650   0.0000       2.964111        80.6575 
 651   0.0000       2.969158        80.7949 
 652   0.0000       2.991383        81.3997 
 653   0.0000       3.024583        82.3031 
 654   0.0000       3.035932        82.6119 
 655   0.0000       3.037462        82.6536 
 656   0.0000       3.059836        83.2624 
 657   0.0000       3.074218        83.6537 
 658   0.0000       3.082164        83.8700 
 659   0.0000       3.095243        84.2259 
 660   0.0000       3.113274        84.7165 
 661   0.0000       3.135901        85.3322 
 662   0.0000       3.145043        85.5810 
 663   0.0000       3.148869        85.6851 
 664   0.0000       3.171199        86.2927 
 665   0.0000       3.178688        86.4965 
 666   0.0000       3.196483        86.9807 
 667   0.0000       3.206544        87.2545 
 668   0.0000       3.212445        87.4151 
 669   0.0000       3.227742        87.8313 
 670   0.0000       3.236820        88.0783 
 671   0.0000       3.239132        88.1413 
 672   0.0000       3.248399        88.3934 
 673   0.0000       3.252976        88.5180 
 674   0.0000       3.258832        88.6773 
 675   0.0000       3.272024        89.0363 
 676   0.0000       3.287558        89.4590 
 677   0.0000       3.298166        89.7477 
 678   0.0000       3.302957        89.8780 
 679   0.0000       3.313484        90.1645 
 680   0.0000       3.315290        90.2136 
 681   0.0000       3.335880        90.7739 
 682   0.0000       3.339818        90.8811 
 683   0.0000       3.349548        91.1458 
 684   0.0000       3.354695        91.2859 
 685   0.0000       3.363996        91.5390 
 686   0.0000       3.368649        91.6656 
 687   0.0000       3.383936        92.0816 
 688   0.0000       3.391403        92.2848 
 689   0.0000       3.409027        92.7643 
 690   0.0000       3.414354        92.9093 
 691   0.0000       3.427164        93.2579 
 692   0.0000       3.428932        93.3060 
 693   0.0000       3.440889        93.6313 
 694   0.0000       3.451976        93.9330 
 695   0.0000       3.463656        94.2509 
 696   0.0000       3.475671        94.5778 
 697   0.0000       3.481376        94.7331 
 698   0.0000       3.486491        94.8722 
 699   0.0000       3.496797        95.1527 
 700   0.0000       3.499626        95.2297 
 701   0.0000       3.510400        95.5229 
 702   0.0000       3.514140        95.6246 
 703   0.0000       3.525949        95.9459 
 704   0.0000       3.529704        96.0481 
 705   0.0000       3.531301        96.0916 
 706   0.0000       3.546676        96.5100 
 707   0.0000       3.553362        96.6919 
 708   0.0000       3.559793        96.8669 
 709   0.0000       3.572251        97.2059 
 710   0.0000       3.581442        97.4560 
 711   0.0000       3.589453        97.6740 
 712   0.0000       3.593159        97.7748 
 713   0.0000       3.609595        98.2221 
 714   0.0000       3.613787        98.3362 
 715   0.0000       3.624970        98.6405 
 716   0.0000       3.632124        98.8351 
 717   0.0000       3.641829        99.0992 
 718   0.0000       3.648879        99.2910 
 719   0.0000       3.658624        99.5562 
 720   0.0000       3.671343        99.9023 
 721   0.0000       3.683788       100.2410 
 722   0.0000       3.695554       100.5611 
 723   0.0000       3.702342       100.7459 
 724   0.0000       3.707500       100.8862 
 725   0.0000       3.713215       101.0417 
 726   0.0000       3.719070       101.2010 
 727   0.0000       3.731864       101.5492 
 728   0.0000       3.736720       101.6813 
 729   0.0000       3.740765       101.7914 
 730   0.0000       3.756284       102.2137 
 731   0.0000       3.760843       102.3377 
 732   0.0000       3.764095       102.4262 
 733   0.0000       3.770628       102.6040 
 734   0.0000       3.781330       102.8952 
 735   0.0000       3.782343       102.9228 
 736   0.0000       3.788763       103.0975 
 737   0.0000       3.800805       103.4252 
 738   0.0000       3.803198       103.4903 
 739   0.0000       3.807904       103.6183 
 740   0.0000       3.819935       103.9457 
 741   0.0000       3.827094       104.1405 
 742   0.0000       3.835456       104.3681 
 743   0.0000       3.844576       104.6162 
 744   0.0000       3.851299       104.7992 
 745   0.0000       3.854104       104.8755 
 746   0.0000       3.862021       105.0909 
 747   0.0000       3.868188       105.2587 
 748   0.0000       3.875298       105.4522 
 749   0.0000       3.879753       105.5735 
 750   0.0000       3.887560       105.7859 
 751   0.0000       3.904133       106.2368 
 752   0.0000       3.908456       106.3545 
 753   0.0000       3.911109       106.4267 
 754   0.0000       3.923636       106.7676 
 755   0.0000       3.928302       106.8945 
 756   0.0000       3.943296       107.3026 
 757   0.0000       3.944948       107.3475 
 758   0.0000       3.951435       107.5240 
 759   0.0000       3.960460       107.7696 
 760   0.0000       3.967795       107.9692 
 761   0.0000       3.971066       108.0582 
 762   0.0000       3.979910       108.2989 
 763   0.0000       3.987540       108.5065 
 764   0.0000       3.999959       108.8444 
 765   0.0000       4.006408       109.0199 
 766   0.0000       4.010084       109.1199 
 767   0.0000       4.015881       109.2777 
 768   0.0000       4.021053       109.4184 
 769   0.0000       4.029079       109.6368 
 770   0.0000       4.036960       109.8513 
 771   0.0000       4.047543       110.1393 
 772   0.0000       4.051244       110.2400 
 773   0.0000       4.056503       110.3831 
 774   0.0000       4.067467       110.6814 
 775   0.0000       4.078137       110.9718 
 776   0.0000       4.082024       111.0775 
 777   0.0000       4.095002       111.4307 
 778   0.0000       4.099402       111.5504 
 779   0.0000       4.105425       111.7143 
 780   0.0000       4.108478       111.7974 
 781   0.0000       4.117993       112.0563 
 782   0.0000       4.119709       112.1030 
 783   0.0000       4.142842       112.7325 
 784   0.0000       4.144214       112.7698 
 785   0.0000       4.154214       113.0419 
 786   0.0000       4.161137       113.2303 
 787   0.0000       4.172558       113.5411 
 788   0.0000       4.182510       113.8119 
 789   0.0000       4.188901       113.9858 
 790   0.0000       4.196616       114.1957 
 791   0.0000       4.203241       114.3760 
 792   0.0000       4.212837       114.6371 
 793   0.0000       4.218169       114.7822 
 794   0.0000       4.222553       114.9015 
 795   0.0000       4.229019       115.0775 
 796   0.0000       4.252492       115.7162 
 797   0.0000       4.255122       115.7878 
 798   0.0000       4.267754       116.1315 
 799   0.0000       4.278209       116.4160 
 800   0.0000       4.286526       116.6423 
 801   0.0000       4.293986       116.8453 
 802   0.0000       4.305724       117.1647 
 803   0.0000       4.308088       117.2290 
 804   0.0000       4.315566       117.4325 
 805   0.0000       4.325798       117.7109 
 806   0.0000       4.331530       117.8669 
 807   0.0000       4.334055       117.9356 
 808   0.0000       4.356350       118.5423 
 809   0.0000       4.361983       118.6956 
 810   0.0000       4.365970       118.8041 
 811   0.0000       4.380057       119.1874 
 812   0.0000       4.386069       119.3510 
 813   0.0000       4.397234       119.6548 
 814   0.0000       4.416136       120.1692 
 815   0.0000       4.421298       120.3096 
 816   0.0000       4.430403       120.5574 
 817   0.0000       4.439898       120.8158 
 818   0.0000       4.441986       120.8726 
 819   0.0000       4.452755       121.1656 
 820   0.0000       4.466207       121.5317 
 821   0.0000       4.480957       121.9330 
 822   0.0000       4.494793       122.3095 
 823   0.0000       4.496994       122.3694 
 824   0.0000       4.510308       122.7317 
 825   0.0000       4.519942       122.9939 
 826   0.0000       4.521098       123.0253 
 827   0.0000       4.537398       123.4689 
 828   0.0000       4.549083       123.7868 
 829   0.0000       4.558222       124.0355 
 830   0.0000       4.564839       124.2156 
 831   0.0000       4.572565       124.4258 
 832   0.0000       4.591835       124.9502 
 833   0.0000       4.596677       125.0819 
 834   0.0000       4.601308       125.2080 
 835   0.0000       4.605862       125.3319 
 836   0.0000       4.615788       125.6020 
 837   0.0000       4.636238       126.1585 
 838   0.0000       4.647065       126.4531 
 839   0.0000       4.656886       126.7203 
 840   0.0000       4.676917       127.2654 
 841   0.0000       4.690879       127.6453 
 842   0.0000       4.694460       127.7428 
 843   0.0000       4.708665       128.1293 
 844   0.0000       4.726734       128.6210 
 845   0.0000       4.739497       128.9683 
 846   0.0000       4.741314       129.0177 
 847   0.0000       4.749337       129.2360 
 848   0.0000       4.755511       129.4040 
 849   0.0000       4.774598       129.9234 
 850   0.0000       4.786014       130.2341 
 851   0.0000       4.788305       130.2964 
 852   0.0000       4.796231       130.5121 
 853   0.0000       4.798628       130.5773 
 854   0.0000       4.815043       131.0240 
 855   0.0000       4.832586       131.5014 
 856   0.0000       4.842405       131.7685 
 857   0.0000       4.848203       131.9263 
 858   0.0000       4.870809       132.5415 
 859   0.0000       4.883104       132.8760 
 860   0.0000       4.891037       133.0919 
 861   0.0000       4.899002       133.3086 
 862   0.0000       4.905251       133.4787 
 863   0.0000       4.927148       134.0745 
 864   0.0000       4.940222       134.4303 
 865   0.0000       4.950044       134.6976 
 866   0.0000       4.966877       135.1556 
 867   0.0000       4.972676       135.3134 
 868   0.0000       4.988852       135.7536 
 869   0.0000       4.989992       135.7846 
 870   0.0000       4.991347       135.8215 
 871   0.0000       5.010108       136.3320 
 872   0.0000       5.036889       137.0607 
 873   0.0000       5.037450       137.0760 
 874   0.0000       5.054853       137.5496 
 875   0.0000       5.058044       137.6364 
 876   0.0000       5.068167       137.9118 
 877   0.0000       5.080579       138.2496 
 878   0.0000       5.100721       138.7977 
 879   0.0000       5.108136       138.9995 
 880   0.0000       5.118382       139.2783 
 881   0.0000       5.119898       139.3195 
 882   0.0000       5.145549       140.0175 
 883   0.0000       5.157525       140.3434 
 884   0.0000       5.169117       140.6588 
 885   0.0000       5.175164       140.8234 
 886   0.0000       5.199593       141.4881 
 887   0.0000       5.202225       141.5597 
 888   0.0000       5.216965       141.9608 
 889   0.0000       5.222737       142.1179 
 890   0.0000       5.233248       142.4039 
 891   0.0000       5.249191       142.8377 
 892   0.0000       5.261189       143.1642 
 893   0.0000       5.267308       143.3307 
 894   0.0000       5.274308       143.5212 
 895   0.0000       5.292348       144.0121 
 896   0.0000       5.298663       144.1840 
 897   0.0000       5.321448       144.8040 
 898   0.0000       5.342082       145.3655 
 899   0.0000       5.365124       145.9924 
 900   0.0000       5.371879       146.1762 
 901   0.0000       5.383340       146.4881 
 902   0.0000       5.393246       146.7577 
 903   0.0000       5.398509       146.9009 
 904   0.0000       5.406102       147.1075 
 905   0.0000       5.410016       147.2140 
 906   0.0000       5.436504       147.9348 
 907   0.0000       5.447284       148.2281 
 908   0.0000       5.453794       148.4053 
 909   0.0000       5.470385       148.8567 
 910   0.0000       5.489848       149.3864 
 911   0.0000       5.494064       149.5011 
 912   0.0000       5.498847       149.6312 
 913   0.0000       5.520483       150.2200 
 914   0.0000       5.536168       150.6468 
 915   0.0000       5.546549       150.9293 
 916   0.0000       5.550422       151.0347 
 917   0.0000       5.572608       151.6384 
 918   0.0000       5.585731       151.9955 
 919   0.0000       5.593636       152.2106 
 920   0.0000       5.603954       152.4913 
 921   0.0000       5.626703       153.1104 
 922   0.0000       5.633203       153.2872 
 923   0.0000       5.645301       153.6164 
 924   0.0000       5.649895       153.7415 
 925   0.0000       5.657334       153.9439 
 926   0.0000       5.669787       154.2827 
 927   0.0000       5.681949       154.6137 
 928   0.0000       5.691977       154.8866 
 929   0.0000       5.698871       155.0742 
 930   0.0000       5.717342       155.5768 
 931   0.0000       5.731122       155.9517 
 932   0.0000       5.738255       156.1459 
 933   0.0000       5.747188       156.3889 
 934   0.0000       5.757757       156.6765 
 935   0.0000       5.781716       157.3285 
 936   0.0000       5.793722       157.6552 
 937   0.0000       5.802608       157.8970 
 938   0.0000       5.817548       158.3035 
 939   0.0000       5.837842       158.8558 
 940   0.0000       5.852007       159.2412 
 941   0.0000       5.872349       159.7947 
 942   0.0000       5.896705       160.4575 
 943   0.0000       5.905362       160.6931 
 944   0.0000       5.942523       161.7043 
 945   0.0000       5.966603       162.3595 
 946   0.0000       6.036994       164.2750 
 947   0.0000       6.063616       164.9994 
 948   0.0000       6.081201       165.4779 
 949   0.0000       6.123699       166.6343 
 950   0.0000       6.143953       167.1855 
 951   0.0000       6.155740       167.5062 
 952   0.0000       6.180006       168.1665 
 953   0.0000       6.190795       168.4601 
 954   0.0000       6.223727       169.3562 
 955   0.0000       6.226664       169.4361 
 956   0.0000       6.248440       170.0287 
 957   0.0000       6.262629       170.4148 
 958   0.0000       6.264908       170.4768 
 959   0.0000       6.294231       171.2747 
 960   0.0000       6.309222       171.6827 
 961   0.0000       6.319755       171.9693 
 962   0.0000       6.331499       172.2889 
 963   0.0000       6.353390       172.8845 
 964   0.0000       6.362354       173.1284 
 965   0.0000       6.366345       173.2371 
 966   0.0000       6.395828       174.0393 
 967   0.0000       6.409127       174.4012 
 968   0.0000       6.469629       176.0476 
 969   0.0000       6.512939       177.2261 
 970   0.0000       6.549999       178.2345 
 971   0.0000       6.661632       181.2722 
 972   0.0000       6.815618       185.4624 
 973   0.0000       6.847810       186.3384 
 974   0.0000       6.876681       187.1240 
 975   0.0000       6.904730       187.8872 
 976   0.0000       6.921942       188.3556 
 977   0.0000       6.942398       188.9122 
 978   0.0000       6.967169       189.5863 
 979   0.0000       6.981274       189.9701 
 980   0.0000       7.014525       190.8749 
 981   0.0000       7.029859       191.2922 
 982   0.0000       7.044575       191.6926 
 983   0.0000       7.053569       191.9374 
 984   0.0000       7.119927       193.7431 
 985   0.0000       7.169997       195.1055 
 986   0.0000       7.282159       198.1576 
 987   0.0000       7.351721       200.0505 
 988   0.0000       7.371018       200.5756 
 989   0.0000       7.455376       202.8711 
 990   0.0000       7.545849       205.3330 
 991   0.0000       7.592891       206.6131 
 992   0.0000       7.633412       207.7157 
 993   0.0000       7.725248       210.2147 
 994   0.0000       7.776754       211.6162 
 995   0.0000       7.909951       215.2407 
 996   0.0000       7.985353       217.2925 
 997   0.0000       8.101294       220.4474 
 998   0.0000       8.295271       225.7258 
 999   0.0000       9.428335       256.5580 
 1000   0.0000       9.440955       256.9014 
 1001   0.0000       9.448131       257.0967 
 1002   0.0000       9.459435       257.4043 
 1003   0.0000       9.469514       257.6786 
 1004   0.0000       9.497230       258.4328 
 1005   0.0000       9.709505       264.2091 
 1006   0.0000      10.097103       274.7561 
 1007   0.0000      10.106649       275.0159 
 1008   0.0000      10.131399       275.6894 
 1009   0.0000      10.215200       277.9697 
 1010   0.0000      10.220628       278.1174 
 1011   0.0000      10.253577       279.0140 
 1012   0.0000      10.376623       282.3623 
 1013   0.0000      10.406873       283.1854 
 1014   0.0000      10.519446       286.2487 
 1015   0.0000      15.125867       411.5958 
 1016   0.0000      17.266356       469.8414 
 1017   0.0000      18.075658       491.8637 
 1018   0.0000      18.406706       500.8719 
 1019   0.0000      18.585892       505.7478 
 1020   0.0000      18.917593       514.7739 
 1021   0.0000      19.024511       517.6833 
 1022   0.0000      19.894663       541.3613 
 1023   0.0000      20.640737       561.6630 
 1024   0.0000      21.780231       592.6702 

                 SPIN DOWN ORBITALS
  NO   OCC          E(Eh)            E(eV) 
   0   1.0000    -261.555344     -7117.2827 
   1   1.0000    -104.779342     -2851.1908 
   2   1.0000    -104.776795     -2851.1215 
   3   1.0000    -104.775930     -2851.0980 
   4   1.0000     -32.064674      -872.5241 
   5   1.0000     -27.542634      -749.4732 
   6   1.0000     -27.542565      -749.4713 
   7   1.0000     -27.542284      -749.4636 
   8   1.0000     -20.577408      -559.9397 
   9   1.0000     -11.402268      -310.2715 
  10   1.0000     -11.325679      -308.1874 
  11   1.0000     -11.274465      -306.7938 
  12   1.0000     -11.269070      -306.6470 
  13   1.0000     -11.264408      -306.5201 
  14   1.0000     -11.259316      -306.3816 
  15   1.0000     -11.254095      -306.2395 
  16   1.0000     -11.244970      -305.9912 
  17   1.0000     -10.505894      -285.8799 
  18   1.0000     -10.503327      -285.8101 
  19   1.0000     -10.502432      -285.7857 
  20   1.0000      -7.971793      -216.9235 
  21   1.0000      -7.971139      -216.9057 
  22   1.0000      -7.971078      -216.9040 
  23   1.0000      -7.969231      -216.8538 
  24   1.0000      -7.968576      -216.8360 
  25   1.0000      -7.968480      -216.8334 
  26   1.0000      -7.968406      -216.8314 
  27   1.0000      -7.967637      -216.8104 
  28   1.0000      -7.967540      -216.8078 
  29   1.0000      -4.139651      -112.6456 
  30   1.0000      -2.661316       -72.4181 
  31   1.0000      -2.661257       -72.4165 
  32   1.0000      -2.660692       -72.4011 
  33   1.0000      -1.413106       -38.4526 
  34   1.0000      -1.162054       -31.6211 
  35   1.0000      -1.082779       -29.4639 
  36   1.0000      -1.039466       -28.2853 
  37   1.0000      -1.036431       -28.2027 
  38   1.0000      -1.025589       -27.9077 
  39   1.0000      -1.023705       -27.8564 
  40   1.0000      -0.992316       -27.0023 
  41   1.0000      -0.989610       -26.9287 
  42   1.0000      -0.916544       -24.9404 
  43   1.0000      -0.810855       -22.0645 
  44   1.0000      -0.757949       -20.6248 
  45   1.0000      -0.694028       -18.8855 
  46   1.0000      -0.684087       -18.6149 
  47   1.0000      -0.680008       -18.5040 
  48   1.0000      -0.673902       -18.3378 
  49   1.0000      -0.646853       -17.6018 
  50   1.0000      -0.623603       -16.9691 
  51   1.0000      -0.603535       -16.4230 
  52   1.0000      -0.596004       -16.2181 
  53   1.0000      -0.582587       -15.8530 
  54   1.0000      -0.578715       -15.7476 
  55   1.0000      -0.569362       -15.4931 
  56   1.0000      -0.564502       -15.3609 
  57   1.0000      -0.559015       -15.2116 
  58   1.0000      -0.542323       -14.7574 
  59   1.0000      -0.533762       -14.5244 
  60   1.0000      -0.520318       -14.1586 
  61   1.0000      -0.509320       -13.8593 
  62   1.0000      -0.482336       -13.1250 
  63   1.0000      -0.471131       -12.8201 
  64   1.0000      -0.469453       -12.7745 
  65   1.0000      -0.441980       -12.0269 
  66   1.0000      -0.438740       -11.9387 
  67   1.0000      -0.436663       -11.8822 
  68   1.0000      -0.423022       -11.5110 
  69   1.0000      -0.416810       -11.3420 
  70   1.0000      -0.402078       -10.9411 
  71   1.0000      -0.379229       -10.3193 
  72   0.0000       0.008981         0.2444 
  73   0.0000       0.020430         0.5559 
  74   0.0000       0.021458         0.5839 
  75   0.0000       0.026559         0.7227 
  76   0.0000       0.033168         0.9026 
  77   0.0000       0.039423         1.0728 
  78   0.0000       0.040565         1.1038 
  79   0.0000       0.042514         1.1569 
  80   0.0000       0.044887         1.2214 
  81   0.0000       0.046102         1.2545 
  82   0.0000       0.057233         1.5574 
  83   0.0000       0.057561         1.5663 
  84   0.0000       0.060797         1.6544 
  85   0.0000       0.063230         1.7206 
  86   0.0000       0.064976         1.7681 
  87   0.0000       0.073022         1.9870 
  88   0.0000       0.075300         2.0490 
  89   0.0000       0.083622         2.2755 
  90   0.0000       0.087956         2.3934 
  91   0.0000       0.090571         2.4646 
  92   0.0000       0.092038         2.5045 
  93   0.0000       0.096784         2.6336 
  94   0.0000       0.098882         2.6907 
  95   0.0000       0.104195         2.8353 
  96   0.0000       0.104808         2.8520 
  97   0.0000       0.115082         3.1315 
  98   0.0000       0.116376         3.1667 
  99   0.0000       0.117256         3.1907 
 100   0.0000       0.118713         3.2303 
 101   0.0000       0.121637         3.3099 
 102   0.0000       0.122754         3.3403 
 103   0.0000       0.123555         3.3621 
 104   0.0000       0.126709         3.4479 
 105   0.0000       0.127336         3.4650 
 106   0.0000       0.129011         3.5106 
 107   0.0000       0.132852         3.6151 
 108   0.0000       0.134625         3.6633 
 109   0.0000       0.136954         3.7267 
 110   0.0000       0.139778         3.8036 
 111   0.0000       0.143323         3.9000 
 112   0.0000       0.146118         3.9761 
 113   0.0000       0.151112         4.1120 
 114   0.0000       0.152032         4.1370 
 115   0.0000       0.155909         4.2425 
 116   0.0000       0.158353         4.3090 
 117   0.0000       0.161653         4.3988 
 118   0.0000       0.162054         4.4097 
 119   0.0000       0.164760         4.4833 
 120   0.0000       0.166912         4.5419 
 121   0.0000       0.170136         4.6296 
 122   0.0000       0.175245         4.7687 
 123   0.0000       0.179145         4.8748 
 124   0.0000       0.180103         4.9008 
 125   0.0000       0.181307         4.9336 
 126   0.0000       0.189288         5.1508 
 127   0.0000       0.190634         5.1874 
 128   0.0000       0.192866         5.2481 
 129   0.0000       0.199392         5.4257 
 130   0.0000       0.202752         5.5172 
 131   0.0000       0.206653         5.6233 
 132   0.0000       0.211710         5.7609 
 133   0.0000       0.215036         5.8514 
 134   0.0000       0.216173         5.8824 
 135   0.0000       0.220046         5.9878 
 136   0.0000       0.224941         6.1210 
 137   0.0000       0.226393         6.1605 
 138   0.0000       0.229318         6.2401 
 139   0.0000       0.230330         6.2676 
 140   0.0000       0.232975         6.3396 
 141   0.0000       0.238228         6.4825 
 142   0.0000       0.241861         6.5814 
 143   0.0000       0.246096         6.6966 
 144   0.0000       0.249690         6.7944 
 145   0.0000       0.255255         6.9459 
 146   0.0000       0.257634         7.0106 
 147   0.0000       0.262215         7.1352 
 148   0.0000       0.263820         7.1789 
 149   0.0000       0.267569         7.2809 
 150   0.0000       0.273805         7.4506 
 151   0.0000       0.279562         7.6073 
 152   0.0000       0.281641         7.6638 
 153   0.0000       0.288232         7.8432 
 154   0.0000       0.291520         7.9327 
 155   0.0000       0.295765         8.0482 
 156   0.0000       0.298774         8.1301 
 157   0.0000       0.299881         8.1602 
 158   0.0000       0.302965         8.2441 
 159   0.0000       0.309473         8.4212 
 160   0.0000       0.312403         8.5009 
 161   0.0000       0.314310         8.5528 
 162   0.0000       0.318810         8.6753 
 163   0.0000       0.325214         8.8495 
 164   0.0000       0.327900         8.9226 
 165   0.0000       0.331656         9.0248 
 166   0.0000       0.336878         9.1669 
 167   0.0000       0.339027         9.2254 
 168   0.0000       0.339633         9.2419 
 169   0.0000       0.343953         9.3594 
 170   0.0000       0.346351         9.4247 
 171   0.0000       0.352479         9.5914 
 172   0.0000       0.355994         9.6871 
 173   0.0000       0.357240         9.7210 
 174   0.0000       0.362511         9.8644 
 175   0.0000       0.363871         9.9014 
 176   0.0000       0.369078        10.0431 
 177   0.0000       0.371605        10.1119 
 178   0.0000       0.373078        10.1520 
 179   0.0000       0.376405        10.2425 
 180   0.0000       0.382123        10.3981 
 181   0.0000       0.388104        10.5608 
 182   0.0000       0.390304        10.6207 
 183   0.0000       0.392187        10.6719 
 184   0.0000       0.396089        10.7781 
 185   0.0000       0.400283        10.8923 
 186   0.0000       0.401789        10.9332 
 187   0.0000       0.405019        11.0211 
 188   0.0000       0.406960        11.0739 
 189   0.0000       0.408878        11.1261 
 190   0.0000       0.414407        11.2766 
 191   0.0000       0.417665        11.3653 
 192   0.0000       0.420101        11.4315 
 193   0.0000       0.425668        11.5830 
 194   0.0000       0.430558        11.7161 
 195   0.0000       0.433812        11.8046 
 196   0.0000       0.436359        11.8739 
 197   0.0000       0.440187        11.9781 
 198   0.0000       0.444109        12.0848 
 199   0.0000       0.448551        12.2057 
 200   0.0000       0.451811        12.2944 
 201   0.0000       0.456682        12.4269 
 202   0.0000       0.458851        12.4860 
 203   0.0000       0.463406        12.6099 
 204   0.0000       0.468400        12.7458 
 205   0.0000       0.469381        12.7725 
 206   0.0000       0.471269        12.8239 
 207   0.0000       0.476585        12.9685 
 208   0.0000       0.480326        13.0703 
 209   0.0000       0.484471        13.1831 
 210   0.0000       0.487332        13.2610 
 211   0.0000       0.491409        13.3719 
 212   0.0000       0.494546        13.4573 
 213   0.0000       0.496510        13.5107 
 214   0.0000       0.502601        13.6765 
 215   0.0000       0.503731        13.7072 
 216   0.0000       0.506407        13.7800 
 217   0.0000       0.509389        13.8612 
 218   0.0000       0.511332        13.9141 
 219   0.0000       0.513447        13.9716 
 220   0.0000       0.515153        14.0180 
 221   0.0000       0.519761        14.1434 
 222   0.0000       0.527217        14.3463 
 223   0.0000       0.529646        14.4124 
 224   0.0000       0.530647        14.4396 
 225   0.0000       0.533397        14.5145 
 226   0.0000       0.537868        14.6361 
 227   0.0000       0.541488        14.7346 
 228   0.0000       0.543360        14.7856 
 229   0.0000       0.547022        14.8852 
 230   0.0000       0.547552        14.8997 
 231   0.0000       0.551397        15.0043 
 232   0.0000       0.556155        15.1337 
 233   0.0000       0.559001        15.2112 
 234   0.0000       0.562721        15.3124 
 235   0.0000       0.566276        15.4092 
 236   0.0000       0.572190        15.5701 
 237   0.0000       0.576097        15.6764 
 238   0.0000       0.579435        15.7672 
 239   0.0000       0.581139        15.8136 
 240   0.0000       0.584328        15.9004 
 241   0.0000       0.584695        15.9103 
 242   0.0000       0.588588        16.0163 
 243   0.0000       0.592882        16.1331 
 244   0.0000       0.598950        16.2983 
 245   0.0000       0.602868        16.4049 
 246   0.0000       0.607441        16.5293 
 247   0.0000       0.609756        16.5923 
 248   0.0000       0.613540        16.6953 
 249   0.0000       0.619253        16.8507 
 250   0.0000       0.620095        16.8736 
 251   0.0000       0.624216        16.9858 
 252   0.0000       0.627362        17.0714 
 253   0.0000       0.629828        17.1385 
 254   0.0000       0.636896        17.3308 
 255   0.0000       0.639179        17.3930 
 256   0.0000       0.648616        17.6497 
 257   0.0000       0.652925        17.7670 
 258   0.0000       0.656158        17.8550 
 259   0.0000       0.661309        17.9951 
 260   0.0000       0.663727        18.0609 
 261   0.0000       0.668264        18.1844 
 262   0.0000       0.672935        18.3115 
 263   0.0000       0.677865        18.4457 
 264   0.0000       0.679816        18.4987 
 265   0.0000       0.684427        18.6242 
 266   0.0000       0.689175        18.7534 
 267   0.0000       0.691923        18.8282 
 268   0.0000       0.701209        19.0809 
 269   0.0000       0.702460        19.1149 
 270   0.0000       0.703856        19.1529 
 271   0.0000       0.709465        19.3055 
 272   0.0000       0.717160        19.5149 
 273   0.0000       0.721299        19.6275 
 274   0.0000       0.725491        19.7416 
 275   0.0000       0.728374        19.8201 
 276   0.0000       0.733424        19.9575 
 277   0.0000       0.736650        20.0453 
 278   0.0000       0.740346        20.1458 
 279   0.0000       0.741495        20.1771 
 280   0.0000       0.747815        20.3491 
 281   0.0000       0.755710        20.5639 
 282   0.0000       0.760337        20.6898 
 283   0.0000       0.763436        20.7741 
 284   0.0000       0.775787        21.1102 
 285   0.0000       0.783290        21.3144 
 286   0.0000       0.785869        21.3846 
[...]
  | sigma^2 in % of trace(Dij) retained ...   9.22e+00
  | sigma^2 in % of trace(Dip) retained ...   1.72e+01
  | sigma^2 in % of trace(Dpq) retained ...   1.37e-01
  | Av. % of trace(Di) retained         ...  99.998523812594
  | Av. % of trace(Dp) retained         ...  99.999998850197
  | sigma^2 in % of trace(Di) retained  ...   7.33e-07
  | sigma^2 in % of trace(Dp) retained  ...   8.29e-13
 Distributions of % trace(Dij) recovered:
  |       >= 99.9  ...   104 ( 21.1 % of all IJ-pairs)
  |   [80.0, 90.0) ...    32 (  6.5 % of all IJ-pairs)
  |   [90.0, 99.0) ...   262 ( 53.1 % of all IJ-pairs)
  |   [99.0, 99.9) ...    95 ( 19.3 % of all IJ-pairs)
 Distributions of % trace(Dip) recovered:
  |   [80.0, 90.0) ...    15 ( 12.8 % of all IP-pairs)
  |   [90.0, 99.0) ...    59 ( 50.4 % of all IP-pairs)
  |   [99.0, 99.9) ...    43 ( 36.8 % of all IP-pairs)
 Distributions of % trace(Dpq) recovered:
  |       >= 99.9  ...     5 ( 33.3 % of all PQ-pairs)
  |   [99.0, 99.9) ...    10 ( 66.7 % of all PQ-pairs)
 Distributions of % trace(Di) recovered :
  |       >= 99.9  ...    43 (100.0 % of all I-pairs )
 Distributions of % trace(Dp) recovered :
  |       >= 99.9  ...     5 (100.0 % of all P-pairs )

                       ===========================
                       1085 OF 1659 PAIRS ARE KEPT
                       ===========================

 Initial PAO correlation energy (all pairs)    ...  -2.6971631274 Eh
 Energy constituents in PAO basis (Eh):
  | Vijab(+0) ...  -2.2690511240
  | Viab (-1) ...  -0.1746546107
  | Vab  (-2) ...  -0.0573562369
  | Va   (-1) ...  -0.0000450030
  | Vija (+1) ...  -0.0720142040
  | Vij  (+2) ...  -0.0155159984
  | Via  (+0) ...  -0.1083647977
  | Vi   (+1) ...  -0.0001611526
 Initial PNO correlation energy                ...  -2.6629846845 Eh
 Energy constituents in PNO basis (Eh):
  | Vijab(+0) ...  -2.2506642932 (err=  0.0183868308)
  | Viab (-1) ...  -0.1604857332 (err=  0.0141688775)
  | Vab  (-2) ...  -0.0569031619 (err=  0.0004530750)
  | Va   (-1) ...  -0.0000256996 (err=  0.0000193035)
  | Vija (+1) ...  -0.0710127217 (err=  0.0010014823)
  | Vij  (+2) ...  -0.0154616260 (err=  0.0000543724)
  | Via  (+0) ...  -0.1082707324 (err=  0.0000940653)
  | Vi   (+1) ...  -0.0001607165 (err=  0.0000004362)
 Sum of total truncation errors ...   0.0341784429 Eh
  | Pair screening ...   0.0112001267 Eh
  | PNO truncation ...   0.0229783161 Eh

 UMP2 correlation energy (PAO) ...  -2.6922387284
  | alpha-alpha ...  -0.3873261621 (NP_aa=  893)
  | alpha-beta  ...  -1.9971803726 (NP_ab= 1634)
  | beta -beta  ...  -0.3077321937 (NP_bb=  708)
 UMP2 correlation energy (PNO) ...  -2.6576740122
  | alpha-alpha ...  -0.3753534256 (err=  0.0119727365, NP_aa=  577)
  | alpha-beta  ...  -1.9785812194 (err=  0.0185991533, NP_ab= 1060)
  | beta -beta  ...  -0.3037393672 (err=  0.0039928265, NP_bb=  450)
 Sum of total UMP2 truncation errors ...   0.0345647163 Eh
  | Pair screening ...   0.0112173425 Eh
  | PNO truncation ...   0.0233473737 Eh
 Timing for NEV-PNO construction (sec.)
  | Intermediate construction  ..           44.062
  | Amplitude construction     ..           55.851
  | Total time                 ..           99.913
 Making pair pair interaction lists ...      ok
 Total size for 2-ext PNO integrals ...     10.9 MB
Checking the number of SOMO/SOMO doubles PNOs ... 
 #Truncate: (72, 72)[156] -> [87] .. 
 #Truncate: (73, 73)[160] -> [87] .. 
 #Truncate: (74, 74)[157] -> [87] .. 
 #Truncate: (75, 75)[157] -> [87] .. 
 #Truncate: (76, 76)[159] -> [87] .. 

--------------------------------
LOCAL RI TRANSFORMATION (VABPAO)
--------------------------------

Number of PAOs:    1030
Basis functions:   1025 (343 shells)
Aux. functions:    2424 (644 shells)

Processing maps (0.0 sec)
Average map sizes:
   Aux shells -> PAOs           1030.0
   PAOs       -> AO shells       343.0

Calculating integrals (219.0 sec, 37370.165 MB)
Finished
-----------------------------
LOCAL RI TRANSFORMATION (IJV)
-----------------------------

Orbital window:      29 to 76
Basis functions:   1025 (343 shells)
Aux. functions:    2424 (644 shells)

Processing maps (0.0 sec)
Average map sizes:
   Aux shells -> MOs(i)           46.0
   Aux shells -> MOs(j)           48.0
   MOs        -> AO shells       339.8

Calculating integrals (22.3 sec, 40.970 MB)
Sorting integrals (0.3 sec, 40.943 MB)
Total time for the integral transformation: 22.7 sec


-------------------------------------
Pair Pair Term precalculation with     
RI-(ij|mn) and (im|jn) transformation  
ON THE FLY                             
-------------------------------------

   IBatch   1 (of   2)              ... done (  980.902 sec)
   IBatch   2 (of   2)              ... done ( 1250.972 sec)
Total EXT                           ...        2231.874 sec

---------------------
RI-PNO TRANSFORMATION
---------------------

Total Number of PNOs                   ... 34373
Total Number of IJ-PNOs                ... 30204
Total Number of IP-PNOs                ...  3206
Total Number of PQ-PNOs                ...   963
Total Number of IJ-pairs               ...   943
Total Number of PI-pairs               ...   117
Total Number of PQ-pairs               ...    25
Average number of PNOs per pair        ...    31
Maximal number of PNOs per pair        ...    87
>> Statistics for ij-pairs..
   #pairs with  1 -  5 PNOs   :    0
   #pairs with  6 - 10 PNOs   :    0
   #pairs with 11 - 15 PNOs   :   56
   #pairs with 16 - 20 PNOs   :  204
   #pairs with 21 - 25 PNOs   :  158
   #pairs with 26 - 30 PNOs   :  166
   #pairs with 31 - 35 PNOs   :   60
   #pairs with 36 - 40 PNOs   :   48
   #pairs with 41 - 45 PNOs   :   54
   #pairs with 46 - 50 PNOs   :   24
   #pairs with 51 - 55 PNOs   :   34
   #pairs with 56 - 60 PNOs   :   57
   #pairs with 61 - 65 PNOs   :   71
   #pairs with 66 - 70 PNOs   :    8
   #pairs with 76 - 80 PNOs   :    1
   #pairs with 81 - 85 PNOs   :    2
>> Statistics for ip-pairs..
   #pairs with  1 -  5 PNOs   :    0
   #pairs with  6 - 10 PNOs   :    1
   #pairs with 11 - 15 PNOs   :   15
   #pairs with 16 - 20 PNOs   :    3
   #pairs with 21 - 25 PNOs   :   28
   #pairs with 26 - 30 PNOs   :   12
   #pairs with 31 - 35 PNOs   :   45
   #pairs with 36 - 40 PNOs   :   13
   #pairs with 41 - 45 PNOs   :    0
   #pairs with 46 - 50 PNOs   :    0
>> Statistics for pq-pairs..
   #pairs with  1 -  5 PNOs   :    0
   #pairs with  6 - 10 PNOs   :    0
   #pairs with 11 - 15 PNOs   :    0
   #pairs with 16 - 20 PNOs   :    0
   #pairs with 21 - 25 PNOs   :   10
   #pairs with 26 - 30 PNOs   :   10
   #pairs with 31 - 35 PNOs   :    0
   #pairs with 36 - 40 PNOs   :    0
   #pairs with 41 - 45 PNOs   :    0
   #pairs with 46 - 50 PNOs   :    0
   #pairs with 86 - 90 PNOs   :    5

Generation of (ij|ab)[P] integrals            ... on
Generation of (ia|bc)[P],(ja|bc)[P] integrals ... on
Storage of 3 and 4 external integrals         ... on
Generation of ALL (ka|bc)[P] integrals        ... on
Keep RI integrals in memory                   ... off

Ibatch:  1 (of  1)
Starting 2-4 index PNO integral generation ... done

Timings:
Total PNO integral transformation time     ...       2031.338 sec
Size of the 3-external file                ...       293 MB
Size of the 4-external file                ...      2013 MB
Size of the IKJL file                      ...        17 MB
Size of the all 3-external file            ...      7040 MB
Size of the 1-external file                ...        22 MB

Size of the PAO/PNO coefficient matrices   ...     220.8 MB

Making pair/pair overlap matrices          ... done (  311.766 sec)
Size of the pair overlap file              ...    2421.0 MB
Total # unrestricted pairs ...       2087
  # of alpha-alpha pairs   ...        577
  # of alpha-beta pairs    ...       1060
  # of beta-beta pairs     ...        450
Constructing the guess amplitudes          ... done (    0.578 sec)

-------------------------
FINAL STARTUP INFORMATION
-------------------------

E(0)                                       ...  -3028.435429097
E(SL-UMP2 in NEV-PNO space)                ...     -2.693220218
Initial E(tot)                             ...  -3031.128649315
<T|T>                                      ...      0.537893440
Number of unrestricted pairs included      ... 2087
Total number of pairs                      ... 4095
----------------------------------------------------------
                     OPEN-SHELL COUPLED CLUSTER ITERATIONS
----------------------------------------------------------

Number of PNO amplitudes to be optimized        ...          2142282
Number of canonical amplitudes for strong pairs ...       1884983381
Untruncated number of canonical amplitudes      ...       3698645738

Iter       E(tot)           E(Corr)          Delta-E          Residual     Time
  0  -3031.135810807     -2.664835504      0.028384714      0.020784893 1639.64
                           *** Turning on DIIS ***
  1  -3031.245990622     -2.775015319     -0.110179815      0.010220620 1604.96
  2  -3031.310573311     -2.839598008     -0.064582689      0.008288358 1590.97
  3  -3031.331805843     -2.860830540     -0.021232531      0.002935446 1585.22
  4  -3031.339030905     -2.868055602     -0.007225062      0.002647244 1588.81
  5  -3031.342918151     -2.871942848     -0.003887246      0.001611719 1591.03
  6  -3031.344333763     -2.873358460     -0.001415612      0.000821411 1581.36
  7  -3031.345056727     -2.874081424     -0.000722964      0.000577773 1585.55
  8  -3031.345224516     -2.874249213     -0.000167788      0.000229483 1581.97
  9  -3031.345279685     -2.874304383     -0.000055170      0.000198228 1578.54
 10  -3031.345273851     -2.874298548      0.000005835      0.000092631 1584.86
 11  -3031.345286215     -2.874310913     -0.000012365      0.000074378 1589.67
 12  -3031.345292670     -2.874317367     -0.000006455      0.000029298 1588.52
 13  -3031.345295211     -2.874319908     -0.000002541      0.000013737 1580.82
 14  -3031.345296743     -2.874321440     -0.000001532      0.000007226 1593.06
               --- The CCSD iterations have converged ---

E(0)                                       ...  -3028.435429097
E(CORR)(strong-pairs)                      ...     -2.874321440
E(CORR)(weak-pairs)                        ...     -0.035546206
E(CORR)(corrected)                         ...     -2.909867646
E(TOT)                                     ...  -3031.345296743
Singles norm <S|S>**1/2                    ...      0.195150394 ( 0.066803461, 0.128346933)  
T1 diagnostic                              ...      0.020457320                              
<S**2>(linearized)                         ...      8.7508148 (ideal value:      8.7500000)

----------------------
LARGEST PNO AMPLITUDES
----------------------
  71a-> 77a  71b-> 77b       0.067412
  51b-> 76b  -1b-> -1b       0.054231
  50b-> 76b  -1b-> -1b       0.053894
  48b-> 72b  -1b-> -1b       0.052525
  71a-> 78a  71b-> 78b       0.050426
  44a-> 77a  -1a-> -1a       0.049063
  48b-> 75b  -1b-> -1b       0.046469
  44b-> 77b  -1b-> -1b       0.046382
  62a-> 77a  62b-> 77b       0.045806
  48b-> 74b  -1b-> -1b       0.045640
  66a-> 77a  66b-> 77b       0.045525
  70a-> 77a  70b-> 77b       0.043460
  55a-> 78a  55b-> 78b       0.043158
  57a-> 78a  57b-> 78b       0.043104
  38b-> 73b  -1b-> -1b       0.042932
  61a-> 77a  61b-> 77b       0.042517

Total # unrestricted pairs ...       1148
  # of alpha-alpha pairs   ...        316
  # of alpha-beta pairs    ...        574
  # of beta-beta pairs     ...        258

-------------------------------------------
DLPNO BASED TRIPLES CORRECTION
-------------------------------------------

Singles multiplier          ...  1.000000
Fragment selection                          .... not used
TCutTNO                     ... 1.000e-09
TCutMP2Pairs                ... 1.000e-05
TCutDOStrong                ... 2.000e-02
TCutMKNStrong               ... 1.000e-02
TCutDOWeak                  ... 4.000e-02
TCutMKNWeak                 ... 1.000e-01
NTCutTNO                    ... 1

Number of Triples that are to be computed         ...     32610

 . . . . . . . . .
10% done  
20% done  
30% done  
40% done  
50% done  
60% done  
70% done  
80% done  
90% done  
          Batch   1   done (  14840.367 sec)

Triples-Correction TCutTNO=   1.000e-09 (NWeakPairs = 0  1  2  3)  -0.118501448596   -0.001939740035    0.000000000000    0.000000000000
Triples-Correction  -0.120441188632

Triples timings:
Total time                      ... 15410.557 sec

Triples List generation         ...     0.000 sec
TNO generation                  ...   569.960 sec
Pair density generation         ...     0.084 sec
Look up tables                  ...     0.122 sec
Generating 3-index integrals    ...  8716.188 sec
Make 4-ind.int. from 3-ind.int  ...     3.747 sec
Projecting amplitudes (D + S)   ...  5833.337 sec
Sorting integrals for spin cases...    60.773 sec
Calculate W0/W1                 ...   180.702 sec
Energy contr. (sum over a,b,c)  ...    45.452 sec

Everything after 3-index        ...  6268.596 sec

Energy contribution AAA         ...    28.731 sec
Energy contribution AAB         ...   127.064 sec
Energy contribution ABB         ...   115.643 sec
Energy contribution BBB         ...    15.538 sec
prep                ...     3.437 sec
makeTTNO            ...  5772.713 sec
copyij              ...     0.142 sec
copyil              ...     4.582 sec
transposeij         ...     0.085 sec
newMatInDoubleProj  ...    59.790 sec
BlasInDoubleProj    ...  3051.644 sec
ProjSingles         ...    49.370 sec
ProjDoubles         ...  5783.966 sec
overall Doubles for projection      ... 2890701
used Doubles for projection         ... 2890701


Number of Triples   (0, 1, 2, 3 weak pairs; overall):  16005   10987       0       0  ( 26992)
Number of Atoms     (0, 1, 2, 3 weak pairs; overall):   19.2    14.5     0.0     0.0  (    29)
Number of PAOs      (0, 1, 2, 3 weak pairs; overall):  750.0   590.8     0.0     0.0  (  1025)
Number of AuxFcns   (0, 1, 2, 3 weak pairs; overall):  912.5   572.4     0.0     0.0  (  2424)
Number of TNOs (0, 1, 2, 3 weak pairs         ):   80.3    57.7     0.0     0.0
Aver. Number of NTNO, Atoms, PAOs, AuxFcns / Triples:  26992    71.1    17.3   685.2   774.1

Triples Correction (T)                     ...     -0.120441189
    alpha-alpha-alpha ... -0.003921700 (  3.3%)
    alpha-alpha-beta  ... -0.056528209 ( 46.9%)
    alpha-beta -beta  ... -0.055830353 ( 46.4%)
    beta -beta -beta  ... -0.004160926 (  3.5%)
Final correlation energy                   ...     -3.030308835
E(CCSD)                                    ...  -3031.345296743
E(CCSD(T))                                 ...  -3031.465737932

----------------------------
STATISTICS FOR PAIR-ENERGIES
----------------------------
Minimum, maximum and average ratios of UMP and CCSD pair-energies ... 0.49, 1.44, 1.02


------------------------------------------------------------------------------- 
                                     TIMINGS                                   
------------------------------------------------------------------------------- 


Total execution time                   ...    47525.135 sec

Localization of occupied MO's          ...       10.820 sec (  0.0%)
Fock Matrix Formation                  ...     1330.036 sec (  2.8%)
Differential overlap integrals         ...        1.411 sec (  0.0%)
Organizing maps                        ...        1.655 sec (  0.0%)
RI 3-index integral generations        ...      304.069 sec (  0.6%)
RI-PNO integral transformation         ...     4600.743 sec (  9.7%)
Initial Guess                          ...     1873.585 sec (  3.9%)
DIIS Solver                            ...       14.021 sec (  0.0%)
State Vector Update                    ...        0.693 sec (  0.0%)
Sigma-vector construction              ...    23864.995 sec ( 50.2%)
  <0|H|D>                              ...        0.027 sec (  0.0% of sigma)
  <D|H|D>(0-ext)                       ...     4324.336 sec ( 18.1% of sigma)
  <D|H|D>(2-ext Fock)                  ...        1.697 sec (  0.0% of sigma)
  <D|H|D>(2-ext)                       ...     3507.395 sec ( 14.7% of sigma)
  <D|H|D>(4-ext)                       ...      162.707 sec (  0.7% of sigma)
  <D|H|D>(4-ext-corr)                  ...      984.788 sec (  4.1% of sigma)
  CCSD doubles correction              ...      422.189 sec (  1.8% of sigma)
  <S|H|S>                              ...      566.915 sec (  2.4% of sigma)
  <S|H|D>(1-ext)                       ...      215.957 sec (  0.9% of sigma)
  <D|H|S>(1-ext)                       ...        0.624 sec (  0.0% of sigma)
  <S|H|D>(3-ext)                       ...       19.616 sec (  0.1% of sigma)
  CCSD singles correction              ...        0.004 sec (  0.0% of sigma)
  Fock-dressing                        ...     6665.542 sec ( 27.9% of sigma)
  Singles amplitudes                   ...       89.371 sec (  0.4% of sigma)
  (ik|jl)-dressing                     ...     5483.136 sec ( 23.0% of sigma)
  (ij|ab),(ia|jb)-dressing             ...     1295.553 sec (  5.4% of sigma)
  Pair energies                        ...        0.135 sec (  0.0% of sigma)
Total Time for computing (T)           ...    15884.393 sec ( 33.4% of ALL)


-------------------------   --------------------
FINAL SINGLE POINT ENERGY     -3031.465737931578
-------------------------   --------------------


                            ***************************************
                            *     ORCA property calculations      *
                            ***************************************

                                    ---------------------
                                    Active property flags
                                    ---------------------
   (+) Dipole Moment


------------------------------------------------------------------------------
                       ORCA ELECTRIC PROPERTIES CALCULATION
------------------------------------------------------------------------------

Dipole Moment Calculation                       ... on
Quadrupole Moment Calculation                   ... off
Polarizability Calculation                      ... off
GBWName                                         ... simple-grid-210-290-b3lyp_d3bj-631gd-gas-singlepoint-DLPNO_CCSD_T1-NormalPNO-augtz-gas.gbw
Electron density file                           ... simple-grid-210-290-b3lyp_d3bj-631gd-gas-singlepoint-DLPNO_CCSD_T1-NormalPNO-augtz-gas.scfp.tmp
The origin for moment calculation is the CENTER OF MASS  = ( 0.327944,  0.045207 -0.010697)

-------------
DIPOLE MOMENT
-------------
                                X             Y             Z
Electronic contribution:     44.19996       5.87017      -1.68771
Nuclear contribution   :    -48.86357      -6.73590       1.59377
                        -----------------------------------------
Total Dipole Moment    :     -4.66361      -0.86574      -0.09394
                        -----------------------------------------
Magnitude (a.u.)       :      4.74421
Magnitude (Debye)      :     12.05883



--------------------
Rotational spectrum 
--------------------
 
Rotational constants in cm-1:     0.019781     0.010115     0.009677 
Rotational constants in MHz :   593.012252   303.237696   290.123155 

 Dipole components along the rotational axes: 
x,y,z [a.u.] :    -4.665381     0.847027    -0.155928 
x,y,z [Debye]:   -11.858457     2.152971    -0.396338 

 

Timings for individual modules:

Sum of individual times         ...    62232.006 sec (=1037.200 min)
GTO integral calculation        ...       13.133 sec (=   0.219 min)   0.0 %
SCF iterations                  ...    14672.643 sec (= 244.544 min)  23.6 %
MDCI module                     ...    47546.230 sec (= 792.437 min)  76.4 %
                             ****ORCA TERMINATED NORMALLY****
TOTAL RUN TIME: 0 days 17 hours 17 minutes 15 seconds 23 msec
