
                                 *****************
                                 * O   R   C   A *
                                 *****************

           --- An Ab Initio, DFT and Semiempirical electronic structure package ---

                  #######################################################
                  #                        -***-                        #
                  #          Department of theory and spectroscopy      #
                  #               Directorship: Frank Neese             #
                  #        Max Planck Institute fuer Kohlenforschung    #
                  #                Kaiser Wilhelm Platz 1               #
                  #                 D-45470 Muelheim/Ruhr               #
                  #                      Germany                        #
                  #                                                     #
                  #                  All rights reserved                #
                  #                        -***-                        #
                  #######################################################


                         Program Version 4.1.2  - RELEASE  -


 With contributions from (in alphabetic order):
   Daniel Aravena         : Magnetic Properties
   Michael Atanasov       : Ab Initio Ligand Field Theory
   Alexander A. Auer      : GIAO ZORA
   Ute Becker             : Parallelization
   Giovanni Bistoni       : ED, Open-shell LED
   Martin Brehm           : Molecular dynamics
   Dmytro Bykov           : SCF Hessian
   Vijay G. Chilkuri      : MRCI spin determinant printing
   Dipayan Datta          : RHF DLPNO-CCSD density
   Achintya Kumar Dutta   : EOM-CC, STEOM-CC
   Dmitry Ganyushin       : Spin-Orbit,Spin-Spin,Magnetic field MRCI
   Miquel Garcia          : C-PCM Hessian
   Yang Guo               : DLPNO-NEVPT2, CIM, IAO-localization
   Andreas Hansen         : Spin unrestricted coupled pair/coupled cluster methods
   Benjamin Helmich-Paris : CASSCF linear response (MC-RPA)
   Lee Huntington         : MR-EOM, pCC
   Robert Izsak           : Overlap fitted RIJCOSX, COSX-SCS-MP3, EOM
   Christian Kollmar      : KDIIS, OOCD, Brueckner-CCSD(T), CCSD density
   Simone Kossmann        : Meta GGA functionals, TD-DFT gradient, OOMP2, MP2 Hessian
   Martin Krupicka        : AUTO-CI
   Lucas Lang             : DCDCAS
   Dagmar Lenk            : GEPOL surface, SMD
   Dimitrios Liakos       : Extrapolation schemes; parallel MDCI
   Dimitrios Manganas     : ROCIS; embedding schemes
   Dimitrios Pantazis     : SARC Basis sets
   Taras Petrenko         : DFT Hessian,TD-DFT gradient, ASA, ECA, R-Raman, ABS, FL, XAS/XES, NRVS
   Peter Pinski           : DLPNO-MP2, DLPNO-MP2 Gradient
   Christoph Reimann      : Effective Core Potentials
   Marius Retegan         : Local ZFS, SOC
   Christoph Riplinger    : Optimizer, TS searches, QM/MM, DLPNO-CCSD(T), (RO)-DLPNO pert. Triples
   Tobias Risthaus        : Range-separated hybrids, TD-DFT gradient, RPA, STAB
   Michael Roemelt        : Restricted open shell CIS
   Masaaki Saitow         : Open-shell DLPNO
   Barbara Sandhoefer     : DKH picture change effects
   Avijit Sen             : IP-ROCIS
   Kantharuban Sivalingam : CASSCF convergence, NEVPT2, FIC-MRCI
   Bernardo de Souza      : ESD, SOC TD-DFT
   Georgi Stoychev        : AutoAux, RI-MP2 NMR
   Willem Van den Heuvel  : Paramagnetic NMR
   Boris Wezisla          : Elementary symmetry handling
   Frank Wennmohs         : Technical directorship


 We gratefully acknowledge several colleagues who have allowed us to
 interface, adapt or use parts of their codes:
   Stefan Grimme, W. Hujo, H. Kruse,             : VdW corrections, initial TS optimization,
                  C. Bannwarth                     DFT functionals, gCP, sTDA/sTD-DF
   Ed Valeev                                     : LibInt (2-el integral package), F12 methods
   Garnet Chan, S. Sharma, J. Yang, R. Olivares  : DMRG
   Ulf Ekstrom                                   : XCFun DFT Library
   Mihaly Kallay                                 : mrcc  (arbitrary order and MRCC methods)
   Andreas Klamt, Michael Diedenhofen            : otool_cosmo (COSMO solvation model)
   Jiri Pittner, Ondrej Demel                    : Mk-CCSD
   Frank Weinhold                                : gennbo (NPA and NBO analysis)
   Christopher J. Cramer and Donald G. Truhlar   : smd solvation model
   Lars Goerigk                                  : TD-DFT with DH, B97 family of functionals
   V. Asgeirsson, H. Jonsson                     : NEB implementation
   FAccTs GmbH                                   : IRC, NEB, NEB-TS, Multilevel


 Your calculation uses the libint2 library for the computation of 2-el integrals
 For citations please refer to: http://libint.valeyev.net

 This ORCA versions uses:
   CBLAS   interface :  Fast vector & matrix operations
   LAPACKE interface :  Fast linear algebra routines
   SCALAPACK package :  Parallel linear algebra routines


----- Orbital basis set information -----
Your calculation utilizes the basis: aug-cc-pVTZ 
    H, B-Ne : Obtained from the ccRepo (grant-hill.group.shef.ac.uk/ccrepo) Feb. 2017
              R. A. Kendall, T. H. Dunning, Jr., R. J. Harrison, J. Chem. Phys. 96, 6796 (1992)
         He : Obtained from the ccRepo (grant-hill.group.shef.ac.uk/ccrepo) Feb. 2017
              D. E. Woon, T. H. Dunning, Jr., J. Chem. Phys. 100, 2975 (1994)
  Li-Be, Na : Obtained from the ccRepo (grant-hill.group.shef.ac.uk/ccrepo) Feb. 2017
              B. P. Prascher, D. E. Woon, K. A. Peterson, T. H. Dunning, Jr., A. K. Wilson, Theor. Chem. Acc. 128, 69 (2011)
         Mg : Obtained from the Peterson Research Group Website (tyr0.chem.wsu.edu/~kipeters) Feb. 2017
              B. P. Prascher, D. E. Woon, K. A. Peterson, T. H. Dunning, Jr., A. K. Wilson, Theor. Chem. Acc. 128, 69 (2011)
      Al-Ar : Obtained from the ccRepo (grant-hill.group.shef.ac.uk/ccrepo) Feb. 2017
              D. E. Woon, T. H. Dunning, Jr., J. Chem. Phys. 98, 1358 (1993)
      Sc-Zn : Obtained from the ccRepo (grant-hill.group.shef.ac.uk/ccrepo) Feb. 2017
              N. B. Balabanov, K. A. Peterson, J. Chem. Phys. 123, 064107 (2005)
              N. B. Balabanov, K. A. Peterson, J. Chem. Phys. 125, 074110 (2006)
      Ga-Kr : Obtained from the ccRepo (grant-hill.group.shef.ac.uk/ccrepo) Feb. 2017
              A. K. Wilson, D. E. Woon, K. A. Peterson, T. H. Dunning, Jr., J. Chem. Phys. 110, 7667 (1999)
     Ag, Au : Obtained from the Peterson Research Group Website (tyr0.chem.wsu.edu/~kipeters) Feb. 2017
              K. A. Peterson, C. Puzzarini, Theor. Chem. Acc. 114, 283 (2005)

----- AuxJ basis set information -----
Your calculation utilizes the AutoAux generation procedure.
  G. L. Stoychev, A. A. Auer, F. Neese, J. Chem. Theory Comput. 13, 554 (2017)

----- AuxC basis set information -----
Your calculation utilizes the auxiliary basis: aug-cc-pVTZ/C 
  H-He, B-F, Al-Ar, Ga-Kr : Obtained from the EMSL Basis Set Exchange (bse.pnl.gov) Feb. 2017
                            F. Weigend, A. Kohn, C. Hattig, J. Chem. Phys. 116, 3175 (2002)
                   Be, Mg : Obtained from the TURBOMOLE 7.0 basis set library
                            C. Haettig, Phys. Chem. Chem. Phys. 7, 59 (2005)
                       Ne : Obtained from the EMSL Basis Set Exchange (bse.pnl.gov) Feb. 2017
                            C. Haettig, Phys. Chem. Chem. Phys. 7, 59 (2005)
                            F. Weigend, A. Kohn, C. Hattig, J. Chem. Phys. 116, 3175 (2002)
                    Sc-Zn : Obtained from the EMSL Basis Set Exchange (bse.pnl.gov) Feb. 2017
                            J. G. Hill, J. A. Platts, J. Chem. Phys. 128, 044104 (2008)

----- AuxJK basis set information -----
Your calculation utilizes the AutoAux generation procedure.
  G. L. Stoychev, A. A. Auer, F. Neese, J. Chem. Theory Comput. 13, 554 (2017)

================================================================================
                                        WARNINGS
                       Please study these warnings very carefully!
================================================================================


WARNING: your system is open-shell and RHF/RKS was chosen
  ===> : WILL SWITCH to UHF/UKS


WARNING: MDCI localization with Augmented Hessian Foster-Boys
  ===> : Switching off randomization!

WARNING: Post HF methods need fully converged wavefunctions
  ===> : Setting SCFConvForced true
         You can overwrite this default with %scf ConvForced false 


INFO   : the flag for use of LIBINT has been found!

================================================================================
                                       INPUT FILE
================================================================================
NAME = simple-grid-170-260-b3lyp_d3bj-631gd-gas-singlepoint-DLPNO_CCSD_T1-NormalPNO-augtz-gas.inp
|  1> ! aug-cc-pVTZ aug-cc-pVTZ/C DLPNO-CCSD(T1) TightSCF NormalPNO UNO MiniPrint AutoAux
|  2> %pal nproc 10 end
|  3> %maxcore 20000
|  4> %mdci
|  5>      density none
|  6> end
|  7> 
|  8> * xyz 0 6
|  9>  O     -0.35583100     -0.12146800     -0.46005100
| 10>  C     -1.25650700     -1.11645900     -0.31024500
| 11>  C     -2.53048100     -0.46799900      0.60980200
| 12>  C     -2.76318300      0.77454700     -0.05778200
| 13>  C     -3.71834800      0.86606700     -1.19039100
| 14> Fe      1.44217200      0.16861200     -0.07285200
| 15> Cl      1.66648200      2.26307100     -0.75830700
| 16>  C     -2.00629700      1.97190700      0.27712500
| 17> Cl      2.60700100     -1.35634900     -1.14829500
| 18> Cl      1.65601600      0.02314700      2.13297500
| 19>  H     -3.34761300     -1.17279200      0.43459700
| 20>  H     -2.38755000      2.88390700     -0.18459600
| 21>  H     -1.82090700      2.09861400      1.34581000
| 22>  H     -1.00284500      1.74285900     -0.15663800
| 23>  H     -4.53539700      1.53313800     -0.87507300
| 24>  H     -3.24942100      1.35715400     -2.05290100
| 25>  H     -4.14406700     -0.09318000     -1.48390300
| 26>  C     -2.13474800     -0.37486100      2.08707500
| 27>  H     -2.84190000      0.26076200      2.63020000
| 28>  H     -2.16138400     -1.36460000      2.54544900
| 29>  H     -1.12773600      0.02910000      2.21408200
| 30>  C     -0.72976100     -2.31641800      0.49162300
| 31>  H     -1.51713700     -3.05067500      0.68859200
| 32>  H      0.04476300     -2.78880500     -0.12190900
| 33>  H     -0.26677500     -2.00929400      1.42906700
| 34>  C     -1.77354400     -1.58789100     -1.67588400
| 35>  H     -0.95136600     -2.11666900     -2.16710600
| 36>  H     -2.62252700     -2.27422900     -1.58796600
| 37>  H     -2.04224600     -0.74860100     -2.31940300
| 38> *
| 39> 
| 40> 
| 41>                          ****END OF INPUT****
================================================================================

                       ****************************
                       * Single Point Calculation *
                       ****************************

---------------------------------
CARTESIAN COORDINATES (ANGSTROEM)
---------------------------------
  O     -0.355831   -0.121468   -0.460051
  C     -1.256507   -1.116459   -0.310245
  C     -2.530481   -0.467999    0.609802
  C     -2.763183    0.774547   -0.057782
  C     -3.718348    0.866067   -1.190391
  Fe     1.442172    0.168612   -0.072852
  Cl     1.666482    2.263071   -0.758307
  C     -2.006297    1.971907    0.277125
  Cl     2.607001   -1.356349   -1.148295
  Cl     1.656016    0.023147    2.132975
  H     -3.347613   -1.172792    0.434597
  H     -2.387550    2.883907   -0.184596
  H     -1.820907    2.098614    1.345810
  H     -1.002845    1.742859   -0.156638
  H     -4.535397    1.533138   -0.875073
  H     -3.249421    1.357154   -2.052901
  H     -4.144067   -0.093180   -1.483903
  C     -2.134748   -0.374861    2.087075
  H     -2.841900    0.260762    2.630200
  H     -2.161384   -1.364600    2.545449
  H     -1.127736    0.029100    2.214082
  C     -0.729761   -2.316418    0.491623
  H     -1.517137   -3.050675    0.688592
  H      0.044763   -2.788805   -0.121909
  H     -0.266775   -2.009294    1.429067
  C     -1.773544   -1.587891   -1.675884
  H     -0.951366   -2.116669   -2.167106
  H     -2.622527   -2.274229   -1.587966
  H     -2.042246   -0.748601   -2.319403

----------------------------
CARTESIAN COORDINATES (A.U.)
----------------------------
  NO LB      ZA    FRAG     MASS         X           Y           Z
   0 O     8.0000    0    15.999   -0.672423   -0.229541   -0.869370
   1 C     6.0000    0    12.011   -2.374454   -2.109802   -0.586278
   2 C     6.0000    0    12.011   -4.781916   -0.884390    1.152359
   3 C     6.0000    0    12.011   -5.221659    1.463682   -0.109192
   4 C     6.0000    0    12.011   -7.026659    1.636629   -2.249513
   5 Fe   26.0000    0    55.850    2.725310    0.318631   -0.137670
   6 Cl   17.0000    0    35.453    3.149195    4.276584   -1.432993
   7 C     6.0000    0    12.011   -3.791352    3.726364    0.523690
   8 Cl   17.0000    0    35.453    4.926518   -2.563128   -2.169963
   9 Cl   17.0000    0    35.453    3.129417    0.043741    4.030739
  10 H     1.0000    0     1.008   -6.326072   -2.216256    0.821269
  11 H     1.0000    0     1.008   -4.511816    5.449794   -0.348836
  12 H     1.0000    0     1.008   -3.441016    3.965806    2.543212
  13 H     1.0000    0     1.008   -1.895102    3.293526   -0.296003
  14 H     1.0000    0     1.008   -8.570658    2.897211   -1.653648
  15 H     1.0000    0     1.008   -6.140516    2.564649   -3.879421
  16 H     1.0000    0     1.008   -7.831152   -0.176085   -2.804170
  17 C     6.0000    0    12.011   -4.034089   -0.708385    3.944000
  18 H     1.0000    0     1.008   -5.370413    0.492769    4.970358
  19 H     1.0000    0     1.008   -4.084424   -2.578720    4.810201
  20 H     1.0000    0     1.008   -2.131112    0.054991    4.184009
  21 C     6.0000    0    12.011   -1.379048   -4.377396    0.929033
  22 H     1.0000    0     1.008   -2.866973   -5.764940    1.301250
  23 H     1.0000    0     1.008    0.084590   -5.270078   -0.230375
  24 H     1.0000    0     1.008   -0.504132   -3.797015    2.700545
  25 C     6.0000    0    12.011   -3.351512   -3.000679   -3.166962
  26 H     1.0000    0     1.008   -1.797821   -3.999925   -4.095237
  27 H     1.0000    0     1.008   -4.955858   -4.297670   -3.000821
  28 H     1.0000    0     1.008   -3.859286   -1.414651   -4.383036



           ************************************************************
           *        Program running with 10 parallel MPI-processes    *
           *              working on a common directory               *
           ************************************************************


           ************************************************************
           *        Program running with 10 parallel MPI-processes    *
           *              working on a common directory               *
           ************************************************************

Diagonalization of the overlap matrix:
Smallest eigenvalue                        ... 6.243e-07
Time for diagonalization                   ...    0.719 sec
Threshold for overlap eigenvalues          ... 1.000e-08
Number of eigenvalues below threshold      ... 0
Time for construction of square roots      ...    0.304 sec
Total time needed                          ...    1.030 sec

-------------------
DFT GRID GENERATION
-------------------

General Integration Accuracy     IntAcc      ...  4.340
Radial Grid Type                 RadialGrid  ... Gauss-Chebyshev
Angular Grid (max. acc.)         AngularGrid ... Lebedev-110
Angular grid pruning method      GridPruning ... 3 (G Style)
Weight generation scheme         WeightScheme... Becke
Basis function cutoff            BFCut       ...    1.0000e-11
Integration weight cutoff        WCut        ...    1.0000e-14
Grids for H and He will be reduced by one unit

# of grid points (after initial pruning)     ...  36112 (   0.0 sec)
# of grid points (after weights+screening)   ...  32292 (   0.1 sec)
nearest neighbour list constructed           ...    0.0 sec
Grid point re-assignment to atoms done       ...    0.0 sec
Grid point division into batches done        ...    0.0 sec
Reduced shell lists constructed in    0.2 sec

Total number of grid points                  ...    32292
Total number of batches                      ...      521
Average number of points per batch           ...       61
Average number of grid points per atom       ...     1114
Average number of shells per batch           ...   294.22 (85.78%)
Average number of basis functions per batch  ...   876.00 (85.46%)
Average number of large shells per batch     ...   242.81 (82.53%)
Average number of large basis fcns per batch ...   721.59 (82.37%)
Maximum spatial batch extension              ...   3.37,  3.30,  3.64 au
Average spatial batch extension              ...   0.17,  0.17,  0.17 au

Time for grid setup =    0.411 sec

Loading Hartree-Fock densities                     ... done
Calculating cut-offs                               ... done
Setting up the integral package                    ... done
Initializing the effective Hamiltonian             ... done
Starting the Coulomb interaction                   ... done (   1.1 sec)
Reading the grid                                   ... done
Mapping shells                                     ... done
Starting the XC term evaluation                    ... done (   0.9 sec)
Transforming the Hamiltonian                       ... done (   0.2 sec)
Diagonalizing the Hamiltonian                      ... done (   0.4 sec)
Back transforming the eigenvectors                 ... done (   0.1 sec)
Now organizing SCF variables                       ... done
--------------
SCF ITERATIONS
--------------
ITER       Energy         Delta-E        Max-DP      RMS-DP      [F,P]     Damp
               ***  Starting incremental Fock matrix formation  ***
  0  -3027.5658564725   0.000000000000 0.55790403  0.00129272  0.2978403 0.7000
  1  -3027.8158976679  -0.250041195444 0.40159447  0.00099625  0.1710670 0.7000
                               ***Turning on DIIS***
  2  -3027.9831992434  -0.167301575448 0.27553815  0.00072528  0.1095901 0.7000
  3  -3029.6782857616  -1.695086518184 0.58953822  0.00178124  0.0824498 0.0000
  4  -3028.2918778550   1.386407906595 0.04950113  0.00023142  0.0187064 0.0000
  5  -3028.4102011517  -0.118323296744 0.04071024  0.00017513  0.0115405 0.0000
  6  -3028.4375922286  -0.027391076844 0.02120595  0.00007264  0.0052651 0.0000
  7  -3028.4528663168  -0.015274088270 0.00922488  0.00003430  0.0032964 0.0000
  8  -3028.4499837193   0.002882597572 0.00600298  0.00001997  0.0014141 0.0000
  9  -3028.4406493990   0.009334320276 0.00223799  0.00001204  0.0006838 0.0000
 10  -3028.4306640677   0.009985331266 0.00078330  0.00000355  0.0003766 0.0000
 11  -3028.4358053413  -0.005141273590 0.00047474  0.00000212  0.0001197 0.0000
 12  -3028.4325171805   0.003288160855 0.00025761  0.00000164  0.0000226 0.0000
 13  -3028.4327854150  -0.000268234588 0.00134681  0.00000285  0.0000096 0.0000
 14  -3028.4328702783  -0.000084863230 0.00051620  0.00000208  0.0000043 0.0000
 15  -3028.4328160608   0.000054217474 0.00228831  0.00000403  0.0000020 0.0000
 16  -3028.4328638059  -0.000047745126 0.00055722  0.00000230  0.0000022 0.0000
 17  -3028.4328710852  -0.000007279221 0.00166400  0.00000303  0.0000011 0.0000
                            ***DIIS convergence achieved***

               *****************************************************
               *                     SUCCESS                       *
               *           SCF CONVERGED AFTER  18 CYCLES          *
               *****************************************************

Total Energy       :        -3028.43285430 Eh          -82407.84750 eV
  Last Energy change         ...    1.6785e-05  Tolerance :   1.0000e-08
  Last MAX-Density change    ...    1.4855e-03  Tolerance :   1.0000e-07
             **** THE GBW FILE WAS UPDATED (simple-grid-170-260-b3lyp_d3bj-631gd-gas-singlepoint-DLPNO_CCSD_T1-NormalPNO-augtz-gas.gbw) ****
             **** DENSITY FILE WAS UPDATED (simple-grid-170-260-b3lyp_d3bj-631gd-gas-singlepoint-DLPNO_CCSD_T1-NormalPNO-augtz-gas.scfp.tmp) ****
             **** ENERGY FILE WAS UPDATED (simple-grid-170-260-b3lyp_d3bj-631gd-gas-singlepoint-DLPNO_CCSD_T1-NormalPNO-augtz-gas.en.tmp) ****
----------------------
UHF SPIN CONTAMINATION
----------------------

Expectation value of <S**2>     :     8.764414
Ideal value S*(S+1) for S=2.5   :     8.750000
Deviation                       :     0.014414

----------------
ORBITAL ENERGIES
----------------
                 SPIN UP ORBITALS
  NO   OCC          E(Eh)            E(eV) 
   0   1.0000    -261.540388     -7116.8758 
   1   1.0000    -104.768887     -2850.9064 
   2   1.0000    -104.768399     -2850.8931 
   3   1.0000    -104.766316     -2850.8364 
   4   1.0000     -32.208323      -876.4330 
   5   1.0000     -27.684152      -753.3241 
   6   1.0000     -27.684095      -753.3225 
   7   1.0000     -27.683787      -753.3141 
   8   1.0000     -20.534764      -558.7793 
   9   1.0000     -11.400050      -310.2111 
  10   1.0000     -11.348298      -308.8029 
  11   1.0000     -11.304696      -307.6164 
  12   1.0000     -11.289990      -307.2162 
  13   1.0000     -11.275354      -306.8180 
  14   1.0000     -11.254469      -306.2497 
  15   1.0000     -11.243198      -305.9430 
  16   1.0000     -11.233670      -305.6837 
  17   1.0000     -10.495465      -285.5961 
  18   1.0000     -10.494919      -285.5813 
  19   1.0000     -10.492897      -285.5262 
  20   1.0000      -7.962350      -216.6665 
  21   1.0000      -7.961755      -216.6504 
  22   1.0000      -7.961509      -216.6437 
  23   1.0000      -7.961447      -216.6420 
  24   1.0000      -7.961006      -216.6300 
  25   1.0000      -7.960910      -216.6274 
  26   1.0000      -7.959707      -216.5946 
  27   1.0000      -7.959004      -216.5755 
  28   1.0000      -7.958925      -216.5734 
  29   1.0000      -4.563827      -124.1880 
  30   1.0000      -3.176298       -86.4315 
  31   1.0000      -3.176036       -86.4243 
  32   1.0000      -3.175448       -86.4083 
  33   1.0000      -1.371114       -37.3099 
  34   1.0000      -1.201519       -32.6950 
  35   1.0000      -1.089370       -29.6433 
  36   1.0000      -1.046228       -28.4693 
  37   1.0000      -1.039818       -28.2949 
  38   1.0000      -1.034607       -28.1531 
  39   1.0000      -1.032810       -28.1042 
  40   1.0000      -1.019147       -27.7324 
  41   1.0000      -0.967976       -26.3400 
  42   1.0000      -0.934392       -25.4261 
  43   1.0000      -0.905579       -24.6420 
  44   1.0000      -0.893459       -24.3123 
  45   1.0000      -0.893362       -24.3096 
  46   1.0000      -0.885197       -24.0874 
  47   1.0000      -0.884934       -24.0803 
  48   1.0000      -0.800573       -21.7847 
  49   1.0000      -0.767833       -20.8938 
  50   1.0000      -0.713700       -19.4208 
  51   1.0000      -0.697865       -18.9899 
  52   1.0000      -0.678063       -18.4510 
  53   1.0000      -0.648262       -17.6401 
  54   1.0000      -0.646953       -17.6045 
  55   1.0000      -0.631386       -17.1809 
  56   1.0000      -0.609083       -16.5740 
  57   1.0000      -0.601876       -16.3779 
  58   1.0000      -0.590027       -16.0554 
  59   1.0000      -0.586481       -15.9590 
  60   1.0000      -0.570874       -15.5343 
  61   1.0000      -0.562174       -15.2975 
  62   1.0000      -0.555606       -15.1188 
  63   1.0000      -0.537453       -14.6248 
  64   1.0000      -0.529673       -14.4131 
  65   1.0000      -0.517709       -14.0876 
  66   1.0000      -0.501789       -13.6544 
  67   1.0000      -0.464608       -12.6426 
  68   1.0000      -0.458917       -12.4878 
  69   1.0000      -0.440802       -11.9948 
  70   1.0000      -0.428533       -11.6610 
  71   1.0000      -0.419741       -11.4217 
  72   1.0000      -0.415328       -11.3017 
  73   1.0000      -0.409824       -11.1519 
  74   1.0000      -0.407117       -11.0782 
  75   1.0000      -0.406546       -11.0627 
  76   1.0000      -0.405907       -11.0453 
  77   0.0000      -0.000780        -0.0212 
  78   0.0000       0.002550         0.0694 
  79   0.0000       0.017546         0.4775 
  80   0.0000       0.018584         0.5057 
  81   0.0000       0.028030         0.7627 
  82   0.0000       0.037821         1.0292 
  83   0.0000       0.038164         1.0385 
  84   0.0000       0.041157         1.1199 
  85   0.0000       0.045043         1.2257 
  86   0.0000       0.048542         1.3209 
  87   0.0000       0.057853         1.5743 
  88   0.0000       0.058511         1.5922 
  89   0.0000       0.060473         1.6456 
  90   0.0000       0.061774         1.6809 
  91   0.0000       0.064018         1.7420 
  92   0.0000       0.071512         1.9460 
  93   0.0000       0.075067         2.0427 
  94   0.0000       0.077636         2.1126 
  95   0.0000       0.089069         2.4237 
  96   0.0000       0.090398         2.4598 
  97   0.0000       0.093035         2.5316 
  98   0.0000       0.094715         2.5773 
  99   0.0000       0.096920         2.6373 
 100   0.0000       0.099374         2.7041 
 101   0.0000       0.107242         2.9182 
 102   0.0000       0.112523         3.0619 
 103   0.0000       0.117291         3.1917 
 104   0.0000       0.120735         3.2854 
 105   0.0000       0.122959         3.3459 
 106   0.0000       0.125826         3.4239 
 107   0.0000       0.131880         3.5886 
 108   0.0000       0.132619         3.6087 
 109   0.0000       0.133916         3.6440 
 110   0.0000       0.136114         3.7038 
 111   0.0000       0.138177         3.7600 
 112   0.0000       0.145700         3.9647 
 113   0.0000       0.150033         4.0826 
 114   0.0000       0.154369         4.2006 
 115   0.0000       0.156005         4.2451 
 116   0.0000       0.157411         4.2834 
 117   0.0000       0.160827         4.3763 
 118   0.0000       0.162398         4.4191 
 119   0.0000       0.164535         4.4772 
 120   0.0000       0.170306         4.6343 
 121   0.0000       0.172725         4.7001 
 122   0.0000       0.175012         4.7623 
 123   0.0000       0.176178         4.7941 
 124   0.0000       0.178037         4.8446 
 125   0.0000       0.184876         5.0307 
 126   0.0000       0.187628         5.1056 
 127   0.0000       0.189581         5.1588 
 128   0.0000       0.196995         5.3605 
 129   0.0000       0.203787         5.5453 
 130   0.0000       0.204802         5.5730 
 131   0.0000       0.209344         5.6965 
 132   0.0000       0.211971         5.7680 
 133   0.0000       0.217501         5.9185 
 134   0.0000       0.217692         5.9237 
 135   0.0000       0.222191         6.0461 
 136   0.0000       0.224268         6.1026 
 137   0.0000       0.227146         6.1809 
 138   0.0000       0.228245         6.2109 
 139   0.0000       0.231147         6.2898 
 140   0.0000       0.234282         6.3751 
 141   0.0000       0.238617         6.4931 
 142   0.0000       0.241683         6.5765 
 143   0.0000       0.242701         6.6042 
 144   0.0000       0.249492         6.7890 
 145   0.0000       0.254157         6.9160 
 146   0.0000       0.254717         6.9312 
 147   0.0000       0.257551         7.0083 
 148   0.0000       0.260184         7.0800 
 149   0.0000       0.269504         7.3336 
 150   0.0000       0.273328         7.4376 
 151   0.0000       0.273792         7.4503 
 152   0.0000       0.279107         7.5949 
 153   0.0000       0.282473         7.6865 
 154   0.0000       0.286329         7.7914 
 155   0.0000       0.291601         7.9349 
 156   0.0000       0.292837         7.9685 
 157   0.0000       0.298085         8.1113 
 158   0.0000       0.300160         8.1678 
 159   0.0000       0.305991         8.3265 
 160   0.0000       0.309412         8.4195 
 161   0.0000       0.312358         8.4997 
 162   0.0000       0.314256         8.5513 
 163   0.0000       0.321544         8.7497 
 164   0.0000       0.326788         8.8924 
 165   0.0000       0.332468         9.0469 
 166   0.0000       0.336372         9.1532 
 167   0.0000       0.337885         9.1943 
 168   0.0000       0.338813         9.2196 
 169   0.0000       0.339740         9.2448 
 170   0.0000       0.349975         9.5233 
 171   0.0000       0.352218         9.5843 
 172   0.0000       0.352982         9.6051 
 173   0.0000       0.356708         9.7065 
 174   0.0000       0.360158         9.8004 
 175   0.0000       0.361423         9.8348 
 176   0.0000       0.367267         9.9939 
 177   0.0000       0.371249        10.1022 
 178   0.0000       0.372464        10.1352 
 179   0.0000       0.379288        10.3210 
 180   0.0000       0.380861        10.3638 
 181   0.0000       0.384758        10.4698 
 182   0.0000       0.385841        10.4993 
 183   0.0000       0.389858        10.6086 
 184   0.0000       0.390641        10.6299 
 185   0.0000       0.397326        10.8118 
 186   0.0000       0.399595        10.8735 
 187   0.0000       0.401982        10.9385 
 188   0.0000       0.403845        10.9892 
 189   0.0000       0.408430        11.1139 
 190   0.0000       0.412731        11.2310 
 191   0.0000       0.415966        11.3190 
 192   0.0000       0.419716        11.4211 
 193   0.0000       0.426655        11.6099 
 194   0.0000       0.428770        11.6674 
 195   0.0000       0.431197        11.7335 
 196   0.0000       0.438095        11.9212 
 197   0.0000       0.443924        12.0798 
 198   0.0000       0.445872        12.1328 
 199   0.0000       0.446748        12.1566 
 200   0.0000       0.451421        12.2838 
 201   0.0000       0.452990        12.3265 
 202   0.0000       0.456572        12.4240 
 203   0.0000       0.462620        12.5885 
 204   0.0000       0.465907        12.6780 
 205   0.0000       0.469904        12.7867 
 206   0.0000       0.472094        12.8463 
 207   0.0000       0.474421        12.9096 
 208   0.0000       0.477477        12.9928 
 209   0.0000       0.480112        13.0645 
 210   0.0000       0.483057        13.1447 
 211   0.0000       0.487923        13.2771 
 212   0.0000       0.491671        13.3791 
 213   0.0000       0.496723        13.5165 
 214   0.0000       0.496876        13.5207 
 215   0.0000       0.498175        13.5560 
 216   0.0000       0.500730        13.6256 
 217   0.0000       0.506253        13.7758 
 218   0.0000       0.510575        13.8935 
 219   0.0000       0.512743        13.9525 
 220   0.0000       0.518596        14.1117 
 221   0.0000       0.519955        14.1487 
 222   0.0000       0.523127        14.2350 
 223   0.0000       0.526033        14.3141 
 224   0.0000       0.527009        14.3406 
 225   0.0000       0.531628        14.4663 
 226   0.0000       0.532449        14.4887 
 227   0.0000       0.539826        14.6894 
 228   0.0000       0.542652        14.7663 
 229   0.0000       0.547589        14.9007 
 230   0.0000       0.549626        14.9561 
 231   0.0000       0.550987        14.9931 
 232   0.0000       0.555990        15.1293 
 233   0.0000       0.560620        15.2552 
 234   0.0000       0.565178        15.3793 
 235   0.0000       0.567021        15.4294 
 236   0.0000       0.571643        15.5552 
 237   0.0000       0.576575        15.6894 
 238   0.0000       0.580256        15.7896 
 239   0.0000       0.582244        15.8437 
 240   0.0000       0.588166        16.0048 
 241   0.0000       0.590003        16.0548 
 242   0.0000       0.591442        16.0940 
 243   0.0000       0.599616        16.3164 
 244   0.0000       0.600744        16.3471 
 245   0.0000       0.602629        16.3984 
 246   0.0000       0.608891        16.5688 
 247   0.0000       0.610012        16.5993 
 248   0.0000       0.614059        16.7094 
 249   0.0000       0.620008        16.8713 
 250   0.0000       0.622589        16.9415 
 251   0.0000       0.626139        17.0381 
 252   0.0000       0.628572        17.1043 
 253   0.0000       0.631112        17.1734 
 254   0.0000       0.634994        17.2791 
 255   0.0000       0.643648        17.5146 
 256   0.0000       0.653896        17.7934 
 257   0.0000       0.655201        17.8289 
 258   0.0000       0.658617        17.9219 
 259   0.0000       0.661865        18.0103 
 260   0.0000       0.663405        18.0522 
 261   0.0000       0.673005        18.3134 
 262   0.0000       0.673893        18.3376 
 263   0.0000       0.680660        18.5217 
 264   0.0000       0.683739        18.6055 
 265   0.0000       0.687509        18.7081 
 266   0.0000       0.691685        18.8217 
 267   0.0000       0.695162        18.9163 
 268   0.0000       0.698516        19.0076 
 269   0.0000       0.700988        19.0749 
 270   0.0000       0.705145        19.1880 
 271   0.0000       0.712370        19.3846 
 272   0.0000       0.714352        19.4385 
 273   0.0000       0.722074        19.6486 
 274   0.0000       0.726834        19.7781 
 275   0.0000       0.733358        19.9557 
 276   0.0000       0.735660        20.0183 
 277   0.0000       0.737990        20.0817 
 278   0.0000       0.741954        20.1896 
 279   0.0000       0.749698        20.4003 
 280   0.0000       0.752818        20.4852 
 281   0.0000       0.762407        20.7462 
 282   0.0000       0.770352        20.9624 
 283   0.0000       0.771986        21.0068 
 284   0.0000       0.776989        21.1429 
 285   0.0000       0.781318        21.2607 
 286   0.0000       0.786065        21.3899 
 287   0.0000       0.786858        21.4115 
 288   0.0000       0.795564        21.6484 
 289   0.0000       0.806364        21.9423 
 290   0.0000       0.811532        22.0829 
 291   0.0000       0.817262        22.2388 
 292   0.0000       0.824179        22.4270 
 293   0.0000       0.826736        22.4966 
 294   0.0000       0.831737        22.6327 
 295   0.0000       0.837198        22.7813 
 296   0.0000       0.840536        22.8721 
 297   0.0000       0.851716        23.1764 
 298   0.0000       0.855363        23.2756 
 299   0.0000       0.857445        23.3323 
 300   0.0000       0.862948        23.4820 
 301   0.0000       0.868546        23.6343 
 302   0.0000       0.871656        23.7190 
 303   0.0000       0.872974        23.7548 
 304   0.0000       0.884310        24.0633 
 305   0.0000       0.885582        24.0979 
 306   0.0000       0.894485        24.3402 
 307   0.0000       0.898001        24.4358 
 308   0.0000       0.899450        24.4753 
 309   0.0000       0.903733        24.5918 
 310   0.0000       0.912105        24.8197 
 311   0.0000       0.914464        24.8838 
 312   0.0000       0.917032        24.9537 
 313   0.0000       0.919489        25.0206 
 314   0.0000       0.925640        25.1880 
 315   0.0000       0.932173        25.3657 
 316   0.0000       0.935435        25.4545 
 317   0.0000       0.938420        25.5357 
 318   0.0000       0.943932        25.6857 
 319   0.0000       0.947982        25.7959 
 320   0.0000       0.953111        25.9355 
 321   0.0000       0.957348        26.0508 
 322   0.0000       0.959013        26.0961 
 323   0.0000       0.962602        26.1937 
 324   0.0000       0.966155        26.2904 
 325   0.0000       0.968664        26.3587 
 326   0.0000       0.973461        26.4892 
 327   0.0000       0.976601        26.5747 
 328   0.0000       0.981951        26.7202 
 329   0.0000       0.984656        26.7938 
 330   0.0000       0.988671        26.9031 
 331   0.0000       0.994809        27.0701 
 332   0.0000       0.998596        27.1732 
 333   0.0000       1.000017        27.2119 
 334   0.0000       1.001355        27.2483 
 335   0.0000       1.004581        27.3360 
 336   0.0000       1.006869        27.3983 
 337   0.0000       1.015607        27.6361 
 338   0.0000       1.018823        27.7236 
 339   0.0000       1.021748        27.8032 
 340   0.0000       1.023677        27.8557 
 341   0.0000       1.029244        28.0071 
 342   0.0000       1.032315        28.0907 
 343   0.0000       1.040357        28.3096 
 344   0.0000       1.043533        28.3960 
 345   0.0000       1.045310        28.4443 
 346   0.0000       1.048420        28.5290 
 347   0.0000       1.050754        28.5925 
 348   0.0000       1.053573        28.6692 
 349   0.0000       1.056358        28.7450 
 350   0.0000       1.063786        28.9471 
 351   0.0000       1.068629        29.0789 
 352   0.0000       1.072340        29.1798 
 353   0.0000       1.073999        29.2250 
 354   0.0000       1.075976        29.2788 
 355   0.0000       1.082887        29.4668 
 356   0.0000       1.084621        29.5140 
 357   0.0000       1.093797        29.7637 
 358   0.0000       1.097839        29.8737 
 359   0.0000       1.099905        29.9299 
 360   0.0000       1.101883        29.9838 
 361   0.0000       1.108167        30.1548 
 362   0.0000       1.113617        30.3030 
 363   0.0000       1.117259        30.4022 
 364   0.0000       1.118890        30.4465 
 365   0.0000       1.125650        30.6305 
 366   0.0000       1.129495        30.7351 
 367   0.0000       1.131873        30.7998 
 368   0.0000       1.138148        30.9706 
 369   0.0000       1.139002        30.9938 
 370   0.0000       1.142908        31.1001 
 371   0.0000       1.144629        31.1469 
 372   0.0000       1.152404        31.3585 
 373   0.0000       1.154823        31.4243 
 374   0.0000       1.156078        31.4585 
 375   0.0000       1.162479        31.6327 
 376   0.0000       1.166963        31.7547 
 377   0.0000       1.168812        31.8050 
 378   0.0000       1.183534        32.2056 
 379   0.0000       1.185632        32.2627 
 380   0.0000       1.190687        32.4002 
 381   0.0000       1.198024        32.5999 
 382   0.0000       1.201888        32.7050 
 383   0.0000       1.207965        32.8704 
 384   0.0000       1.210306        32.9341 
 385   0.0000       1.214629        33.0517 
 386   0.0000       1.215693        33.0807 
 387   0.0000       1.223063        33.2812 
 388   0.0000       1.226733        33.3811 
 389   0.0000       1.229277        33.4503 
 390   0.0000       1.233287        33.5595 
 391   0.0000       1.238600        33.7040 
 392   0.0000       1.247124        33.9360 
 393   0.0000       1.248250        33.9666 
 394   0.0000       1.252620        34.0855 
 395   0.0000       1.260905        34.3110 
 396   0.0000       1.264655        34.4130 
 397   0.0000       1.270950        34.5843 
 398   0.0000       1.275886        34.7186 
 399   0.0000       1.276470        34.7345 
 400   0.0000       1.281548        34.8727 
 401   0.0000       1.289994        35.1025 
 402   0.0000       1.292118        35.1603 
 403   0.0000       1.298158        35.3247 
 404   0.0000       1.300744        35.3950 
 405   0.0000       1.302452        35.4415 
 406   0.0000       1.314696        35.7747 
 407   0.0000       1.317384        35.8479 
 408   0.0000       1.327111        36.1125 
 409   0.0000       1.328343        36.1461 
 410   0.0000       1.331650        36.2360 
 411   0.0000       1.335424        36.3387 
 412   0.0000       1.339760        36.4567 
 413   0.0000       1.343136        36.5486 
 414   0.0000       1.353767        36.8379 
 415   0.0000       1.355481        36.8845 
 416   0.0000       1.362291        37.0698 
 417   0.0000       1.372532        37.3485 
 418   0.0000       1.374656        37.4063 
 419   0.0000       1.377654        37.4879 
 420   0.0000       1.388735        37.7894 
 421   0.0000       1.394085        37.9350 
 422   0.0000       1.395668        37.9781 
 423   0.0000       1.407758        38.3070 
 424   0.0000       1.409742        38.3610 
 425   0.0000       1.415267        38.5114 
 426   0.0000       1.419197        38.6183 
 427   0.0000       1.429269        38.8924 
 428   0.0000       1.435570        39.0639 
 429   0.0000       1.438740        39.1501 
 430   0.0000       1.439765        39.1780 
 431   0.0000       1.452495        39.5244 
 432   0.0000       1.458755        39.6947 
 433   0.0000       1.460230        39.7349 
 434   0.0000       1.463698        39.8292 
 435   0.0000       1.469585        39.9894 
 436   0.0000       1.475684        40.1554 
 437   0.0000       1.482709        40.3466 
 438   0.0000       1.483840        40.3774 
 439   0.0000       1.486189        40.4413 
 440   0.0000       1.496482        40.7213 
 441   0.0000       1.502006        40.8717 
 442   0.0000       1.507096        41.0102 
 443   0.0000       1.513929        41.1961 
 444   0.0000       1.520115        41.3644 
 445   0.0000       1.524242        41.4767 
 446   0.0000       1.528932        41.6044 
 447   0.0000       1.537743        41.8441 
 448   0.0000       1.541770        41.9537 
 449   0.0000       1.545905        42.0662 
 450   0.0000       1.550935        42.2031 
 451   0.0000       1.554402        42.2974 
 452   0.0000       1.555599        42.3300 
 453   0.0000       1.566252        42.6199 
 454   0.0000       1.567047        42.6415 
 455   0.0000       1.571383        42.7595 
 456   0.0000       1.583177        43.0804 
 457   0.0000       1.590394        43.2768 
 458   0.0000       1.593555        43.3628 
 459   0.0000       1.600205        43.5438 
 460   0.0000       1.604570        43.6626 
 461   0.0000       1.606231        43.7078 
 462   0.0000       1.611790        43.8590 
 463   0.0000       1.619483        44.0684 
 464   0.0000       1.623652        44.1818 
 465   0.0000       1.626422        44.2572 
 466   0.0000       1.631617        44.3986 
 467   0.0000       1.632959        44.4351 
 468   0.0000       1.644002        44.7356 
 469   0.0000       1.649114        44.8747 
 470   0.0000       1.656267        45.0693 
 471   0.0000       1.657998        45.1164 
 472   0.0000       1.663721        45.2721 
 473   0.0000       1.666305        45.3425 
 474   0.0000       1.671715        45.4897 
 475   0.0000       1.675985        45.6059 
 476   0.0000       1.683737        45.8168 
 477   0.0000       1.686737        45.8984 
 478   0.0000       1.696584        46.1664 
 479   0.0000       1.702864        46.3373 
 480   0.0000       1.703802        46.3628 
 481   0.0000       1.706349        46.4321 
 482   0.0000       1.716735        46.7147 
 483   0.0000       1.717191        46.7271 
 484   0.0000       1.720480        46.8167 
 485   0.0000       1.726377        46.9771 
 486   0.0000       1.732858        47.1535 
 487   0.0000       1.737342        47.2755 
 488   0.0000       1.743476        47.4424 
 489   0.0000       1.745437        47.4957 
 490   0.0000       1.759355        47.8745 
 491   0.0000       1.763127        47.9771 
 492   0.0000       1.765995        48.0552 
 493   0.0000       1.767394        48.0932 
 494   0.0000       1.774733        48.2929 
 495   0.0000       1.778019        48.3824 
 496   0.0000       1.789175        48.6859 
 497   0.0000       1.791115        48.7387 
 498   0.0000       1.799452        48.9656 
 499   0.0000       1.808907        49.2229 
 500   0.0000       1.811809        49.3018 
 501   0.0000       1.814835        49.3842 
 502   0.0000       1.819997        49.5246 
 503   0.0000       1.821042        49.5531 
 504   0.0000       1.832478        49.8643 
 505   0.0000       1.834833        49.9283 
 506   0.0000       1.840180        50.0738 
 507   0.0000       1.846226        50.2384 
 508   0.0000       1.849987        50.3407 
 509   0.0000       1.860071        50.6151 
 510   0.0000       1.861149        50.6444 
 511   0.0000       1.869029        50.8589 
 512   0.0000       1.871600        50.9288 
 513   0.0000       1.875095        51.0239 
 514   0.0000       1.881870        51.2083 
 515   0.0000       1.886181        51.3256 
 516   0.0000       1.889340        51.4116 
 517   0.0000       1.897306        51.6283 
 518   0.0000       1.907438        51.9040 
 519   0.0000       1.913795        52.0770 
 520   0.0000       1.918693        52.2103 
 521   0.0000       1.920944        52.2715 
 522   0.0000       1.923172        52.3322 
 523   0.0000       1.928599        52.4798 
 524   0.0000       1.937520        52.7226 
 525   0.0000       1.941314        52.8258 
 526   0.0000       1.945849        52.9492 
 527   0.0000       1.949311        53.0434 
 528   0.0000       1.952361        53.1264 
 529   0.0000       1.961975        53.3881 
 530   0.0000       1.973570        53.7036 
 531   0.0000       1.975037        53.7435 
 532   0.0000       1.981527        53.9201 
 533   0.0000       1.985913        54.0394 
 534   0.0000       1.993332        54.2413 
 535   0.0000       1.996063        54.3156 
 536   0.0000       2.000945        54.4485 
 537   0.0000       2.004646        54.5492 
 538   0.0000       2.011761        54.7428 
 539   0.0000       2.016045        54.8594 
 540   0.0000       2.030088        55.2415 
 541   0.0000       2.030554        55.2542 
 542   0.0000       2.037957        55.4556 
 543   0.0000       2.038895        55.4812 
 544   0.0000       2.059984        56.0550 
 545   0.0000       2.069184        56.3053 
 546   0.0000       2.072058        56.3836 
 547   0.0000       2.082399        56.6650 
 548   0.0000       2.086346        56.7724 
 549   0.0000       2.097559        57.0775 
 550   0.0000       2.102618        57.2151 
 551   0.0000       2.105229        57.2862 
 552   0.0000       2.108599        57.3779 
 553   0.0000       2.116823        57.6017 
 554   0.0000       2.122982        57.7693 
 555   0.0000       2.137505        58.1645 
 556   0.0000       2.138749        58.1983 
 557   0.0000       2.148472        58.4629 
 558   0.0000       2.159399        58.7602 
 559   0.0000       2.163142        58.8621 
 560   0.0000       2.172292        59.1111 
 561   0.0000       2.175648        59.2024 
 562   0.0000       2.180279        59.3284 
 563   0.0000       2.189079        59.5679 
 564   0.0000       2.196140        59.7600 
 565   0.0000       2.204975        60.0004 
 566   0.0000       2.210641        60.1546 
 567   0.0000       2.214089        60.2484 
 568   0.0000       2.218655        60.3727 
 569   0.0000       2.226569        60.5880 
 570   0.0000       2.235373        60.8276 
 571   0.0000       2.241432        60.9925 
 572   0.0000       2.247002        61.1440 
 573   0.0000       2.255255        61.3686 
 574   0.0000       2.259006        61.4707 
 575   0.0000       2.263764        61.6001 
 576   0.0000       2.268759        61.7361 
 577   0.0000       2.271395        61.8078 
 578   0.0000       2.285120        62.1813 
 579   0.0000       2.298796        62.5534 
 580   0.0000       2.300617        62.6030 
 581   0.0000       2.308795        62.8255 
 582   0.0000       2.313686        62.9586 
 583   0.0000       2.328339        63.3573 
 584   0.0000       2.337423        63.6045 
 585   0.0000       2.343926        63.7815 
 586   0.0000       2.348586        63.9083 
 587   0.0000       2.358529        64.1788 
 588   0.0000       2.361844        64.2690 
 589   0.0000       2.370673        64.5093 
 590   0.0000       2.381431        64.8020 
 591   0.0000       2.394115        65.1472 
 592   0.0000       2.400902        65.3319 
 593   0.0000       2.406550        65.4856 
 594   0.0000       2.412701        65.6529 
 595   0.0000       2.418239        65.8036 
 596   0.0000       2.430646        66.1412 
 597   0.0000       2.440020        66.3963 
 598   0.0000       2.449772        66.6617 
 599   0.0000       2.455388        66.8145 
 600   0.0000       2.459858        66.9361 
 601   0.0000       2.470576        67.2278 
 602   0.0000       2.478919        67.4548 
 603   0.0000       2.489722        67.7488 
 604   0.0000       2.499514        68.0152 
 605   0.0000       2.505782        68.1858 
 606   0.0000       2.510608        68.3171 
 607   0.0000       2.530328        68.8537 
 608   0.0000       2.540042        69.1180 
 609   0.0000       2.550538        69.4037 
 610   0.0000       2.560574        69.6767 
 611   0.0000       2.568618        69.8957 
 612   0.0000       2.581756        70.2532 
 613   0.0000       2.604245        70.8651 
 614   0.0000       2.621923        71.3461 
 615   0.0000       2.624919        71.4277 
 616   0.0000       2.635563        71.7173 
 617   0.0000       2.644259        71.9539 
 618   0.0000       2.652498        72.1781 
 619   0.0000       2.673385        72.7465 
 620   0.0000       2.675716        72.8099 
 621   0.0000       2.690558        73.2138 
 622   0.0000       2.695718        73.3542 
 623   0.0000       2.704183        73.5846 
 624   0.0000       2.716449        73.9183 
 625   0.0000       2.725023        74.1516 
 626   0.0000       2.728136        74.2363 
 627   0.0000       2.737081        74.4798 
 628   0.0000       2.738086        74.5071 
 629   0.0000       2.748810        74.7989 
 630   0.0000       2.753266        74.9202 
 631   0.0000       2.765067        75.2413 
 632   0.0000       2.775001        75.5116 
 633   0.0000       2.779062        75.6221 
 634   0.0000       2.783878        75.7532 
 635   0.0000       2.791331        75.9560 
 636   0.0000       2.813774        76.5667 
 637   0.0000       2.836717        77.1910 
 638   0.0000       2.848875        77.5218 
 639   0.0000       2.860341        77.8338 
 640   0.0000       2.883008        78.4506 
 641   0.0000       2.883630        78.4676 
 642   0.0000       2.907823        79.1259 
 643   0.0000       2.916664        79.3665 
 644   0.0000       2.924072        79.5680 
 645   0.0000       2.935810        79.8874 
 646   0.0000       2.942428        80.0675 
 647   0.0000       2.955063        80.4114 
 648   0.0000       2.973201        80.9049 
 649   0.0000       2.981367        81.1271 
 650   0.0000       2.998948        81.6055 
 651   0.0000       3.010134        81.9099 
 652   0.0000       3.019724        82.1709 
 653   0.0000       3.030391        82.4611 
 654   0.0000       3.059323        83.2484 
 655   0.0000       3.080098        83.8137 
 656   0.0000       3.086197        83.9797 
 657   0.0000       3.093244        84.1714 
 658   0.0000       3.122612        84.9706 
 659   0.0000       3.129705        85.1636 
 660   0.0000       3.138970        85.4157 
 661   0.0000       3.162617        86.0592 
 662   0.0000       3.176491        86.4367 
 663   0.0000       3.187758        86.7433 
 664   0.0000       3.194961        86.9393 
 665   0.0000       3.205136        87.2162 
 666   0.0000       3.208966        87.3204 
 667   0.0000       3.220692        87.6395 
 668   0.0000       3.225089        87.7591 
 669   0.0000       3.243909        88.2713 
 670   0.0000       3.248468        88.3953 
 671   0.0000       3.260949        88.7349 
 672   0.0000       3.265280        88.8528 
 673   0.0000       3.273590        89.0789 
 674   0.0000       3.285745        89.4097 
 675   0.0000       3.299148        89.7744 
 676   0.0000       3.307622        90.0050 
 677   0.0000       3.317706        90.2794 
 678   0.0000       3.328619        90.5763 
 679   0.0000       3.332014        90.6687 
 680   0.0000       3.341103        90.9160 
 681   0.0000       3.353871        91.2635 
 682   0.0000       3.360028        91.4310 
 683   0.0000       3.364898        91.5635 
 684   0.0000       3.369925        91.7003 
 685   0.0000       3.394359        92.3652 
 686   0.0000       3.394753        92.3759 
 687   0.0000       3.411354        92.8277 
 688   0.0000       3.414675        92.9180 
 689   0.0000       3.419191        93.0409 
 690   0.0000       3.434057        93.4454 
 691   0.0000       3.439351        93.5895 
 692   0.0000       3.456401        94.0534 
 693   0.0000       3.460610        94.1680 
 694   0.0000       3.480953        94.7216 
 695   0.0000       3.485816        94.8539 
 696   0.0000       3.494305        95.0849 
 697   0.0000       3.506114        95.4062 
 698   0.0000       3.510698        95.5309 
 699   0.0000       3.513907        95.6183 
 700   0.0000       3.517714        95.7219 
 701   0.0000       3.526505        95.9611 
 702   0.0000       3.540178        96.3331 
 703   0.0000       3.549282        96.5809 
 704   0.0000       3.554804        96.7311 
 705   0.0000       3.562767        96.9478 
 706   0.0000       3.575055        97.2822 
 707   0.0000       3.585868        97.5764 
 708   0.0000       3.598168        97.9111 
 709   0.0000       3.600039        97.9620 
 710   0.0000       3.609542        98.2206 
 711   0.0000       3.615810        98.3912 
 712   0.0000       3.626175        98.6732 
 713   0.0000       3.628847        98.7459 
 714   0.0000       3.639181        99.0272 
 715   0.0000       3.645900        99.2100 
 716   0.0000       3.657647        99.5296 
 717   0.0000       3.659070        99.5683 
 718   0.0000       3.670961        99.8919 
 719   0.0000       3.688772       100.3766 
 720   0.0000       3.698135       100.6314 
 721   0.0000       3.709104       100.9298 
 722   0.0000       3.716189       101.1226 
 723   0.0000       3.724603       101.3516 
 724   0.0000       3.728761       101.4647 
 725   0.0000       3.736054       101.6632 
 726   0.0000       3.739686       101.7620 
 727   0.0000       3.746725       101.9536 
 728   0.0000       3.753633       102.1415 
 729   0.0000       3.758086       102.2627 
 730   0.0000       3.766140       102.4819 
 731   0.0000       3.776076       102.7522 
 732   0.0000       3.780573       102.8746 
 733   0.0000       3.788671       103.0950 
 734   0.0000       3.792381       103.1959 
 735   0.0000       3.802116       103.4608 
 736   0.0000       3.806942       103.5921 
 737   0.0000       3.808599       103.6372 
 738   0.0000       3.821628       103.9918 
 739   0.0000       3.829840       104.2152 
 740   0.0000       3.835929       104.3809 
 741   0.0000       3.838968       104.4636 
 742   0.0000       3.849881       104.7606 
 743   0.0000       3.858328       104.9904 
 744   0.0000       3.868127       105.2571 
 745   0.0000       3.876334       105.4804 
 746   0.0000       3.884171       105.6937 
 747   0.0000       3.897232       106.0491 
 748   0.0000       3.903051       106.2074 
 749   0.0000       3.913344       106.4875 
 750   0.0000       3.917635       106.6043 
 751   0.0000       3.925668       106.8229 
 752   0.0000       3.928976       106.9129 
 753   0.0000       3.931944       106.9936 
 754   0.0000       3.939451       107.1979 
 755   0.0000       3.940459       107.2253 
 756   0.0000       3.959414       107.7411 
 757   0.0000       3.963118       107.8419 
 758   0.0000       3.966261       107.9275 
 759   0.0000       3.967155       107.9518 
 760   0.0000       3.976698       108.2114 
 761   0.0000       3.988139       108.5228 
 762   0.0000       3.997243       108.7705 
 763   0.0000       4.005561       108.9969 
 764   0.0000       4.011155       109.1491 
 765   0.0000       4.016177       109.2857 
 766   0.0000       4.026014       109.5534 
 767   0.0000       4.040002       109.9341 
 768   0.0000       4.046654       110.1151 
 769   0.0000       4.051195       110.2386 
 770   0.0000       4.055822       110.3645 
 771   0.0000       4.062991       110.5596 
 772   0.0000       4.070596       110.7666 
 773   0.0000       4.078394       110.9787 
 774   0.0000       4.092072       111.3509 
 775   0.0000       4.102793       111.6427 
 776   0.0000       4.104058       111.6771 
 777   0.0000       4.115651       111.9925 
 778   0.0000       4.119818       112.1059 
 779   0.0000       4.120804       112.1328 
 780   0.0000       4.133629       112.4818 
 781   0.0000       4.137664       112.5916 
 782   0.0000       4.149591       112.9161 
 783   0.0000       4.162214       113.2596 
 784   0.0000       4.171656       113.5165 
 785   0.0000       4.179097       113.7190 
 786   0.0000       4.186103       113.9096 
 787   0.0000       4.190783       114.0370 
 788   0.0000       4.207304       114.4866 
 789   0.0000       4.215296       114.7040 
 790   0.0000       4.226737       115.0154 
 791   0.0000       4.229393       115.0876 
 792   0.0000       4.240212       115.3820 
 793   0.0000       4.252772       115.7238 
 794   0.0000       4.259829       115.9158 
 795   0.0000       4.260744       115.9407 
 796   0.0000       4.266174       116.0885 
 797   0.0000       4.276936       116.3813 
 798   0.0000       4.290489       116.7502 
 799   0.0000       4.296330       116.9091 
 800   0.0000       4.312067       117.3373 
 801   0.0000       4.324835       117.6848 
 802   0.0000       4.326313       117.7250 
 803   0.0000       4.342509       118.1657 
 804   0.0000       4.345627       118.2505 
 805   0.0000       4.356682       118.5513 
 806   0.0000       4.363520       118.7374 
 807   0.0000       4.368039       118.8604 
 808   0.0000       4.383771       119.2885 
 809   0.0000       4.388194       119.4088 
 810   0.0000       4.398660       119.6936 
 811   0.0000       4.402803       119.8063 
 812   0.0000       4.416208       120.1711 
 813   0.0000       4.420254       120.2812 
 814   0.0000       4.433954       120.6540 
 815   0.0000       4.444086       120.9297 
 816   0.0000       4.454759       121.2201 
 817   0.0000       4.461889       121.4142 
 818   0.0000       4.472785       121.7107 
 819   0.0000       4.480057       121.9086 
 820   0.0000       4.483217       121.9945 
 821   0.0000       4.495234       122.3215 
 822   0.0000       4.506057       122.6160 
 823   0.0000       4.513414       122.8162 
 824   0.0000       4.519864       122.9917 
 825   0.0000       4.525556       123.1466 
 826   0.0000       4.545508       123.6896 
 827   0.0000       4.554288       123.9285 
 828   0.0000       4.557986       124.0291 
 829   0.0000       4.566738       124.2673 
 830   0.0000       4.580567       124.6436 
 831   0.0000       4.601861       125.2230 
 832   0.0000       4.606353       125.3452 
 833   0.0000       4.621359       125.7536 
 834   0.0000       4.623320       125.8069 
 835   0.0000       4.638885       126.2305 
 836   0.0000       4.641042       126.2892 
 837   0.0000       4.664187       126.9190 
 838   0.0000       4.681354       127.3861 
 839   0.0000       4.689823       127.6166 
 840   0.0000       4.696699       127.8037 
 841   0.0000       4.704822       128.0247 
 842   0.0000       4.712351       128.2296 
 843   0.0000       4.730843       128.7328 
 844   0.0000       4.737597       128.9166 
 845   0.0000       4.745256       129.1250 
 846   0.0000       4.760256       129.5332 
 847   0.0000       4.776412       129.9728 
 848   0.0000       4.783550       130.1670 
 849   0.0000       4.786992       130.2607 
 850   0.0000       4.804741       130.7437 
 851   0.0000       4.819089       131.1341 
 852   0.0000       4.828209       131.3823 
 853   0.0000       4.843948       131.8105 
 854   0.0000       4.856463       132.1511 
 855   0.0000       4.863998       132.3561 
 856   0.0000       4.882996       132.8731 
 857   0.0000       4.885270       132.9350 
 858   0.0000       4.898489       133.2946 
 859   0.0000       4.921810       133.9293 
 860   0.0000       4.933617       134.2505 
 861   0.0000       4.938799       134.3916 
 862   0.0000       4.950052       134.6978 
 863   0.0000       4.958615       134.9308 
 864   0.0000       4.971694       135.2867 
 865   0.0000       4.982754       135.5876 
 866   0.0000       4.990373       135.7950 
 867   0.0000       5.003189       136.1437 
 868   0.0000       5.012768       136.4044 
 869   0.0000       5.023608       136.6993 
 870   0.0000       5.031441       136.9125 
 871   0.0000       5.040467       137.1581 
 872   0.0000       5.052569       137.4874 
 873   0.0000       5.062535       137.7586 
 874   0.0000       5.066436       137.8647 
 875   0.0000       5.085370       138.3800 
 876   0.0000       5.094667       138.6329 
 877   0.0000       5.112628       139.1217 
 878   0.0000       5.118075       139.2699 
 879   0.0000       5.134778       139.7244 
 880   0.0000       5.154454       140.2598 
 881   0.0000       5.164420       140.5310 
 882   0.0000       5.184044       141.0650 
 883   0.0000       5.186414       141.1295 
 884   0.0000       5.196846       141.4134 
 885   0.0000       5.212195       141.8310 
 886   0.0000       5.224891       142.1765 
 887   0.0000       5.246689       142.7697 
 888   0.0000       5.258249       143.0842 
 889   0.0000       5.269475       143.3897 
 890   0.0000       5.276994       143.5943 
 891   0.0000       5.294037       144.0581 
 892   0.0000       5.297614       144.1554 
 893   0.0000       5.302980       144.3014 
 894   0.0000       5.321761       144.8125 
 895   0.0000       5.340981       145.3355 
 896   0.0000       5.344054       145.4191 
 897   0.0000       5.359144       145.8297 
 898   0.0000       5.366846       146.0393 
 899   0.0000       5.383260       146.4859 
 900   0.0000       5.390002       146.6694 
 901   0.0000       5.395296       146.8135 
 902   0.0000       5.409360       147.1962 
 903   0.0000       5.426095       147.6516 
 904   0.0000       5.451600       148.3456 
 905   0.0000       5.455305       148.4464 
 906   0.0000       5.459640       148.5643 
 907   0.0000       5.482272       149.1802 
 908   0.0000       5.488835       149.3588 
 909   0.0000       5.507544       149.8679 
 910   0.0000       5.520576       150.2225 
 911   0.0000       5.536644       150.6597 
 912   0.0000       5.542578       150.8212 
 913   0.0000       5.552337       151.0868 
 914   0.0000       5.560260       151.3024 
 915   0.0000       5.572669       151.6400 
 916   0.0000       5.595059       152.2493 
 917   0.0000       5.603378       152.4757 
 918   0.0000       5.614205       152.7703 
 919   0.0000       5.623282       153.0173 
 920   0.0000       5.625226       153.0702 
 921   0.0000       5.638355       153.4274 
 922   0.0000       5.648455       153.7023 
 923   0.0000       5.664769       154.1462 
 924   0.0000       5.679410       154.5446 
 925   0.0000       5.686331       154.7329 
 926   0.0000       5.698423       155.0620 
 927   0.0000       5.713292       155.4666 
 928   0.0000       5.730678       155.9397 
 929   0.0000       5.733290       156.0107 
 930   0.0000       5.744671       156.3204 
 931   0.0000       5.759439       156.7223 
 932   0.0000       5.767539       156.9427 
 933   0.0000       5.781900       157.3335 
 934   0.0000       5.792414       157.6196 
 935   0.0000       5.803575       157.9233 
 936   0.0000       5.832742       158.7170 
 937   0.0000       5.837839       158.8557 
 938   0.0000       5.856224       159.3559 
 939   0.0000       5.877975       159.9478 
 940   0.0000       5.885781       160.1602 
 941   0.0000       5.904313       160.6645 
 942   0.0000       5.927331       161.2909 
 943   0.0000       5.943414       161.7285 
 944   0.0000       5.952629       161.9793 
 945   0.0000       5.978338       162.6789 
 946   0.0000       5.984112       162.8360 
 947   0.0000       6.078907       165.4155 
 948   0.0000       6.097429       165.9195 
 949   0.0000       6.140542       167.0926 
 950   0.0000       6.157719       167.5600 
 951   0.0000       6.164783       167.7523 
 952   0.0000       6.198425       168.6677 
 953   0.0000       6.210667       169.0008 
 954   0.0000       6.226725       169.4378 
 955   0.0000       6.247137       169.9933 
 956   0.0000       6.251721       170.1180 
 957   0.0000       6.274132       170.7278 
 958   0.0000       6.278738       170.8532 
 959   0.0000       6.307533       171.6367 
 960   0.0000       6.316830       171.8897 
 961   0.0000       6.325872       172.1357 
 962   0.0000       6.363999       173.1732 
 963   0.0000       6.373051       173.4195 
 964   0.0000       6.388780       173.8475 
 965   0.0000       6.416021       174.5888 
 966   0.0000       6.445264       175.3845 
 967   0.0000       6.449176       175.4910 
 968   0.0000       6.463741       175.8873 
 969   0.0000       6.532293       177.7527 
 970   0.0000       6.592005       179.3776 
 971   0.0000       6.738117       183.3535 
 972   0.0000       6.800314       185.0459 
 973   0.0000       6.870514       186.9562 
 974   0.0000       6.900350       187.7681 
 975   0.0000       6.916818       188.2162 
 976   0.0000       6.939335       188.8289 
 977   0.0000       6.964931       189.5254 
 978   0.0000       6.981659       189.9806 
 979   0.0000       6.988540       190.1678 
 980   0.0000       7.030306       191.3044 
 981   0.0000       7.052956       191.9207 
 982   0.0000       7.086544       192.8347 
 983   0.0000       7.090799       192.9504 
 984   0.0000       7.188519       195.6096 
 985   0.0000       7.277807       198.0392 
 986   0.0000       7.342316       199.7946 
 987   0.0000       7.413691       201.7368 
 988   0.0000       7.514816       204.4885 
 989   0.0000       7.528118       204.8505 
 990   0.0000       7.576782       206.1747 
 991   0.0000       7.635155       207.7631 
 992   0.0000       7.684011       209.0926 
 993   0.0000       7.805489       212.3982 
 994   0.0000       7.848209       213.5606 
 995   0.0000       7.943231       216.1463 
 996   0.0000       8.094372       220.2591 
 997   0.0000       8.168646       222.2802 
 998   0.0000       8.383267       228.1203 
 999   0.0000       9.449815       257.1425 
 1000   0.0000       9.465639       257.5731 
 1001   0.0000       9.479919       257.9617 
 1002   0.0000       9.489921       258.2339 
 1003   0.0000       9.519739       259.0453 
 1004   0.0000       9.534816       259.4555 
 1005   0.0000       9.787252       266.3247 
 1006   0.0000      10.112693       275.1804 
 1007   0.0000      10.135761       275.8081 
 1008   0.0000      10.168020       276.6859 
 1009   0.0000      10.231775       278.4208 
 1010   0.0000      10.238488       278.6034 
 1011   0.0000      10.264747       279.3180 
 1012   0.0000      10.420573       283.5582 
 1013   0.0000      10.448045       284.3057 
 1014   0.0000      10.585587       288.0485 
 1015   0.0000      16.921507       460.4576 
 1016   0.0000      17.705171       481.7822 
 1017   0.0000      18.305811       498.1264 
 1018   0.0000      18.492449       503.2051 
 1019   0.0000      18.889339       514.0051 
 1020   0.0000      19.124297       520.3986 
 1021   0.0000      19.240160       523.5514 
 1022   0.0000      19.677917       535.4633 
 1023   0.0000      20.529818       558.6448 
 1024   0.0000      21.982784       598.1820 

                 SPIN DOWN ORBITALS
  NO   OCC          E(Eh)            E(eV) 
   0   1.0000    -261.536840     -7116.7792 
   1   1.0000    -104.767539     -2850.8697 
   2   1.0000    -104.767076     -2850.8571 
   3   1.0000    -104.764909     -2850.7981 
   4   1.0000     -32.046283      -872.0237 
   5   1.0000     -27.524392      -748.9768 
   6   1.0000     -27.524180      -748.9710 
   7   1.0000     -27.523671      -748.9572 
   8   1.0000     -20.528829      -558.6178 
   9   1.0000     -11.400052      -310.2112 
  10   1.0000     -11.348183      -308.7998 
  11   1.0000     -11.304697      -307.6165 
  12   1.0000     -11.289828      -307.2118 
  13   1.0000     -11.275375      -306.8185 
  14   1.0000     -11.254492      -306.2503 
  15   1.0000     -11.243094      -305.9401 
  16   1.0000     -11.233626      -305.6825 
  17   1.0000     -10.494013      -285.5566 
  18   1.0000     -10.493500      -285.5426 
  19   1.0000     -10.491390      -285.4852 
  20   1.0000      -7.959891      -216.5996 
  21   1.0000      -7.959437      -216.5873 
  22   1.0000      -7.959382      -216.5858 
  23   1.0000      -7.959304      -216.5837 
  24   1.0000      -7.958863      -216.5717 
  25   1.0000      -7.958757      -216.5688 
  26   1.0000      -7.957370      -216.5310 
  27   1.0000      -7.956644      -216.5113 
  28   1.0000      -7.956574      -216.5094 
  29   1.0000      -4.121651      -112.1558 
  30   1.0000      -2.643566       -71.9351 
  31   1.0000      -2.643478       -71.9327 
  32   1.0000      -2.642572       -71.9080 
  33   1.0000      -1.356056       -36.9002 
  34   1.0000      -1.200448       -32.6658 
  35   1.0000      -1.086843       -29.5745 
  36   1.0000      -1.045185       -28.4409 
  37   1.0000      -1.025711       -27.9110 
  38   1.0000      -1.018576       -27.7169 
  39   1.0000      -1.014573       -27.6079 
  40   1.0000      -1.013019       -27.5656 
  41   1.0000      -0.967172       -26.3181 
  42   1.0000      -0.933609       -25.4048 
  43   1.0000      -0.805493       -21.9186 
  44   1.0000      -0.775337       -21.0980 
  45   1.0000      -0.714455       -19.4413 
  46   1.0000      -0.697168       -18.9709 
  47   1.0000      -0.678314       -18.4579 
  48   1.0000      -0.650143       -17.6913 
  49   1.0000      -0.646246       -17.5852 
  50   1.0000      -0.630133       -17.1468 
  51   1.0000      -0.609178       -16.5766 
  52   1.0000      -0.601997       -16.3812 
  53   1.0000      -0.589424       -16.0390 
  54   1.0000      -0.585688       -15.9374 
  55   1.0000      -0.569390       -15.4939 
  56   1.0000      -0.562006       -15.2930 
  57   1.0000      -0.555188       -15.1074 
  58   1.0000      -0.537036       -14.6135 
  59   1.0000      -0.527828       -14.3629 
  60   1.0000      -0.513168       -13.9640 
  61   1.0000      -0.495956       -13.4956 
  62   1.0000      -0.463257       -12.6059 
  63   1.0000      -0.460255       -12.5242 
  64   1.0000      -0.446515       -12.1503 
  65   1.0000      -0.434604       -11.8262 
  66   1.0000      -0.430241       -11.7075 
  67   1.0000      -0.426863       -11.6155 
  68   1.0000      -0.425736       -11.5849 
  69   1.0000      -0.405649       -11.0383 
  70   1.0000      -0.396078       -10.7778 
  71   1.0000      -0.393012       -10.6944 
  72   0.0000      -0.000913        -0.0248 
  73   0.0000       0.002526         0.0687 
  74   0.0000       0.017543         0.4774 
  75   0.0000       0.018570         0.5053 
  76   0.0000       0.028049         0.7632 
  77   0.0000       0.037832         1.0295 
  78   0.0000       0.038136         1.0377 
  79   0.0000       0.041084         1.1179 
  80   0.0000       0.044975         1.2238 
  81   0.0000       0.048622         1.3231 
  82   0.0000       0.057813         1.5732 
  83   0.0000       0.058445         1.5904 
  84   0.0000       0.060468         1.6454 
  85   0.0000       0.061693         1.6788 
  86   0.0000       0.064026         1.7422 
  87   0.0000       0.071455         1.9444 
  88   0.0000       0.074981         2.0403 
  89   0.0000       0.077568         2.1107 
  90   0.0000       0.088983         2.4213 
  91   0.0000       0.090144         2.4530 
  92   0.0000       0.092918         2.5284 
  93   0.0000       0.094649         2.5755 
  94   0.0000       0.096922         2.6374 
  95   0.0000       0.099355         2.7036 
  96   0.0000       0.107084         2.9139 
  97   0.0000       0.112462         3.0603 
  98   0.0000       0.116980         3.1832 
  99   0.0000       0.120672         3.2836 
 100   0.0000       0.122432         3.3316 
 101   0.0000       0.125299         3.4095 
 102   0.0000       0.130489         3.5508 
 103   0.0000       0.131861         3.5881 
 104   0.0000       0.132732         3.6118 
 105   0.0000       0.133965         3.6454 
 106   0.0000       0.134953         3.6723 
 107   0.0000       0.135776         3.6946 
 108   0.0000       0.137663         3.7460 
 109   0.0000       0.141675         3.8552 
 110   0.0000       0.145166         3.9502 
 111   0.0000       0.147411         4.0112 
 112   0.0000       0.148194         4.0326 
 113   0.0000       0.154065         4.1923 
 114   0.0000       0.155678         4.2362 
 115   0.0000       0.157999         4.2994 
 116   0.0000       0.158690         4.3182 
 117   0.0000       0.161693         4.3999 
 118   0.0000       0.163922         4.4606 
 119   0.0000       0.165444         4.5020 
 120   0.0000       0.170576         4.6416 
 121   0.0000       0.173233         4.7139 
 122   0.0000       0.175635         4.7793 
 123   0.0000       0.178226         4.8498 
 124   0.0000       0.178854         4.8669 
 125   0.0000       0.187079         5.0907 
 126   0.0000       0.188401         5.1267 
 127   0.0000       0.191394         5.2081 
 128   0.0000       0.198654         5.4057 
 129   0.0000       0.205709         5.5976 
 130   0.0000       0.207963         5.6590 
 131   0.0000       0.210465         5.7270 
 132   0.0000       0.214753         5.8437 
 133   0.0000       0.218526         5.9464 
 134   0.0000       0.221092         6.0162 
 135   0.0000       0.225343         6.1319 
 136   0.0000       0.227652         6.1947 
 137   0.0000       0.229179         6.2363 
 138   0.0000       0.233078         6.3424 
 139   0.0000       0.234733         6.3874 
 140   0.0000       0.238396         6.4871 
 141   0.0000       0.241053         6.5594 
 142   0.0000       0.243259         6.6194 
 143   0.0000       0.249165         6.7801 
 144   0.0000       0.251099         6.8328 
 145   0.0000       0.256620         6.9830 
 146   0.0000       0.259112         7.0508 
 147   0.0000       0.260438         7.0869 
 148   0.0000       0.268834         7.3153 
 149   0.0000       0.273392         7.4394 
 150   0.0000       0.277652         7.5553 
 151   0.0000       0.278497         7.5783 
 152   0.0000       0.284653         7.7458 
 153   0.0000       0.287386         7.8202 
 154   0.0000       0.293243         7.9796 
 155   0.0000       0.295291         8.0353 
 156   0.0000       0.298594         8.1252 
 157   0.0000       0.303612         8.2617 
 158   0.0000       0.308522         8.3953 
 159   0.0000       0.309311         8.4168 
 160   0.0000       0.313893         8.5415 
 161   0.0000       0.315989         8.5985 
 162   0.0000       0.317488         8.6393 
 163   0.0000       0.326093         8.8734 
 164   0.0000       0.330374         8.9899 
 165   0.0000       0.335641         9.1333 
 166   0.0000       0.339397         9.2355 
 167   0.0000       0.339796         9.2463 
 168   0.0000       0.342543         9.3211 
 169   0.0000       0.346538         9.4298 
 170   0.0000       0.351816         9.5734 
 171   0.0000       0.355549         9.6750 
 172   0.0000       0.356388         9.6978 
 173   0.0000       0.358813         9.7638 
 174   0.0000       0.362669         9.8687 
 175   0.0000       0.364811         9.9270 
 176   0.0000       0.371530        10.1099 
 177   0.0000       0.373940        10.1754 
 178   0.0000       0.378245        10.2926 
 179   0.0000       0.381404        10.3785 
 180   0.0000       0.384605        10.4656 
 181   0.0000       0.386386        10.5141 
 182   0.0000       0.393128        10.6976 
 183   0.0000       0.395818        10.7707 
 184   0.0000       0.399742        10.8775 
 185   0.0000       0.401203        10.9173 
 186   0.0000       0.403004        10.9663 
 187   0.0000       0.406171        11.0525 
 188   0.0000       0.408993        11.1293 
 189   0.0000       0.411597        11.2001 
 190   0.0000       0.415273        11.3001 
 191   0.0000       0.419729        11.4214 
 192   0.0000       0.424227        11.5438 
 193   0.0000       0.431024        11.7287 
 194   0.0000       0.431978        11.7547 
 195   0.0000       0.433831        11.8051 
 196   0.0000       0.439794        11.9674 
 197   0.0000       0.447016        12.1639 
 198   0.0000       0.448782        12.2120 
 199   0.0000       0.451577        12.2880 
 200   0.0000       0.452569        12.3150 
 201   0.0000       0.458718        12.4823 
 202   0.0000       0.462550        12.5866 
 203   0.0000       0.468596        12.7511 
 204   0.0000       0.472147        12.8478 
 205   0.0000       0.473285        12.8787 
 206   0.0000       0.475221        12.9314 
 207   0.0000       0.479122        13.0376 
 208   0.0000       0.481136        13.0924 
 209   0.0000       0.482549        13.1308 
 210   0.0000       0.490924        13.3587 
 211   0.0000       0.491861        13.3842 
 212   0.0000       0.494638        13.4598 
 213   0.0000       0.497684        13.5427 
 214   0.0000       0.500358        13.6154 
 215   0.0000       0.502860        13.6835 
 216   0.0000       0.506570        13.7845 
 217   0.0000       0.510633        13.8950 
 218   0.0000       0.512078        13.9344 
 219   0.0000       0.517663        14.0863 
 220   0.0000       0.520925        14.1751 
 221   0.0000       0.521891        14.2014 
 222   0.0000       0.525371        14.2961 
 223   0.0000       0.528774        14.3887 
 224   0.0000       0.532440        14.4884 
 225   0.0000       0.535800        14.5799 
 226   0.0000       0.538643        14.6572 
 227   0.0000       0.541909        14.7461 
 228   0.0000       0.548772        14.9328 
 229   0.0000       0.551641        15.0109 
 230   0.0000       0.553453        15.0602 
 231   0.0000       0.554863        15.0986 
 232   0.0000       0.558622        15.2009 
 233   0.0000       0.562400        15.3037 
 234   0.0000       0.567580        15.4446 
 235   0.0000       0.569403        15.4942 
 236   0.0000       0.574729        15.6392 
 237   0.0000       0.578743        15.7484 
 238   0.0000       0.582363        15.8469 
 239   0.0000       0.585123        15.9220 
 240   0.0000       0.590980        16.0814 
 241   0.0000       0.592171        16.1138 
 242   0.0000       0.593583        16.1522 
 243   0.0000       0.601757        16.3746 
 244   0.0000       0.603867        16.4320 
 245   0.0000       0.605186        16.4680 
 246   0.0000       0.610583        16.6148 
 247   0.0000       0.611555        16.6412 
 248   0.0000       0.616128        16.7657 
 249   0.0000       0.621244        16.9049 
 250   0.0000       0.624798        17.0016 
 251   0.0000       0.627865        17.0851 
 252   0.0000       0.629378        17.1263 
 253   0.0000       0.631991        17.1974 
 254   0.0000       0.638356        17.3705 
 255   0.0000       0.645754        17.5719 
 256   0.0000       0.655624        17.8404 
 257   0.0000       0.657918        17.9028 
 258   0.0000       0.659593        17.9484 
 259   0.0000       0.665363        18.1055 
 260   0.0000       0.666543        18.1375 
 261   0.0000       0.676007        18.3951 
 262   0.0000       0.678087        18.4517 
 263   0.0000       0.685044        18.6410 
 264   0.0000       0.688106        18.7243 
 265   0.0000       0.690451        18.7881 
 266   0.0000       0.694814        18.9069 
 267   0.0000       0.697392        18.9770 
 268   0.0000       0.701885        19.0993 
 269   0.0000       0.705703        19.2032 
 270   0.0000       0.707807        19.2604 
 271   0.0000       0.714759        19.4496 
 272   0.0000       0.716659        19.5013 
 273   0.0000       0.724132        19.7046 
 274   0.0000       0.729497        19.8506 
 275   0.0000       0.736478        20.0406 
 276   0.0000       0.739756        20.1298 
 277   0.0000       0.740563        20.1517 
 278   0.0000       0.745938        20.2980 
 279   0.0000       0.753408        20.5013 
 280   0.0000       0.760887        20.7048 
 281   0.0000       0.771157        20.9842 
 282   0.0000       0.773809        21.0564 
 283   0.0000       0.774954        21.0876 
 284   0.0000       0.780847        21.2479 
[...]
  | Av. % of trace(Dpq) retained        ...  99.522908186704
  | sigma^2 in % of trace(Dij) retained ...   8.79e+00
  | sigma^2 in % of trace(Dip) retained ...   1.96e+01
  | sigma^2 in % of trace(Dpq) retained ...   1.29e-01
  | Av. % of trace(Di) retained         ...  99.998480094642
  | Av. % of trace(Dp) retained         ...  99.999998553724
  | sigma^2 in % of trace(Di) retained  ...   7.94e-07
  | sigma^2 in % of trace(Dp) retained  ...   3.80e-12
 Distributions of % trace(Dij) recovered:
  |       >= 99.9  ...   105 ( 20.7 % of all IJ-pairs)
  |   [80.0, 90.0) ...    34 (  6.7 % of all IJ-pairs)
  |   [90.0, 99.0) ...   273 ( 53.8 % of all IJ-pairs)
  |   [99.0, 99.9) ...    95 ( 18.7 % of all IJ-pairs)
 Distributions of % trace(Dip) recovered:
  |   [70.0, 80.0) ...     1 (  0.8 % of all IP-pairs)
  |   [80.0, 90.0) ...    12 ( 10.0 % of all IP-pairs)
  |   [90.0, 99.0) ...    65 ( 54.2 % of all IP-pairs)
  |   [99.0, 99.9) ...    42 ( 35.0 % of all IP-pairs)
 Distributions of % trace(Dpq) recovered:
  |       >= 99.9  ...     5 ( 33.3 % of all PQ-pairs)
  |   [99.0, 99.9) ...    10 ( 66.7 % of all PQ-pairs)
 Distributions of % trace(Di) recovered :
  |       >= 99.9  ...    43 (100.0 % of all I-pairs )
 Distributions of % trace(Dp) recovered :
  |       >= 99.9  ...     5 (100.0 % of all P-pairs )

                       ===========================
                       1116 OF 1696 PAIRS ARE KEPT
                       ===========================

 Initial PAO correlation energy (all pairs)    ...  -2.6936470497 Eh
 Energy constituents in PAO basis (Eh):
  | Vijab(+0) ...  -2.2633920641
  | Viab (-1) ...  -0.1756841226
  | Vab  (-2) ...  -0.0573655075
  | Va   (-1) ...  -0.0000419076
  | Vija (+1) ...  -0.0732353512
  | Vij  (+2) ...  -0.0155101982
  | Via  (+0) ...  -0.1082578608
  | Vi   (+1) ...  -0.0001600376
 Initial PNO correlation energy                ...  -2.6594722807 Eh
 Energy constituents in PNO basis (Eh):
  | Vijab(+0) ...  -2.2449738857 (err=  0.0184181785)
  | Viab (-1) ...  -0.1615849500 (err=  0.0140991726)
  | Vab  (-2) ...  -0.0569064725 (err=  0.0004590350)
  | Va   (-1) ...  -0.0000239034 (err=  0.0000180042)
  | Vija (+1) ...  -0.0722100802 (err=  0.0010252711)
  | Vij  (+2) ...  -0.0154577853 (err=  0.0000524129)
  | Via  (+0) ...  -0.1081554786 (err=  0.0001023822)
  | Vi   (+1) ...  -0.0001597251 (err=  0.0000003125)
 Sum of total truncation errors ...   0.0341747689 Eh
  | Pair screening ...   0.0111269306 Eh
  | PNO truncation ...   0.0230478383 Eh

 UMP2 correlation energy (PAO) ...  -2.6887556186
  | alpha-alpha ...  -0.3869835576 (NP_aa=  916)
  | alpha-beta  ...  -1.9942616027 (NP_ab= 1671)
  | beta -beta  ...  -0.3075104583 (NP_bb=  722)
 UMP2 correlation energy (PNO) ...  -2.6542135366
  | alpha-alpha ...  -0.3750734739 (err=  0.0119100837, NP_aa=  594)
  | alpha-beta  ...  -1.9756349962 (err=  0.0186266065, NP_ab= 1091)
  | beta -beta  ...  -0.3035050665 (err=  0.0040053918, NP_bb=  464)
 Sum of total UMP2 truncation errors ...   0.0345420820 Eh
  | Pair screening ...   0.0111433258 Eh
  | PNO truncation ...   0.0233987563 Eh
 Timing for NEV-PNO construction (sec.)
  | Intermediate construction  ..           49.219
  | Amplitude construction     ..           84.602
  | Total time                 ..          133.821
 Making pair pair interaction lists ...      ok
 Total size for 2-ext PNO integrals ...     11.1 MB
Checking the number of SOMO/SOMO doubles PNOs ... 
 #Truncate: (72, 72)[168] -> [86] .. 
 #Truncate: (73, 73)[169] -> [86] .. 
 #Truncate: (74, 74)[168] -> [86] .. 
 #Truncate: (75, 75)[167] -> [86] .. 
 #Truncate: (76, 76)[170] -> [86] .. 

--------------------------------
LOCAL RI TRANSFORMATION (VABPAO)
--------------------------------

Number of PAOs:    1030
Basis functions:   1025 (343 shells)
Aux. functions:    2424 (644 shells)

Processing maps (0.0 sec)
Average map sizes:
   Aux shells -> PAOs           1030.0
   PAOs       -> AO shells       343.0

Calculating integrals (362.5 sec, 37370.165 MB)
Finished
-----------------------------
LOCAL RI TRANSFORMATION (IJV)
-----------------------------

Orbital window:      29 to 76
Basis functions:   1025 (343 shells)
Aux. functions:    2424 (644 shells)

Processing maps (0.0 sec)
Average map sizes:
   Aux shells -> MOs(i)           46.3
   Aux shells -> MOs(j)           48.0
   MOs        -> AO shells       339.7

Calculating integrals (23.8 sec, 41.233 MB)
Sorting integrals (0.3 sec, 41.206 MB)
Total time for the integral transformation: 24.2 sec


-------------------------------------
Pair Pair Term precalculation with     
RI-(ij|mn) and (im|jn) transformation  
ON THE FLY                             
-------------------------------------

   IBatch   1 (of   2)              ... done ( 1756.366 sec)
   IBatch   2 (of   2)              ... done ( 1449.912 sec)
Total EXT                           ...        3206.279 sec

---------------------
RI-PNO TRANSFORMATION
---------------------

Total Number of PNOs                   ... 35046
Total Number of IJ-PNOs                ... 30831
Total Number of IP-PNOs                ...  3257
Total Number of PQ-PNOs                ...   958
Total Number of IJ-pairs               ...   971
Total Number of PI-pairs               ...   120
Total Number of PQ-pairs               ...    25
Average number of PNOs per pair        ...    31
Maximal number of PNOs per pair        ...    86
>> Statistics for ij-pairs..
   #pairs with  1 -  5 PNOs   :    0
   #pairs with  6 - 10 PNOs   :    0
   #pairs with 11 - 15 PNOs   :   48
   #pairs with 16 - 20 PNOs   :  228
   #pairs with 21 - 25 PNOs   :  170
   #pairs with 26 - 30 PNOs   :  160
   #pairs with 31 - 35 PNOs   :   70
   #pairs with 36 - 40 PNOs   :   54
   #pairs with 41 - 45 PNOs   :   54
   #pairs with 46 - 50 PNOs   :   17
   #pairs with 51 - 55 PNOs   :   40
   #pairs with 56 - 60 PNOs   :   45
   #pairs with 61 - 65 PNOs   :   74
   #pairs with 66 - 70 PNOs   :    9
   #pairs with 71 - 75 PNOs   :    2
>> Statistics for ip-pairs..
   #pairs with  1 -  5 PNOs   :    0
   #pairs with  6 - 10 PNOs   :    3
   #pairs with 11 - 15 PNOs   :   16
   #pairs with 16 - 20 PNOs   :    3
   #pairs with 21 - 25 PNOs   :   27
   #pairs with 26 - 30 PNOs   :   15
   #pairs with 31 - 35 PNOs   :   45
   #pairs with 36 - 40 PNOs   :   11
   #pairs with 41 - 45 PNOs   :    0
   #pairs with 46 - 50 PNOs   :    0
>> Statistics for pq-pairs..
   #pairs with  1 -  5 PNOs   :    0
   #pairs with  6 - 10 PNOs   :    0
   #pairs with 11 - 15 PNOs   :    0
   #pairs with 16 - 20 PNOs   :    0
   #pairs with 21 - 25 PNOs   :    8
   #pairs with 26 - 30 PNOs   :   12
   #pairs with 31 - 35 PNOs   :    0
   #pairs with 36 - 40 PNOs   :    0
   #pairs with 41 - 45 PNOs   :    0
   #pairs with 46 - 50 PNOs   :    0
   #pairs with 86 - 90 PNOs   :    5

Generation of (ij|ab)[P] integrals            ... on
Generation of (ia|bc)[P],(ja|bc)[P] integrals ... on
Storage of 3 and 4 external integrals         ... on
Generation of ALL (ka|bc)[P] integrals        ... on
Keep RI integrals in memory                   ... off

Ibatch:  1 (of  1)
Starting 2-4 index PNO integral generation ... done

Timings:
Total PNO integral transformation time     ...       2195.099 sec
Size of the 3-external file                ...       290 MB
Size of the 4-external file                ...      1965 MB
Size of the IKJL file                      ...        19 MB
Size of the all 3-external file            ...      6970 MB
Size of the 1-external file                ...        22 MB

Size of the PAO/PNO coefficient matrices   ...     228.3 MB

Making pair/pair overlap matrices          ... done (  412.347 sec)
Size of the pair overlap file              ...    2501.0 MB
Total # unrestricted pairs ...       2149
  # of alpha-alpha pairs   ...        594
  # of alpha-beta pairs    ...       1091
  # of beta-beta pairs     ...        464
Constructing the guess amplitudes          ... done (    0.738 sec)

-------------------------
FINAL STARTUP INFORMATION
-------------------------

E(0)                                       ...  -3028.424864673
E(SL-UMP2 in NEV-PNO space)                ...     -2.689689026
Initial E(tot)                             ...  -3031.114553699
<T|T>                                      ...      0.532461573
Number of unrestricted pairs included      ... 2149
Total number of pairs                      ... 4095
----------------------------------------------------------
                     OPEN-SHELL COUPLED CLUSTER ITERATIONS
----------------------------------------------------------

Number of PNO amplitudes to be optimized        ...          2153336
Number of canonical amplitudes for strong pairs ...       1940983039
Untruncated number of canonical amplitudes      ...       3698645738

Iter       E(tot)           E(Corr)          Delta-E          Residual     Time
  0  -3031.121735473     -2.661395310      0.028293716      0.022292369 2120.30
                           *** Turning on DIIS ***
  1  -3031.235497093     -2.775156930     -0.113761620      0.008844104 2117.97
  2  -3031.299343576     -2.839003413     -0.063846483      0.009519664 2125.13
  3  -3031.320172154     -2.859831991     -0.020828578      0.003485032 2112.45
  4  -3031.327225543     -2.866885380     -0.007053389      0.002906651 2187.87
  5  -3031.330854410     -2.870514247     -0.003628867      0.002146863 2178.22
  6  -3031.332197954     -2.871857791     -0.001343544      0.001066349 2173.15
  7  -3031.332990844     -2.872650681     -0.000792890      0.000531226 2193.72
  8  -3031.333142173     -2.872802010     -0.000151329      0.000179878 2202.65
  9  -3031.333186215     -2.872846052     -0.000044042      0.000101745 2198.52
 10  -3031.333184465     -2.872844302      0.000001750      0.000060494 2133.82
 11  -3031.333193291     -2.872853128     -0.000008826      0.000034058 2104.19
 12  -3031.333198382     -2.872858219     -0.000005091      0.000015051 2102.99
 13  -3031.333200359     -2.872860196     -0.000001977      0.000009512 2087.64
               --- The CCSD iterations have converged ---

E(0)                                       ...  -3028.424864673
E(CORR)(strong-pairs)                      ...     -2.872860196
E(CORR)(weak-pairs)                        ...     -0.035475490
E(CORR)(corrected)                         ...     -2.908335686
E(TOT)                                     ...  -3031.333200359
Singles norm <S|S>**1/2                    ...      0.192216446 ( 0.066584933, 0.125631513)  
T1 diagnostic                              ...      0.020149759                              
<S**2>(linearized)                         ...      8.7507260 (ideal value:      8.7500000)

----------------------
LARGEST PNO AMPLITUDES
----------------------
  51b-> 73b  -1b-> -1b       0.057258
  44b-> 73b  -1b-> -1b       0.049281
  49b-> 72b  -1b-> -1b       0.046738
  49b-> 74b  -1b-> -1b       0.045654
  45a-> 78a  45b-> 78b       0.045013
  52b-> 73b  -1b-> -1b       0.044756
  63a-> 77a  63b-> 77b       0.044452
  45a-> 77a  45b-> 77b       0.044188
  67a-> 77a  67b-> 77b       0.044001
  59a-> 77a  59b-> 77b       0.043348
  69a-> 77a  69b-> 77b       0.043251
  71a-> 77a  71b-> 77b       0.042876
  62a-> 77a  62b-> 77b       0.042606
  54a-> 77a  54b-> 77b       0.041962
  45a-> 77a  -1a-> -1a       0.041781
  61a-> 77a  61b-> 77b       0.041777

Total # unrestricted pairs ...       1156
  # of alpha-alpha pairs   ...        321
  # of alpha-beta pairs    ...        578
  # of beta-beta pairs     ...        257

-------------------------------------------
DLPNO BASED TRIPLES CORRECTION
-------------------------------------------

Singles multiplier          ...  1.000000
Fragment selection                          .... not used
TCutTNO                     ... 1.000e-09
TCutMP2Pairs                ... 1.000e-05
TCutDOStrong                ... 2.000e-02
TCutMKNStrong               ... 1.000e-02
TCutDOWeak                  ... 4.000e-02
TCutMKNWeak                 ... 1.000e-01
NTCutTNO                    ... 1

Number of Triples that are to be computed         ...     34492

 . . . . . . . . .
10% done  
20% done  
30% done  
40% done  
50% done  
60% done  
70% done  
80% done  
90% done  
          Batch   1   done (  17459.950 sec)

Triples-Correction TCutTNO=   1.000e-09 (NWeakPairs = 0  1  2  3)  -0.116697557816   -0.001787863091    0.000000000000    0.000000000000
Triples-Correction  -0.118485420907

Triples timings:
Total time                      ... 18152.725 sec

Triples List generation         ...     0.000 sec
TNO generation                  ...   692.221 sec
Pair density generation         ...     0.094 sec
Look up tables                  ...     0.119 sec
Generating 3-index integrals    ... 11395.737 sec
Make 4-ind.int. from 3-ind.int  ...     3.827 sec
Projecting amplitudes (D + S)   ...  5784.556 sec
Sorting integrals for spin cases...    56.544 sec
Calculate W0/W1                 ...   177.209 sec
Energy contr. (sum over a,b,c)  ...    42.084 sec

Everything after 3-index        ...  6204.499 sec

Energy contribution AAA         ...    27.186 sec
Energy contribution AAB         ...   122.088 sec
Energy contribution ABB         ...   111.490 sec
Energy contribution BBB         ...    15.112 sec
prep                ...     3.349 sec
makeTTNO            ...  5725.528 sec
copyij              ...     0.137 sec
copyil              ...     4.345 sec
transposeij         ...     0.082 sec
newMatInDoubleProj  ...    56.021 sec
BlasInDoubleProj    ...  3121.553 sec
ProjSingles         ...    48.476 sec
ProjDoubles         ...  5736.079 sec
overall Doubles for projection      ... 3121224
used Doubles for projection         ... 3121224


Number of Triples   (0, 1, 2, 3 weak pairs; overall):  17071   11509       0       0  ( 28580)
Number of Atoms     (0, 1, 2, 3 weak pairs; overall):   19.9    15.0     0.0     0.0  (    29)
Number of PAOs      (0, 1, 2, 3 weak pairs; overall):  771.6   601.7     0.0     0.0  (  1025)
Number of AuxFcns   (0, 1, 2, 3 weak pairs; overall):  948.9   578.3     0.0     0.0  (  2424)
Number of TNOs (0, 1, 2, 3 weak pairs         ):   79.7    57.0     0.0     0.0
Aver. Number of NTNO, Atoms, PAOs, AuxFcns / Triples:  28580    70.6    17.9   703.2   799.7

Triples Correction (T)                     ...     -0.118485421
    alpha-alpha-alpha ... -0.003931487 (  3.3%)
    alpha-alpha-beta  ... -0.055612434 ( 46.9%)
    alpha-beta -beta  ... -0.054811478 ( 46.3%)
    beta -beta -beta  ... -0.004130022 (  3.5%)
Final correlation energy                   ...     -3.026821107
E(CCSD)                                    ...  -3031.333200359
E(CCSD(T))                                 ...  -3031.451685779

----------------------------
STATISTICS FOR PAIR-ENERGIES
----------------------------
Minimum, maximum and average ratios of UMP and CCSD pair-energies ... 0.53, 1.42, 1.02


------------------------------------------------------------------------------- 
                                     TIMINGS                                   
------------------------------------------------------------------------------- 


Total execution time                   ...    58901.494 sec

Localization of occupied MO's          ...       10.384 sec (  0.0%)
Fock Matrix Formation                  ...     1374.759 sec (  2.3%)
Differential overlap integrals         ...        1.481 sec (  0.0%)
Organizing maps                        ...        1.704 sec (  0.0%)
RI 3-index integral generations        ...      450.515 sec (  0.8%)
RI-PNO integral transformation         ...     6070.470 sec ( 10.3%)
Initial Guess                          ...     2239.900 sec (  3.8%)
DIIS Solver                            ...       18.846 sec (  0.0%)
State Vector Update                    ...        0.689 sec (  0.0%)
Sigma-vector construction              ...    30038.618 sec ( 51.0%)
  <0|H|D>                              ...        0.028 sec (  0.0% of sigma)
  <D|H|D>(0-ext)                       ...     5514.616 sec ( 18.4% of sigma)
  <D|H|D>(2-ext Fock)                  ...        1.768 sec (  0.0% of sigma)
  <D|H|D>(2-ext)                       ...     4578.261 sec ( 15.2% of sigma)
  <D|H|D>(4-ext)                       ...      147.934 sec (  0.5% of sigma)
  <D|H|D>(4-ext-corr)                  ...      942.193 sec (  3.1% of sigma)
  CCSD doubles correction              ...      541.875 sec (  1.8% of sigma)
  <S|H|S>                              ...      687.309 sec (  2.3% of sigma)
  <S|H|D>(1-ext)                       ...      254.716 sec (  0.8% of sigma)
  <D|H|S>(1-ext)                       ...        0.766 sec (  0.0% of sigma)
  <S|H|D>(3-ext)                       ...       20.740 sec (  0.1% of sigma)
  CCSD singles correction              ...        0.004 sec (  0.0% of sigma)
  Fock-dressing                        ...     8710.891 sec ( 29.0% of sigma)
  Singles amplitudes                   ...      115.126 sec (  0.4% of sigma)
  (ik|jl)-dressing                     ...     6576.574 sec ( 21.9% of sigma)
  (ij|ab),(ia|jb)-dressing             ...     1665.447 sec (  5.5% of sigma)
  Pair energies                        ...        0.138 sec (  0.0% of sigma)
Total Time for computing (T)           ...    19103.343 sec ( 32.4% of ALL)


-------------------------   --------------------
FINAL SINGLE POINT ENERGY     -3031.451685779474
-------------------------   --------------------


                            ***************************************
                            *     ORCA property calculations      *
                            ***************************************

                                    ---------------------
                                    Active property flags
                                    ---------------------
   (+) Dipole Moment


------------------------------------------------------------------------------
                       ORCA ELECTRIC PROPERTIES CALCULATION
------------------------------------------------------------------------------

Dipole Moment Calculation                       ... on
Quadrupole Moment Calculation                   ... off
Polarizability Calculation                      ... off
GBWName                                         ... simple-grid-170-260-b3lyp_d3bj-631gd-gas-singlepoint-DLPNO_CCSD_T1-NormalPNO-augtz-gas.gbw
Electron density file                           ... simple-grid-170-260-b3lyp_d3bj-631gd-gas-singlepoint-DLPNO_CCSD_T1-NormalPNO-augtz-gas.scfp.tmp
The origin for moment calculation is the CENTER OF MASS  = ( 0.310273,  0.049733 -0.001849)

-------------
DIPOLE MOMENT
-------------
                                X             Y             Z
Electronic contribution:     40.59464       7.36386      -0.43550
Nuclear contribution   :    -46.23069      -7.41018       0.27549
                        -----------------------------------------
Total Dipole Moment    :     -5.63605      -0.04632      -0.16001
                        -----------------------------------------
Magnitude (a.u.)       :      5.63851
Magnitude (Debye)      :     14.33195



--------------------
Rotational spectrum 
--------------------
 
Rotational constants in cm-1:     0.019422     0.010987     0.010361 
Rotational constants in MHz :   582.246113   329.396924   310.604925 

 Dipole components along the rotational axes: 
x,y,z [a.u.] :    -5.633936     0.021771    -0.226002 
x,y,z [Debye]:   -14.320328     0.055336    -0.574452 

 

Timings for individual modules:

Sum of individual times         ...    75832.134 sec (=1263.869 min)
GTO integral calculation        ...       15.106 sec (=   0.252 min)   0.0 %
SCF iterations                  ...    16895.806 sec (= 281.597 min)  22.3 %
MDCI module                     ...    58921.222 sec (= 982.020 min)  77.7 %
                             ****ORCA TERMINATED NORMALLY****
TOTAL RUN TIME: 0 days 21 hours 3 minutes 55 seconds 823 msec
