
                                 *****************
                                 * O   R   C   A *
                                 *****************

           --- An Ab Initio, DFT and Semiempirical electronic structure package ---

                  #######################################################
                  #                        -***-                        #
                  #          Department of theory and spectroscopy      #
                  #               Directorship: Frank Neese             #
                  #        Max Planck Institute fuer Kohlenforschung    #
                  #                Kaiser Wilhelm Platz 1               #
                  #                 D-45470 Muelheim/Ruhr               #
                  #                      Germany                        #
                  #                                                     #
                  #                  All rights reserved                #
                  #                        -***-                        #
                  #######################################################


                         Program Version 4.1.2  - RELEASE  -


 With contributions from (in alphabetic order):
   Daniel Aravena         : Magnetic Properties
   Michael Atanasov       : Ab Initio Ligand Field Theory
   Alexander A. Auer      : GIAO ZORA
   Ute Becker             : Parallelization
   Giovanni Bistoni       : ED, Open-shell LED
   Martin Brehm           : Molecular dynamics
   Dmytro Bykov           : SCF Hessian
   Vijay G. Chilkuri      : MRCI spin determinant printing
   Dipayan Datta          : RHF DLPNO-CCSD density
   Achintya Kumar Dutta   : EOM-CC, STEOM-CC
   Dmitry Ganyushin       : Spin-Orbit,Spin-Spin,Magnetic field MRCI
   Miquel Garcia          : C-PCM Hessian
   Yang Guo               : DLPNO-NEVPT2, CIM, IAO-localization
   Andreas Hansen         : Spin unrestricted coupled pair/coupled cluster methods
   Benjamin Helmich-Paris : CASSCF linear response (MC-RPA)
   Lee Huntington         : MR-EOM, pCC
   Robert Izsak           : Overlap fitted RIJCOSX, COSX-SCS-MP3, EOM
   Christian Kollmar      : KDIIS, OOCD, Brueckner-CCSD(T), CCSD density
   Simone Kossmann        : Meta GGA functionals, TD-DFT gradient, OOMP2, MP2 Hessian
   Martin Krupicka        : AUTO-CI
   Lucas Lang             : DCDCAS
   Dagmar Lenk            : GEPOL surface, SMD
   Dimitrios Liakos       : Extrapolation schemes; parallel MDCI
   Dimitrios Manganas     : ROCIS; embedding schemes
   Dimitrios Pantazis     : SARC Basis sets
   Taras Petrenko         : DFT Hessian,TD-DFT gradient, ASA, ECA, R-Raman, ABS, FL, XAS/XES, NRVS
   Peter Pinski           : DLPNO-MP2, DLPNO-MP2 Gradient
   Christoph Reimann      : Effective Core Potentials
   Marius Retegan         : Local ZFS, SOC
   Christoph Riplinger    : Optimizer, TS searches, QM/MM, DLPNO-CCSD(T), (RO)-DLPNO pert. Triples
   Tobias Risthaus        : Range-separated hybrids, TD-DFT gradient, RPA, STAB
   Michael Roemelt        : Restricted open shell CIS
   Masaaki Saitow         : Open-shell DLPNO
   Barbara Sandhoefer     : DKH picture change effects
   Avijit Sen             : IP-ROCIS
   Kantharuban Sivalingam : CASSCF convergence, NEVPT2, FIC-MRCI
   Bernardo de Souza      : ESD, SOC TD-DFT
   Georgi Stoychev        : AutoAux, RI-MP2 NMR
   Willem Van den Heuvel  : Paramagnetic NMR
   Boris Wezisla          : Elementary symmetry handling
   Frank Wennmohs         : Technical directorship


 We gratefully acknowledge several colleagues who have allowed us to
 interface, adapt or use parts of their codes:
   Stefan Grimme, W. Hujo, H. Kruse,             : VdW corrections, initial TS optimization,
                  C. Bannwarth                     DFT functionals, gCP, sTDA/sTD-DF
   Ed Valeev                                     : LibInt (2-el integral package), F12 methods
   Garnet Chan, S. Sharma, J. Yang, R. Olivares  : DMRG
   Ulf Ekstrom                                   : XCFun DFT Library
   Mihaly Kallay                                 : mrcc  (arbitrary order and MRCC methods)
   Andreas Klamt, Michael Diedenhofen            : otool_cosmo (COSMO solvation model)
   Jiri Pittner, Ondrej Demel                    : Mk-CCSD
   Frank Weinhold                                : gennbo (NPA and NBO analysis)
   Christopher J. Cramer and Donald G. Truhlar   : smd solvation model
   Lars Goerigk                                  : TD-DFT with DH, B97 family of functionals
   V. Asgeirsson, H. Jonsson                     : NEB implementation
   FAccTs GmbH                                   : IRC, NEB, NEB-TS, Multilevel


 Your calculation uses the libint2 library for the computation of 2-el integrals
 For citations please refer to: http://libint.valeyev.net

 This ORCA versions uses:
   CBLAS   interface :  Fast vector & matrix operations
   LAPACKE interface :  Fast linear algebra routines
   SCALAPACK package :  Parallel linear algebra routines


----- Orbital basis set information -----
Your calculation utilizes the basis: aug-cc-pVTZ 
    H, B-Ne : Obtained from the ccRepo (grant-hill.group.shef.ac.uk/ccrepo) Feb. 2017
              R. A. Kendall, T. H. Dunning, Jr., R. J. Harrison, J. Chem. Phys. 96, 6796 (1992)
         He : Obtained from the ccRepo (grant-hill.group.shef.ac.uk/ccrepo) Feb. 2017
              D. E. Woon, T. H. Dunning, Jr., J. Chem. Phys. 100, 2975 (1994)
  Li-Be, Na : Obtained from the ccRepo (grant-hill.group.shef.ac.uk/ccrepo) Feb. 2017
              B. P. Prascher, D. E. Woon, K. A. Peterson, T. H. Dunning, Jr., A. K. Wilson, Theor. Chem. Acc. 128, 69 (2011)
         Mg : Obtained from the Peterson Research Group Website (tyr0.chem.wsu.edu/~kipeters) Feb. 2017
              B. P. Prascher, D. E. Woon, K. A. Peterson, T. H. Dunning, Jr., A. K. Wilson, Theor. Chem. Acc. 128, 69 (2011)
      Al-Ar : Obtained from the ccRepo (grant-hill.group.shef.ac.uk/ccrepo) Feb. 2017
              D. E. Woon, T. H. Dunning, Jr., J. Chem. Phys. 98, 1358 (1993)
      Sc-Zn : Obtained from the ccRepo (grant-hill.group.shef.ac.uk/ccrepo) Feb. 2017
              N. B. Balabanov, K. A. Peterson, J. Chem. Phys. 123, 064107 (2005)
              N. B. Balabanov, K. A. Peterson, J. Chem. Phys. 125, 074110 (2006)
      Ga-Kr : Obtained from the ccRepo (grant-hill.group.shef.ac.uk/ccrepo) Feb. 2017
              A. K. Wilson, D. E. Woon, K. A. Peterson, T. H. Dunning, Jr., J. Chem. Phys. 110, 7667 (1999)
     Ag, Au : Obtained from the Peterson Research Group Website (tyr0.chem.wsu.edu/~kipeters) Feb. 2017
              K. A. Peterson, C. Puzzarini, Theor. Chem. Acc. 114, 283 (2005)

----- AuxJ basis set information -----
Your calculation utilizes the AutoAux generation procedure.
  G. L. Stoychev, A. A. Auer, F. Neese, J. Chem. Theory Comput. 13, 554 (2017)

----- AuxC basis set information -----
Your calculation utilizes the auxiliary basis: aug-cc-pVTZ/C 
  H-He, B-F, Al-Ar, Ga-Kr : Obtained from the EMSL Basis Set Exchange (bse.pnl.gov) Feb. 2017
                            F. Weigend, A. Kohn, C. Hattig, J. Chem. Phys. 116, 3175 (2002)
                   Be, Mg : Obtained from the TURBOMOLE 7.0 basis set library
                            C. Haettig, Phys. Chem. Chem. Phys. 7, 59 (2005)
                       Ne : Obtained from the EMSL Basis Set Exchange (bse.pnl.gov) Feb. 2017
                            C. Haettig, Phys. Chem. Chem. Phys. 7, 59 (2005)
                            F. Weigend, A. Kohn, C. Hattig, J. Chem. Phys. 116, 3175 (2002)
                    Sc-Zn : Obtained from the EMSL Basis Set Exchange (bse.pnl.gov) Feb. 2017
                            J. G. Hill, J. A. Platts, J. Chem. Phys. 128, 044104 (2008)

----- AuxJK basis set information -----
Your calculation utilizes the AutoAux generation procedure.
  G. L. Stoychev, A. A. Auer, F. Neese, J. Chem. Theory Comput. 13, 554 (2017)

================================================================================
                                        WARNINGS
                       Please study these warnings very carefully!
================================================================================


WARNING: your system is open-shell and RHF/RKS was chosen
  ===> : WILL SWITCH to UHF/UKS


WARNING: MDCI localization with Augmented Hessian Foster-Boys
  ===> : Switching off randomization!

WARNING: Post HF methods need fully converged wavefunctions
  ===> : Setting SCFConvForced true
         You can overwrite this default with %scf ConvForced false 


INFO   : the flag for use of LIBINT has been found!

================================================================================
                                       INPUT FILE
================================================================================
NAME = simple-grid-225-290-b3lyp_d3bj-631gd-gas-singlepoint-DLPNO_CCSD_T1-NormalPNO-augtz-gas.inp
|  1> ! aug-cc-pVTZ aug-cc-pVTZ/C DLPNO-CCSD(T1) TightSCF NormalPNO UNO MiniPrint AutoAux
|  2> %pal nproc 10 end
|  3> %maxcore 20000
|  4> %mdci
|  5>      density none
|  6> end
|  7> 
|  8> * xyz 0 6
|  9>  O     -0.29146700     -0.24467000     -0.57475000
| 10>  C     -1.10572700     -1.20156600     -0.35900300
| 11>  C     -2.75671300     -0.25252900      0.83936000
| 12>  C     -2.97392900      0.73773800     -0.07543900
| 13>  C     -3.96571300      0.58920100     -1.18868600
| 14> Fe      1.52438900      0.18354600     -0.07882300
| 15> Cl      1.86457500      2.10819300     -1.05348900
| 16>  C     -2.19262200      2.00947800     -0.05113300
| 17> Cl      2.62220900     -1.53356500     -0.88827200
| 18> Cl      1.66284800      0.29659500      2.11260500
| 19>  H     -3.40910500     -1.12307000      0.78462800
| 20>  H     -2.69842300      2.80983100     -0.59820100
| 21>  H     -1.96615700      2.35120600      0.96174700
| 22>  H     -1.22647300      1.82710300     -0.54960300
| 23>  H     -4.77204600      1.32096000     -1.04273000
| 24>  H     -3.51514000      0.82283600     -2.16193900
| 25>  H     -4.41548800     -0.40555600     -1.22805800
| 26>  C     -2.08554100      0.00402200      2.16992100
| 27>  H     -2.66749900      0.73404000      2.74606100
| 28>  H     -2.02723500     -0.90726100      2.76819200
| 29>  H     -1.07336700      0.40245400      2.06562900
| 30>  C     -0.75727500     -2.22355500      0.69678300
| 31>  H     -1.61140700     -2.83871100      0.98581200
| 32>  H     -0.00428300     -2.87406200      0.22908600
| 33>  H     -0.29417500     -1.77004100      1.57200800
| 34>  C     -1.85454500     -1.72267000     -1.56070900
| 35>  H     -1.16928900     -2.41937900     -2.06259000
| 36>  H     -2.75770100     -2.27289100     -1.28985500
| 37>  H     -2.08594300     -0.92378800     -2.26372500
| 38> *
| 39> 
| 40> 
| 41>                          ****END OF INPUT****
================================================================================

                       ****************************
                       * Single Point Calculation *
                       ****************************

---------------------------------
CARTESIAN COORDINATES (ANGSTROEM)
---------------------------------
  O     -0.291467   -0.244670   -0.574750
  C     -1.105727   -1.201566   -0.359003
  C     -2.756713   -0.252529    0.839360
  C     -2.973929    0.737738   -0.075439
  C     -3.965713    0.589201   -1.188686
  Fe     1.524389    0.183546   -0.078823
  Cl     1.864575    2.108193   -1.053489
  C     -2.192622    2.009478   -0.051133
  Cl     2.622209   -1.533565   -0.888272
  Cl     1.662848    0.296595    2.112605
  H     -3.409105   -1.123070    0.784628
  H     -2.698423    2.809831   -0.598201
  H     -1.966157    2.351206    0.961747
  H     -1.226473    1.827103   -0.549603
  H     -4.772046    1.320960   -1.042730
  H     -3.515140    0.822836   -2.161939
  H     -4.415488   -0.405556   -1.228058
  C     -2.085541    0.004022    2.169921
  H     -2.667499    0.734040    2.746061
  H     -2.027235   -0.907261    2.768192
  H     -1.073367    0.402454    2.065629
  C     -0.757275   -2.223555    0.696783
  H     -1.611407   -2.838711    0.985812
  H     -0.004283   -2.874062    0.229086
  H     -0.294175   -1.770041    1.572008
  C     -1.854545   -1.722670   -1.560709
  H     -1.169289   -2.419379   -2.062590
  H     -2.757701   -2.272891   -1.289855
  H     -2.085943   -0.923788   -2.263725

----------------------------
CARTESIAN COORDINATES (A.U.)
----------------------------
  NO LB      ZA    FRAG     MASS         X           Y           Z
   0 O     8.0000    0    15.999   -0.550793   -0.462359   -1.086120
   1 C     6.0000    0    12.011   -2.089521   -2.270631   -0.678417
   2 C     6.0000    0    12.011   -5.209433   -0.477211    1.586161
   3 C     6.0000    0    12.011   -5.619911    1.394123   -0.142559
   4 C     6.0000    0    12.011   -7.494111    1.113429   -2.246291
   5 Fe   26.0000    0    55.850    2.880678    0.346852   -0.148954
   6 Cl   17.0000    0    35.453    3.523536    3.983907   -1.990806
   7 C     6.0000    0    12.011   -4.143455    3.797363   -0.096627
   8 Cl   17.0000    0    35.453    4.955257   -2.898018   -1.678591
   9 Cl   17.0000    0    35.453    3.142327    0.560483    3.992245
  10 H     1.0000    0     1.008   -6.442275   -2.122295    1.482732
  11 H     1.0000    0     1.008   -5.099280    5.309811   -1.130436
  12 H     1.0000    0     1.008   -3.715498    4.443135    1.817438
  13 H     1.0000    0     1.008   -2.317698    3.452724   -1.038599
  14 H     1.0000    0     1.008   -9.017860    2.496253   -1.970474
  15 H     1.0000    0     1.008   -6.642652    1.554935   -4.085473
  16 H     1.0000    0     1.008   -8.344063   -0.766390   -2.320693
  17 C     6.0000    0    12.011   -3.941101    0.007600    4.100556
  18 H     1.0000    0     1.008   -5.040843    1.387135    5.189303
  19 H     1.0000    0     1.008   -3.830919   -1.714475    5.231125
  20 H     1.0000    0     1.008   -2.028370    0.760528    3.903473
  21 C     6.0000    0    12.011   -1.431042   -4.201910    1.316729
  22 H     1.0000    0     1.008   -3.045118   -5.364386    1.862915
  23 H     1.0000    0     1.008   -0.008094   -5.431190    0.432910
  24 H     1.0000    0     1.008   -0.555910   -3.344893    2.970665
  25 C     6.0000    0    12.011   -3.504582   -3.255375   -2.949313
  26 H     1.0000    0     1.008   -2.209636   -4.571964   -3.897730
  27 H     1.0000    0     1.008   -5.211300   -4.295142   -2.437473
  28 H     1.0000    0     1.008   -3.941861   -1.745706   -4.277820



           ************************************************************
           *        Program running with 10 parallel MPI-processes    *
           *              working on a common directory               *
           ************************************************************


           ************************************************************
           *        Program running with 10 parallel MPI-processes    *
           *              working on a common directory               *
           ************************************************************

Diagonalization of the overlap matrix:
Smallest eigenvalue                        ... 7.917e-07
Time for diagonalization                   ...    0.351 sec
Threshold for overlap eigenvalues          ... 1.000e-08
Number of eigenvalues below threshold      ... 0
Time for construction of square roots      ...    0.286 sec
Total time needed                          ...    0.642 sec

-------------------
DFT GRID GENERATION
-------------------

General Integration Accuracy     IntAcc      ...  4.340
Radial Grid Type                 RadialGrid  ... Gauss-Chebyshev
Angular Grid (max. acc.)         AngularGrid ... Lebedev-110
Angular grid pruning method      GridPruning ... 3 (G Style)
Weight generation scheme         WeightScheme... Becke
Basis function cutoff            BFCut       ...    1.0000e-11
Integration weight cutoff        WCut        ...    1.0000e-14
Grids for H and He will be reduced by one unit

# of grid points (after initial pruning)     ...  36112 (   0.0 sec)
# of grid points (after weights+screening)   ...  32380 (   0.1 sec)
nearest neighbour list constructed           ...    0.0 sec
Grid point re-assignment to atoms done       ...    0.0 sec
Grid point division into batches done        ...    0.0 sec
Reduced shell lists constructed in    0.3 sec

Total number of grid points                  ...    32380
Total number of batches                      ...      523
Average number of points per batch           ...       61
Average number of grid points per atom       ...     1117
Average number of shells per batch           ...   290.07 (84.57%)
Average number of basis functions per batch  ...   860.70 (83.97%)
Average number of large shells per batch     ...   236.22 (81.44%)
Average number of large basis fcns per batch ...   701.07 (81.45%)
Maximum spatial batch extension              ...   3.52,  3.82,  5.56 au
Average spatial batch extension              ...   0.18,  0.18,  0.18 au

Time for grid setup =    0.422 sec

Loading Hartree-Fock densities                     ... done
Calculating cut-offs                               ... done
Setting up the integral package                    ... done
Initializing the effective Hamiltonian             ... done
Starting the Coulomb interaction                   ... done (   1.1 sec)
Reading the grid                                   ... done
Mapping shells                                     ... done
Starting the XC term evaluation                    ... done (   0.9 sec)
Transforming the Hamiltonian                       ... done (   0.2 sec)
Diagonalizing the Hamiltonian                      ... done (   0.4 sec)
Back transforming the eigenvectors                 ... done (   0.1 sec)
Now organizing SCF variables                       ... done
--------------
SCF ITERATIONS
--------------
ITER       Energy         Delta-E        Max-DP      RMS-DP      [F,P]     Damp
               ***  Starting incremental Fock matrix formation  ***
  0  -3027.5795140868   0.000000000000 0.27293416  0.00103062  0.2567003 0.7000
  1  -3027.8300486478  -0.250534560979 0.21077120  0.00080982  0.1557521 0.7000
                               ***Turning on DIIS***
  2  -3027.9982712494  -0.168222601613 0.15024728  0.00059627  0.1094905 0.7000
  3  -3029.5937301777  -1.595458928306 0.33670228  0.00148663  0.0819117 0.0000
  4  -3028.2985392309   1.295190946865 0.04643616  0.00021387  0.0211085 0.0000
  5  -3028.4138625347  -0.115323303857 0.03915402  0.00017021  0.0120532 0.0000
  6  -3028.4624023052  -0.048539770486 0.02068428  0.00007183  0.0055528 0.0000
  7  -3028.4769704269  -0.014568121728 0.00828624  0.00003286  0.0036078 0.0000
  8  -3028.4641687909   0.012801636078 0.00598642  0.00001899  0.0015928 0.0000
  9  -3028.4609716308   0.003197160062 0.00313078  0.00001138  0.0007645 0.0000
 10  -3028.4488699515   0.012101679287 0.00088606  0.00000314  0.0003662 0.0000
 11  -3028.4537786134  -0.004908661915 0.00045237  0.00000169  0.0000799 0.0000
 12  -3028.4518424678   0.001936145591 0.00041180  0.00000134  0.0000237 0.0000
 13  -3028.4519192150  -0.000076747207 0.00036936  0.00000168  0.0000086 0.0000
 14  -3028.4519436409  -0.000024425875 0.00084647  0.00000219  0.0000046 0.0000
 15  -3028.4518819962   0.000061644714 0.00033288  0.00000184  0.0000027 0.0000
 16  -3028.4519008034  -0.000018807231 0.00078619  0.00000195  0.0000020 0.0000
 17  -3028.4519143376  -0.000013534125 0.00055888  0.00000195  0.0000012 0.0000
                            ***DIIS convergence achieved***

               *****************************************************
               *                     SUCCESS                       *
               *           SCF CONVERGED AFTER  18 CYCLES          *
               *****************************************************

Total Energy       :        -3028.45190049 Eh          -82408.36577 eV
  Last Energy change         ...    1.3844e-05  Tolerance :   1.0000e-08
  Last MAX-Density change    ...    1.3092e-03  Tolerance :   1.0000e-07
             **** THE GBW FILE WAS UPDATED (simple-grid-225-290-b3lyp_d3bj-631gd-gas-singlepoint-DLPNO_CCSD_T1-NormalPNO-augtz-gas.gbw) ****
             **** DENSITY FILE WAS UPDATED (simple-grid-225-290-b3lyp_d3bj-631gd-gas-singlepoint-DLPNO_CCSD_T1-NormalPNO-augtz-gas.scfp.tmp) ****
             **** ENERGY FILE WAS UPDATED (simple-grid-225-290-b3lyp_d3bj-631gd-gas-singlepoint-DLPNO_CCSD_T1-NormalPNO-augtz-gas.en.tmp) ****
----------------------
UHF SPIN CONTAMINATION
----------------------

Expectation value of <S**2>     :     8.765048
Ideal value S*(S+1) for S=2.5   :     8.750000
Deviation                       :     0.015048

----------------
ORBITAL ENERGIES
----------------
                 SPIN UP ORBITALS
  NO   OCC          E(Eh)            E(eV) 
   0   1.0000    -261.565467     -7117.5582 
   1   1.0000    -104.786025     -2851.3727 
   2   1.0000    -104.783257     -2851.2974 
   3   1.0000    -104.781545     -2851.2508 
   4   1.0000     -32.233256      -877.1115 
   5   1.0000     -27.709605      -754.0167 
   6   1.0000     -27.708675      -753.9914 
   7   1.0000     -27.708513      -753.9870 
   8   1.0000     -20.597141      -560.4767 
   9   1.0000     -11.412979      -310.5630 
  10   1.0000     -11.302003      -307.5431 
  11   1.0000     -11.270330      -306.6813 
  12   1.0000     -11.266147      -306.5674 
  13   1.0000     -11.262992      -306.4816 
  14   1.0000     -11.259215      -306.3788 
  15   1.0000     -11.244553      -305.9798 
  16   1.0000     -11.241026      -305.8839 
  17   1.0000     -10.512688      -286.0648 
  18   1.0000     -10.509906      -285.9891 
  19   1.0000     -10.508155      -285.9414 
  20   1.0000      -7.979528      -217.1340 
  21   1.0000      -7.978739      -217.1125 
  22   1.0000      -7.978733      -217.1124 
  23   1.0000      -7.976774      -217.0591 
  24   1.0000      -7.976007      -217.0382 
  25   1.0000      -7.975931      -217.0361 
  26   1.0000      -7.974966      -217.0099 
  27   1.0000      -7.974288      -216.9914 
  28   1.0000      -7.974206      -216.9892 
  29   1.0000      -4.588378      -124.8561 
  30   1.0000      -3.201488       -87.1169 
  31   1.0000      -3.199918       -87.0742 
  32   1.0000      -3.199713       -87.0686 
  33   1.0000      -1.440627       -39.2015 
  34   1.0000      -1.149242       -31.2725 
  35   1.0000      -1.091786       -29.7090 
  36   1.0000      -1.058313       -28.7982 
  37   1.0000      -1.052886       -28.6505 
  38   1.0000      -1.050058       -28.5735 
  39   1.0000      -1.031113       -28.0580 
  40   1.0000      -1.000415       -27.2227 
  41   1.0000      -0.977904       -26.6101 
  42   1.0000      -0.934506       -25.4292 
  43   1.0000      -0.917531       -24.9673 
  44   1.0000      -0.917495       -24.9663 
  45   1.0000      -0.908959       -24.7340 
  46   1.0000      -0.906986       -24.6804 
  47   1.0000      -0.906704       -24.6727 
  48   1.0000      -0.803491       -21.8641 
  49   1.0000      -0.747987       -20.3538 
  50   1.0000      -0.698460       -19.0061 
  51   1.0000      -0.688566       -18.7368 
  52   1.0000      -0.683204       -18.5909 
  53   1.0000      -0.670154       -18.2358 
  54   1.0000      -0.637583       -17.3495 
  55   1.0000      -0.622806       -16.9474 
  56   1.0000      -0.604864       -16.4592 
  57   1.0000      -0.596520       -16.2321 
  58   1.0000      -0.583047       -15.8655 
  59   1.0000      -0.573953       -15.6180 
  60   1.0000      -0.571452       -15.5500 
  61   1.0000      -0.560862       -15.2618 
  62   1.0000      -0.555125       -15.1057 
  63   1.0000      -0.541757       -14.7420 
  64   1.0000      -0.536432       -14.5970 
  65   1.0000      -0.525781       -14.3072 
  66   1.0000      -0.511337       -13.9142 
  67   1.0000      -0.492074       -13.3900 
  68   1.0000      -0.471167       -12.8211 
  69   1.0000      -0.465861       -12.6767 
  70   1.0000      -0.439067       -11.9476 
  71   1.0000      -0.433844       -11.8055 
  72   1.0000      -0.431423       -11.7396 
  73   1.0000      -0.423214       -11.5162 
  74   1.0000      -0.421801       -11.4778 
  75   1.0000      -0.420686       -11.4474 
  76   1.0000      -0.371483       -10.1086 
  77   0.0000       0.011016         0.2998 
  78   0.0000       0.021627         0.5885 
  79   0.0000       0.022779         0.6199 
  80   0.0000       0.029032         0.7900 
  81   0.0000       0.037844         1.0298 
  82   0.0000       0.039960         1.0874 
  83   0.0000       0.041388         1.1262 
  84   0.0000       0.043851         1.1932 
  85   0.0000       0.044710         1.2166 
  86   0.0000       0.050569         1.3760 
  87   0.0000       0.057310         1.5595 
  88   0.0000       0.058758         1.5989 
  89   0.0000       0.061238         1.6664 
  90   0.0000       0.063406         1.7254 
  91   0.0000       0.065047         1.7700 
  92   0.0000       0.071995         1.9591 
  93   0.0000       0.076343         2.0774 
  94   0.0000       0.084083         2.2880 
  95   0.0000       0.088632         2.4118 
  96   0.0000       0.091326         2.4851 
  97   0.0000       0.092195         2.5087 
  98   0.0000       0.098677         2.6851 
  99   0.0000       0.101122         2.7517 
 100   0.0000       0.105461         2.8697 
 101   0.0000       0.106163         2.8888 
 102   0.0000       0.116983         3.1833 
 103   0.0000       0.118581         3.2268 
 104   0.0000       0.122399         3.3306 
 105   0.0000       0.123010         3.3473 
 106   0.0000       0.123721         3.3666 
 107   0.0000       0.130569         3.5530 
 108   0.0000       0.130906         3.5621 
 109   0.0000       0.132884         3.6160 
 110   0.0000       0.137922         3.7531 
 111   0.0000       0.139276         3.7899 
 112   0.0000       0.145063         3.9474 
 113   0.0000       0.148900         4.0518 
 114   0.0000       0.151961         4.1351 
 115   0.0000       0.155072         4.2197 
 116   0.0000       0.156858         4.2683 
 117   0.0000       0.158887         4.3235 
 118   0.0000       0.161588         4.3970 
 119   0.0000       0.164160         4.4670 
 120   0.0000       0.167021         4.5449 
 121   0.0000       0.169645         4.6163 
 122   0.0000       0.172342         4.6897 
 123   0.0000       0.177079         4.8186 
 124   0.0000       0.179673         4.8891 
 125   0.0000       0.182255         4.9594 
 126   0.0000       0.184456         5.0193 
 127   0.0000       0.186919         5.0863 
 128   0.0000       0.189078         5.1451 
 129   0.0000       0.198728         5.4077 
 130   0.0000       0.201184         5.4745 
 131   0.0000       0.203251         5.5307 
 132   0.0000       0.204786         5.5725 
 133   0.0000       0.207095         5.6353 
 134   0.0000       0.214348         5.8327 
 135   0.0000       0.216454         5.8900 
 136   0.0000       0.217610         5.9215 
 137   0.0000       0.220086         5.9888 
 138   0.0000       0.224900         6.1199 
 139   0.0000       0.228873         6.2280 
 140   0.0000       0.230543         6.2734 
 141   0.0000       0.234446         6.3796 
 142   0.0000       0.237897         6.4735 
 143   0.0000       0.241564         6.5733 
 144   0.0000       0.244480         6.6526 
 145   0.0000       0.249639         6.7930 
 146   0.0000       0.253272         6.8919 
 147   0.0000       0.256296         6.9742 
 148   0.0000       0.259582         7.0636 
 149   0.0000       0.261870         7.1258 
 150   0.0000       0.271201         7.3798 
 151   0.0000       0.272994         7.4285 
 152   0.0000       0.277799         7.5593 
 153   0.0000       0.281931         7.6717 
 154   0.0000       0.282953         7.6995 
 155   0.0000       0.289510         7.8780 
 156   0.0000       0.293942         7.9986 
 157   0.0000       0.295199         8.0328 
 158   0.0000       0.298159         8.1133 
 159   0.0000       0.300436         8.1753 
 160   0.0000       0.305126         8.3029 
 161   0.0000       0.312179         8.4948 
 162   0.0000       0.315589         8.5876 
 163   0.0000       0.320664         8.7257 
 164   0.0000       0.325578         8.8594 
 165   0.0000       0.329945         8.9783 
 166   0.0000       0.330375         8.9900 
 167   0.0000       0.332926         9.0594 
 168   0.0000       0.337172         9.1749 
 169   0.0000       0.341984         9.3059 
 170   0.0000       0.343377         9.3438 
 171   0.0000       0.349754         9.5173 
 172   0.0000       0.353593         9.6218 
 173   0.0000       0.356745         9.7075 
 174   0.0000       0.359183         9.7739 
 175   0.0000       0.362554         9.8656 
 176   0.0000       0.364127         9.9084 
 177   0.0000       0.368218        10.0197 
 178   0.0000       0.373564        10.1652 
 179   0.0000       0.375428        10.2159 
 180   0.0000       0.378687        10.3046 
 181   0.0000       0.380845        10.3633 
 182   0.0000       0.383991        10.4489 
 183   0.0000       0.386719        10.5231 
 184   0.0000       0.389548        10.6001 
 185   0.0000       0.391313        10.6482 
 186   0.0000       0.396570        10.7912 
 187   0.0000       0.398257        10.8371 
 188   0.0000       0.402770        10.9599 
 189   0.0000       0.408928        11.1275 
 190   0.0000       0.412732        11.2310 
 191   0.0000       0.414033        11.2664 
 192   0.0000       0.416060        11.3216 
 193   0.0000       0.421961        11.4821 
 194   0.0000       0.425858        11.5882 
 195   0.0000       0.430013        11.7013 
 196   0.0000       0.435153        11.8411 
 197   0.0000       0.436265        11.8714 
 198   0.0000       0.441998        12.0274 
 199   0.0000       0.446112        12.1393 
 200   0.0000       0.448229        12.1969 
 201   0.0000       0.451736        12.2924 
 202   0.0000       0.457848        12.4587 
 203   0.0000       0.460617        12.5340 
 204   0.0000       0.464296        12.6341 
 205   0.0000       0.465751        12.6737 
 206   0.0000       0.468036        12.7359 
 207   0.0000       0.471885        12.8406 
 208   0.0000       0.474365        12.9081 
 209   0.0000       0.478516        13.0211 
 210   0.0000       0.480546        13.0763 
 211   0.0000       0.486153        13.2289 
 212   0.0000       0.488827        13.3017 
 213   0.0000       0.493655        13.4330 
 214   0.0000       0.495674        13.4880 
 215   0.0000       0.498558        13.5664 
 216   0.0000       0.503371        13.6974 
 217   0.0000       0.507268        13.8035 
 218   0.0000       0.508369        13.8334 
 219   0.0000       0.510656        13.8957 
 220   0.0000       0.515787        14.0353 
 221   0.0000       0.517780        14.0895 
 222   0.0000       0.520316        14.1585 
 223   0.0000       0.523358        14.2413 
 224   0.0000       0.526673        14.3315 
 225   0.0000       0.528775        14.3887 
 226   0.0000       0.529981        14.4215 
 227   0.0000       0.536601        14.6017 
 228   0.0000       0.539334        14.6760 
 229   0.0000       0.543035        14.7767 
 230   0.0000       0.548471        14.9247 
 231   0.0000       0.549452        14.9513 
 232   0.0000       0.551439        15.0054 
 233   0.0000       0.557548        15.1717 
 234   0.0000       0.561151        15.2697 
 235   0.0000       0.564644        15.3647 
 236   0.0000       0.566040        15.4027 
 237   0.0000       0.573937        15.6176 
 238   0.0000       0.576606        15.6903 
 239   0.0000       0.578941        15.7538 
 240   0.0000       0.580112        15.7856 
 241   0.0000       0.584951        15.9173 
 242   0.0000       0.588586        16.0162 
 243   0.0000       0.594705        16.1827 
 244   0.0000       0.597864        16.2687 
 245   0.0000       0.600442        16.3389 
 246   0.0000       0.601441        16.3660 
 247   0.0000       0.604719        16.4552 
 248   0.0000       0.612890        16.6776 
 249   0.0000       0.615417        16.7463 
 250   0.0000       0.618590        16.8327 
 251   0.0000       0.623084        16.9550 
 252   0.0000       0.624840        17.0028 
 253   0.0000       0.629029        17.1168 
 254   0.0000       0.634519        17.2661 
 255   0.0000       0.641664        17.4606 
 256   0.0000       0.644393        17.5348 
 257   0.0000       0.648616        17.6497 
 258   0.0000       0.656319        17.8593 
 259   0.0000       0.659598        17.9486 
 260   0.0000       0.661070        17.9886 
 261   0.0000       0.661983        18.0135 
 262   0.0000       0.665119        18.0988 
 263   0.0000       0.670030        18.2325 
 264   0.0000       0.675821        18.3900 
 265   0.0000       0.678128        18.4528 
 266   0.0000       0.683217        18.5913 
 267   0.0000       0.689015        18.7490 
 268   0.0000       0.692694        18.8492 
 269   0.0000       0.694242        18.8913 
 270   0.0000       0.706737        19.2313 
 271   0.0000       0.709231        19.2992 
 272   0.0000       0.712304        19.3828 
 273   0.0000       0.720918        19.6172 
 274   0.0000       0.723600        19.6902 
 275   0.0000       0.725267        19.7355 
 276   0.0000       0.732484        19.9319 
 277   0.0000       0.734979        19.9998 
 278   0.0000       0.737098        20.0574 
 279   0.0000       0.739709        20.1285 
 280   0.0000       0.740670        20.1547 
 281   0.0000       0.746878        20.3236 
 282   0.0000       0.758471        20.6390 
 283   0.0000       0.761621        20.7248 
 284   0.0000       0.769524        20.9398 
 285   0.0000       0.777040        21.1443 
 286   0.0000       0.781999        21.2793 
 287   0.0000       0.784356        21.3434 
 288   0.0000       0.795176        21.6378 
 289   0.0000       0.797585        21.7034 
 290   0.0000       0.807442        21.9716 
 291   0.0000       0.809739        22.0341 
 292   0.0000       0.820987        22.3402 
 293   0.0000       0.824037        22.4232 
 294   0.0000       0.833498        22.6806 
 295   0.0000       0.836843        22.7717 
 296   0.0000       0.844265        22.9736 
 297   0.0000       0.846051        23.0222 
 298   0.0000       0.847899        23.0725 
 299   0.0000       0.850843        23.1526 
 300   0.0000       0.859899        23.3990 
 301   0.0000       0.863397        23.4942 
 302   0.0000       0.870069        23.6758 
 303   0.0000       0.875177        23.8148 
 304   0.0000       0.880533        23.9605 
 305   0.0000       0.887764        24.1573 
 306   0.0000       0.892173        24.2773 
 307   0.0000       0.894588        24.3430 
 308   0.0000       0.899779        24.4842 
 309   0.0000       0.901753        24.5379 
 310   0.0000       0.905060        24.6279 
 311   0.0000       0.911044        24.7908 
 312   0.0000       0.913525        24.8583 
 313   0.0000       0.916004        24.9257 
 314   0.0000       0.919257        25.0143 
 315   0.0000       0.923806        25.1380 
 316   0.0000       0.930360        25.3164 
 317   0.0000       0.933164        25.3927 
 318   0.0000       0.938842        25.5472 
 319   0.0000       0.940899        25.6032 
 320   0.0000       0.942625        25.6501 
 321   0.0000       0.951209        25.8837 
 322   0.0000       0.952503        25.9189 
 323   0.0000       0.957552        26.0563 
 324   0.0000       0.962976        26.2039 
 325   0.0000       0.963976        26.2311 
 326   0.0000       0.966175        26.2909 
 327   0.0000       0.969912        26.3926 
 328   0.0000       0.972406        26.4605 
 329   0.0000       0.976205        26.5639 
 330   0.0000       0.981783        26.7157 
 331   0.0000       0.986199        26.8358 
 332   0.0000       0.987278        26.8652 
 333   0.0000       0.990530        26.9537 
 334   0.0000       0.994574        27.0637 
 335   0.0000       1.001328        27.2475 
 336   0.0000       1.002322        27.2746 
 337   0.0000       1.004462        27.3328 
 338   0.0000       1.006159        27.3790 
 339   0.0000       1.014691        27.6111 
 340   0.0000       1.016101        27.6495 
 341   0.0000       1.019207        27.7340 
 342   0.0000       1.023992        27.8642 
 343   0.0000       1.032504        28.0959 
 344   0.0000       1.035506        28.1776 
 345   0.0000       1.038092        28.2479 
 346   0.0000       1.038999        28.2726 
 347   0.0000       1.042028        28.3550 
 348   0.0000       1.047769        28.5112 
 349   0.0000       1.048940        28.5431 
 350   0.0000       1.052002        28.6264 
 351   0.0000       1.054251        28.6876 
 352   0.0000       1.058201        28.7951 
 353   0.0000       1.063835        28.9484 
 354   0.0000       1.065700        28.9992 
 355   0.0000       1.077798        29.3284 
 356   0.0000       1.078466        29.3465 
 357   0.0000       1.081910        29.4403 
 358   0.0000       1.086335        29.5607 
 359   0.0000       1.088796        29.6276 
 360   0.0000       1.091687        29.7063 
 361   0.0000       1.097174        29.8556 
 362   0.0000       1.099577        29.9210 
 363   0.0000       1.106466        30.1085 
 364   0.0000       1.111014        30.2322 
 365   0.0000       1.112840        30.2819 
 366   0.0000       1.118588        30.4383 
 367   0.0000       1.121058        30.5055 
 368   0.0000       1.126305        30.6483 
 369   0.0000       1.131751        30.7965 
 370   0.0000       1.135205        30.8905 
 371   0.0000       1.136427        30.9237 
 372   0.0000       1.142059        31.0770 
 373   0.0000       1.144400        31.1407 
 374   0.0000       1.150166        31.2976 
 375   0.0000       1.155720        31.4487 
 376   0.0000       1.161681        31.6109 
 377   0.0000       1.164667        31.6922 
 378   0.0000       1.170652        31.8550 
 379   0.0000       1.179281        32.0899 
 380   0.0000       1.184687        32.2370 
 381   0.0000       1.187632        32.3171 
 382   0.0000       1.188951        32.3530 
 383   0.0000       1.193816        32.4854 
 384   0.0000       1.194833        32.5131 
 385   0.0000       1.202652        32.7258 
 386   0.0000       1.205139        32.7935 
 387   0.0000       1.209212        32.9043 
 388   0.0000       1.211829        32.9755 
 389   0.0000       1.217633        33.1335 
 390   0.0000       1.221169        33.2297 
 391   0.0000       1.229377        33.4531 
 392   0.0000       1.235092        33.6086 
 393   0.0000       1.236863        33.6568 
 394   0.0000       1.245569        33.8936 
 395   0.0000       1.249659        34.0050 
 396   0.0000       1.256748        34.1979 
 397   0.0000       1.260346        34.2957 
 398   0.0000       1.266120        34.4529 
 399   0.0000       1.270443        34.5705 
 400   0.0000       1.275191        34.6997 
 401   0.0000       1.277765        34.7697 
 402   0.0000       1.283090        34.9147 
 403   0.0000       1.287767        35.0419 
 404   0.0000       1.288757        35.0689 
 405   0.0000       1.291734        35.1499 
 406   0.0000       1.294582        35.2274 
 407   0.0000       1.301680        35.4205 
 408   0.0000       1.303771        35.4774 
 409   0.0000       1.310175        35.6517 
 410   0.0000       1.315988        35.8099 
 411   0.0000       1.323398        36.0115 
 412   0.0000       1.327850        36.1326 
 413   0.0000       1.336018        36.3549 
 414   0.0000       1.340769        36.4842 
 415   0.0000       1.347675        36.6721 
 416   0.0000       1.349308        36.7165 
 417   0.0000       1.351713        36.7820 
 418   0.0000       1.362010        37.0622 
 419   0.0000       1.366110        37.1738 
 420   0.0000       1.367492        37.2113 
 421   0.0000       1.379628        37.5416 
 422   0.0000       1.385161        37.6922 
 423   0.0000       1.391897        37.8754 
 424   0.0000       1.397709        38.0336 
 425   0.0000       1.399008        38.0689 
 426   0.0000       1.402771        38.1713 
 427   0.0000       1.416736        38.5513 
 428   0.0000       1.417404        38.5695 
 429   0.0000       1.427640        38.8481 
 430   0.0000       1.430531        38.9267 
 431   0.0000       1.436231        39.0818 
 432   0.0000       1.440437        39.1963 
 433   0.0000       1.443258        39.2731 
 434   0.0000       1.445736        39.3405 
 435   0.0000       1.448600        39.4184 
 436   0.0000       1.455195        39.5979 
 437   0.0000       1.455348        39.6020 
 438   0.0000       1.463233        39.8166 
 439   0.0000       1.469833        39.9962 
 440   0.0000       1.480931        40.2982 
 441   0.0000       1.481359        40.3098 
 442   0.0000       1.488411        40.5017 
 443   0.0000       1.492558        40.6146 
 444   0.0000       1.494780        40.6750 
 445   0.0000       1.501284        40.8520 
 446   0.0000       1.511848        41.1395 
 447   0.0000       1.514289        41.2059 
 448   0.0000       1.522400        41.4266 
 449   0.0000       1.526591        41.5406 
 450   0.0000       1.531800        41.6824 
 451   0.0000       1.537302        41.8321 
 452   0.0000       1.539529        41.8927 
 453   0.0000       1.542008        41.9602 
 454   0.0000       1.552460        42.2446 
 455   0.0000       1.555809        42.3357 
 456   0.0000       1.563326        42.5403 
 457   0.0000       1.567704        42.6594 
 458   0.0000       1.572373        42.7864 
 459   0.0000       1.579413        42.9780 
 460   0.0000       1.581517        43.0353 
 461   0.0000       1.584294        43.1108 
 462   0.0000       1.591066        43.2951 
 463   0.0000       1.594544        43.3898 
 464   0.0000       1.603576        43.6355 
 465   0.0000       1.603865        43.6434 
 466   0.0000       1.613331        43.9010 
 467   0.0000       1.620826        44.1049 
 468   0.0000       1.626959        44.2718 
 469   0.0000       1.630824        44.3770 
 470   0.0000       1.635239        44.4971 
 471   0.0000       1.642823        44.7035 
 472   0.0000       1.643389        44.7189 
 473   0.0000       1.651306        44.9343 
 474   0.0000       1.654305        45.0159 
 475   0.0000       1.667049        45.3627 
 476   0.0000       1.667363        45.3713 
 477   0.0000       1.670017        45.4435 
 478   0.0000       1.677209        45.6392 
 479   0.0000       1.680334        45.7242 
 480   0.0000       1.684997        45.8511 
 481   0.0000       1.692121        46.0449 
 482   0.0000       1.692678        46.0601 
 483   0.0000       1.697227        46.1839 
 484   0.0000       1.705825        46.4179 
 485   0.0000       1.707156        46.4541 
 486   0.0000       1.720545        46.8184 
 487   0.0000       1.721667        46.8489 
 488   0.0000       1.725947        46.9654 
 489   0.0000       1.733566        47.1727 
 490   0.0000       1.736528        47.2533 
 491   0.0000       1.745809        47.5059 
 492   0.0000       1.748977        47.5921 
 493   0.0000       1.758790        47.8591 
 494   0.0000       1.768016        48.1102 
 495   0.0000       1.772457        48.2310 
 496   0.0000       1.779253        48.4159 
 497   0.0000       1.786271        48.6069 
 498   0.0000       1.788148        48.6580 
 499   0.0000       1.793625        48.8070 
 500   0.0000       1.799309        48.9617 
 501   0.0000       1.804657        49.1072 
 502   0.0000       1.807986        49.1978 
 503   0.0000       1.810405        49.2636 
 504   0.0000       1.813174        49.3390 
 505   0.0000       1.822148        49.5832 
 506   0.0000       1.827549        49.7301 
 507   0.0000       1.834263        49.9128 
 508   0.0000       1.840431        50.0807 
 509   0.0000       1.843004        50.1507 
 510   0.0000       1.851064        50.3700 
 511   0.0000       1.854216        50.4558 
 512   0.0000       1.856910        50.5291 
 513   0.0000       1.861847        50.6634 
 514   0.0000       1.867175        50.8084 
 515   0.0000       1.872557        50.9549 
 516   0.0000       1.879089        51.1326 
 517   0.0000       1.882385        51.2223 
 518   0.0000       1.888653        51.3929 
 519   0.0000       1.893631        51.5283 
 520   0.0000       1.896083        51.5950 
 521   0.0000       1.900290        51.7095 
 522   0.0000       1.903200        51.7887 
 523   0.0000       1.911727        52.0207 
 524   0.0000       1.913229        52.0616 
 525   0.0000       1.917554        52.1793 
 526   0.0000       1.922509        52.3141 
 527   0.0000       1.927970        52.4627 
 528   0.0000       1.931648        52.5628 
 529   0.0000       1.940440        52.8021 
 530   0.0000       1.942195        52.8498 
 531   0.0000       1.946266        52.9606 
 532   0.0000       1.958218        53.2858 
 533   0.0000       1.967575        53.5404 
 534   0.0000       1.971165        53.6381 
 535   0.0000       1.975468        53.7552 
 536   0.0000       1.979755        53.8719 
 537   0.0000       1.989637        54.1408 
 538   0.0000       1.992712        54.2245 
 539   0.0000       2.011812        54.7442 
 540   0.0000       2.014083        54.8060 
 541   0.0000       2.018077        54.9147 
 542   0.0000       2.020055        54.9685 
 543   0.0000       2.025894        55.1274 
 544   0.0000       2.028511        55.1986 
 545   0.0000       2.050672        55.8016 
 546   0.0000       2.053861        55.8884 
 547   0.0000       2.060214        56.0613 
 548   0.0000       2.065373        56.2017 
 549   0.0000       2.070578        56.3433 
 550   0.0000       2.075239        56.4701 
 551   0.0000       2.081290        56.6348 
 552   0.0000       2.082864        56.6776 
 553   0.0000       2.088333        56.8264 
 554   0.0000       2.097626        57.0793 
 555   0.0000       2.111758        57.4639 
 556   0.0000       2.122238        57.7490 
 557   0.0000       2.123959        57.7959 
 558   0.0000       2.127299        57.8868 
 559   0.0000       2.134603        58.0855 
 560   0.0000       2.144884        58.3653 
 561   0.0000       2.146853        58.4188 
 562   0.0000       2.153410        58.5973 
 563   0.0000       2.157362        58.7048 
 564   0.0000       2.169049        59.0228 
 565   0.0000       2.178204        59.2719 
 566   0.0000       2.183043        59.4036 
 567   0.0000       2.199919        59.8628 
 568   0.0000       2.202795        59.9411 
 569   0.0000       2.204763        59.9946 
 570   0.0000       2.214808        60.2680 
 571   0.0000       2.216285        60.3082 
 572   0.0000       2.231596        60.7248 
 573   0.0000       2.233937        60.7885 
 574   0.0000       2.239319        60.9350 
 575   0.0000       2.251530        61.2672 
 576   0.0000       2.252075        61.2821 
 577   0.0000       2.259541        61.4852 
 578   0.0000       2.274723        61.8983 
 579   0.0000       2.278753        62.0080 
 580   0.0000       2.280518        62.0560 
 581   0.0000       2.291779        62.3625 
 582   0.0000       2.297161        62.5089 
 583   0.0000       2.300122        62.5895 
 584   0.0000       2.318300        63.0841 
 585   0.0000       2.322011        63.1851 
 586   0.0000       2.325842        63.2894 
 587   0.0000       2.335167        63.5431 
 588   0.0000       2.343214        63.7621 
 589   0.0000       2.345609        63.8273 
 590   0.0000       2.354566        64.0710 
 591   0.0000       2.364154        64.3319 
 592   0.0000       2.372976        64.5719 
 593   0.0000       2.383047        64.8460 
 594   0.0000       2.392252        65.0965 
 595   0.0000       2.397763        65.2464 
 596   0.0000       2.410368        65.5894 
 597   0.0000       2.418576        65.8128 
 598   0.0000       2.425567        66.0030 
 599   0.0000       2.429559        66.1117 
 600   0.0000       2.439250        66.3754 
 601   0.0000       2.447291        66.5942 
 602   0.0000       2.463404        67.0326 
 603   0.0000       2.467338        67.1397 
 604   0.0000       2.475866        67.3717 
 605   0.0000       2.482313        67.5472 
 606   0.0000       2.495955        67.9184 
 607   0.0000       2.503018        68.1106 
 608   0.0000       2.521958        68.6260 
 609   0.0000       2.530860        68.8682 
 610   0.0000       2.542964        69.1976 
 611   0.0000       2.543933        69.2239 
 612   0.0000       2.569922        69.9311 
 613   0.0000       2.590484        70.4906 
 614   0.0000       2.599431        70.7341 
 615   0.0000       2.611458        71.0614 
 616   0.0000       2.614668        71.1487 
 617   0.0000       2.628737        71.5316 
 618   0.0000       2.631294        71.6012 
 619   0.0000       2.640260        71.8451 
 620   0.0000       2.666112        72.5486 
 621   0.0000       2.667650        72.5904 
 622   0.0000       2.672186        72.7139 
 623   0.0000       2.675019        72.7910 
 624   0.0000       2.682018        72.9814 
 625   0.0000       2.703173        73.5571 
 626   0.0000       2.704400        73.5905 
 627   0.0000       2.709592        73.7317 
 628   0.0000       2.716813        73.9283 
 629   0.0000       2.725277        74.1585 
 630   0.0000       2.729566        74.2753 
 631   0.0000       2.738027        74.5055 
 632   0.0000       2.744493        74.6814 
 633   0.0000       2.751986        74.8853 
 634   0.0000       2.768842        75.3440 
 635   0.0000       2.780767        75.6685 
 636   0.0000       2.793168        76.0060 
 637   0.0000       2.805212        76.3337 
 638   0.0000       2.811353        76.5008 
 639   0.0000       2.822461        76.8031 
 640   0.0000       2.838868        77.2495 
 641   0.0000       2.848843        77.5210 
 642   0.0000       2.869617        78.0862 
 643   0.0000       2.871306        78.1322 
 644   0.0000       2.881421        78.4074 
 645   0.0000       2.896580        78.8200 
 646   0.0000       2.909664        79.1760 
 647   0.0000       2.914861        79.3174 
 648   0.0000       2.925120        79.5966 
 649   0.0000       2.947559        80.2072 
 650   0.0000       2.951895        80.3251 
 651   0.0000       2.964536        80.6691 
 652   0.0000       2.993233        81.4500 
 653   0.0000       3.010539        81.9209 
 654   0.0000       3.021115        82.2087 
 655   0.0000       3.038836        82.6909 
 656   0.0000       3.048046        82.9415 
 657   0.0000       3.060803        83.2887 
 658   0.0000       3.078035        83.7576 
 659   0.0000       3.090555        84.0983 
 660   0.0000       3.100504        84.3690 
 661   0.0000       3.124182        85.0133 
 662   0.0000       3.134664        85.2985 
 663   0.0000       3.155180        85.8568 
 664   0.0000       3.164635        86.1141 
 665   0.0000       3.172173        86.3192 
 666   0.0000       3.186344        86.7048 
 667   0.0000       3.201804        87.1255 
 668   0.0000       3.207183        87.2719 
 669   0.0000       3.224521        87.7437 
 670   0.0000       3.227941        87.8368 
 671   0.0000       3.236686        88.0747 
 672   0.0000       3.237072        88.0852 
 673   0.0000       3.249467        88.4225 
 674   0.0000       3.256146        88.6042 
 675   0.0000       3.266009        88.8726 
 676   0.0000       3.275819        89.1396 
 677   0.0000       3.284020        89.3627 
 678   0.0000       3.289687        89.5169 
 679   0.0000       3.302894        89.8763 
 680   0.0000       3.312253        90.1310 
 681   0.0000       3.326657        90.5229 
 682   0.0000       3.333673        90.7139 
 683   0.0000       3.337657        90.8223 
 684   0.0000       3.346036        91.0503 
 685   0.0000       3.355596        91.3104 
 686   0.0000       3.361759        91.4781 
 687   0.0000       3.376363        91.8755 
 688   0.0000       3.388089        92.1946 
 689   0.0000       3.396323        92.4186 
 690   0.0000       3.406096        92.6846 
 691   0.0000       3.419950        93.0616 
 692   0.0000       3.424696        93.1907 
 693   0.0000       3.427505        93.2671 
 694   0.0000       3.445275        93.7507 
 695   0.0000       3.455657        94.0332 
 696   0.0000       3.473935        94.5306 
 697   0.0000       3.477532        94.6285 
 698   0.0000       3.482893        94.7743 
 699   0.0000       3.495524        95.1180 
 700   0.0000       3.504849        95.3718 
 701   0.0000       3.509934        95.5101 
 702   0.0000       3.510692        95.5308 
 703   0.0000       3.521029        95.8121 
 704   0.0000       3.528320        96.0105 
 705   0.0000       3.540162        96.3327 
 706   0.0000       3.545367        96.4743 
 707   0.0000       3.553174        96.6868 
 708   0.0000       3.562647        96.9446 
 709   0.0000       3.569013        97.1178 
 710   0.0000       3.585107        97.5557 
 711   0.0000       3.589055        97.6632 
 712   0.0000       3.592566        97.7587 
 713   0.0000       3.609603        98.2223 
 714   0.0000       3.618022        98.4514 
 715   0.0000       3.620485        98.5184 
 716   0.0000       3.623550        98.6018 
 717   0.0000       3.634553        98.9012 
 718   0.0000       3.648410        99.2783 
 719   0.0000       3.652379        99.3863 
 720   0.0000       3.659232        99.5728 
 721   0.0000       3.684298       100.2548 
 722   0.0000       3.689509       100.3967 
 723   0.0000       3.693461       100.5042 
 724   0.0000       3.705073       100.8202 
 725   0.0000       3.706826       100.8679 
 726   0.0000       3.718179       101.1768 
 727   0.0000       3.720685       101.2450 
 728   0.0000       3.731796       101.5473 
 729   0.0000       3.735005       101.6347 
 730   0.0000       3.744094       101.8820 
 731   0.0000       3.745783       101.9279 
 732   0.0000       3.760589       102.3308 
 733   0.0000       3.768363       102.5424 
 734   0.0000       3.775692       102.7418 
 735   0.0000       3.783241       102.9472 
 736   0.0000       3.787155       103.0537 
 737   0.0000       3.799912       103.4009 
 738   0.0000       3.802692       103.4765 
 739   0.0000       3.806866       103.5901 
 740   0.0000       3.811199       103.7080 
 741   0.0000       3.823485       104.0423 
 742   0.0000       3.830461       104.2321 
 743   0.0000       3.837003       104.4102 
 744   0.0000       3.846791       104.6765 
 745   0.0000       3.856354       104.9367 
 746   0.0000       3.858024       104.9822 
 747   0.0000       3.863668       105.1358 
 748   0.0000       3.869595       105.2970 
 749   0.0000       3.878267       105.5330 
 750   0.0000       3.881355       105.6170 
 751   0.0000       3.887047       105.7719 
 752   0.0000       3.899899       106.1217 
 753   0.0000       3.906586       106.3036 
 754   0.0000       3.911463       106.4363 
 755   0.0000       3.922780       106.7443 
 756   0.0000       3.929442       106.9256 
 757   0.0000       3.941315       107.2486 
 758   0.0000       3.949774       107.4788 
 759   0.0000       3.958362       107.7125 
 760   0.0000       3.962189       107.8166 
 761   0.0000       3.970571       108.0447 
 762   0.0000       3.981264       108.3357 
 763   0.0000       3.986629       108.4817 
 764   0.0000       3.994256       108.6892 
 765   0.0000       4.000123       108.8489 
 766   0.0000       4.008002       109.0633 
 767   0.0000       4.009900       109.1149 
 768   0.0000       4.018556       109.3505 
 769   0.0000       4.025828       109.5484 
 770   0.0000       4.036340       109.8344 
 771   0.0000       4.041229       109.9674 
 772   0.0000       4.044614       110.0596 
 773   0.0000       4.049213       110.1847 
 774   0.0000       4.056984       110.3962 
 775   0.0000       4.060805       110.5001 
 776   0.0000       4.068957       110.7219 
 777   0.0000       4.080482       111.0356 
 778   0.0000       4.092052       111.3504 
 779   0.0000       4.101507       111.6077 
 780   0.0000       4.111944       111.8917 
 781   0.0000       4.118419       112.0679 
 782   0.0000       4.125192       112.2522 
 783   0.0000       4.127431       112.3131 
 784   0.0000       4.137588       112.5895 
 785   0.0000       4.144353       112.7736 
 786   0.0000       4.146303       112.8266 
 787   0.0000       4.167023       113.3904 
 788   0.0000       4.176820       113.6570 
 789   0.0000       4.183365       113.8351 
 790   0.0000       4.189589       114.0045 
 791   0.0000       4.198325       114.2422 
 792   0.0000       4.203746       114.3898 
 793   0.0000       4.216884       114.7472 
 794   0.0000       4.224369       114.9509 
 795   0.0000       4.225003       114.9682 
 796   0.0000       4.251731       115.6955 
 797   0.0000       4.259788       115.9147 
 798   0.0000       4.266997       116.1109 
 799   0.0000       4.270352       116.2022 
 800   0.0000       4.283101       116.5491 
 801   0.0000       4.298306       116.9629 
 802   0.0000       4.298875       116.9783 
 803   0.0000       4.310557       117.2962 
 804   0.0000       4.318902       117.5233 
 805   0.0000       4.326638       117.7338 
 806   0.0000       4.328947       117.7966 
 807   0.0000       4.338100       118.0457 
 808   0.0000       4.342476       118.1648 
 809   0.0000       4.346932       118.2860 
 810   0.0000       4.365146       118.7817 
 811   0.0000       4.369883       118.9106 
 812   0.0000       4.384444       119.3068 
 813   0.0000       4.388838       119.4264 
 814   0.0000       4.406723       119.9130 
 815   0.0000       4.415645       120.1558 
 816   0.0000       4.416858       120.1888 
 817   0.0000       4.426824       120.4600 
 818   0.0000       4.441020       120.8463 
 819   0.0000       4.450349       121.1002 
 820   0.0000       4.463146       121.4484 
 821   0.0000       4.481157       121.9385 
 822   0.0000       4.483044       121.9898 
 823   0.0000       4.488916       122.1496 
 824   0.0000       4.504194       122.5653 
 825   0.0000       4.509711       122.7155 
 826   0.0000       4.518828       122.9636 
 827   0.0000       4.527842       123.2088 
 828   0.0000       4.545634       123.6930 
 829   0.0000       4.549610       123.8012 
 830   0.0000       4.554518       123.9347 
 831   0.0000       4.559156       124.0609 
 832   0.0000       4.580045       124.6294 
 833   0.0000       4.583007       124.7100 
 834   0.0000       4.594892       125.0334 
 835   0.0000       4.606000       125.3356 
 836   0.0000       4.616597       125.6240 
 837   0.0000       4.619853       125.7126 
 838   0.0000       4.635711       126.1441 
 839   0.0000       4.642633       126.3325 
 840   0.0000       4.652794       126.6090 
 841   0.0000       4.671330       127.1133 
 842   0.0000       4.685865       127.5089 
 843   0.0000       4.703733       127.9951 
 844   0.0000       4.710284       128.1733 
 845   0.0000       4.722840       128.5150 
 846   0.0000       4.727217       128.6341 
 847   0.0000       4.740081       128.9842 
 848   0.0000       4.750505       129.2678 
 849   0.0000       4.759556       129.5141 
 850   0.0000       4.762637       129.5979 
 851   0.0000       4.773431       129.8916 
 852   0.0000       4.782798       130.1465 
 853   0.0000       4.787912       130.2857 
 854   0.0000       4.814319       131.0043 
 855   0.0000       4.820832       131.1815 
 856   0.0000       4.830858       131.4543 
 857   0.0000       4.834950       131.5657 
 858   0.0000       4.860646       132.2649 
 859   0.0000       4.875064       132.6572 
 860   0.0000       4.887132       132.9856 
 861   0.0000       4.898107       133.2843 
 862   0.0000       4.904594       133.4608 
 863   0.0000       4.916788       133.7926 
 864   0.0000       4.928676       134.1161 
 865   0.0000       4.942979       134.5053 
 866   0.0000       4.960054       134.9699 
 867   0.0000       4.979574       135.5011 
 868   0.0000       4.983987       135.6212 
 869   0.0000       4.984649       135.6392 
 870   0.0000       4.995386       135.9314 
 871   0.0000       4.999958       136.0558 
 872   0.0000       5.034596       136.9983 
 873   0.0000       5.044549       137.2692 
 874   0.0000       5.047438       137.3478 
 875   0.0000       5.055815       137.5757 
 876   0.0000       5.062052       137.7454 
 877   0.0000       5.071700       138.0080 
 878   0.0000       5.085049       138.3712 
 879   0.0000       5.100858       138.8014 
 880   0.0000       5.112062       139.1063 
 881   0.0000       5.116570       139.2289 
 882   0.0000       5.127082       139.5150 
 883   0.0000       5.153715       140.2397 
 884   0.0000       5.164376       140.5298 
 885   0.0000       5.168156       140.6327 
 886   0.0000       5.175734       140.8389 
 887   0.0000       5.184323       141.0726 
 888   0.0000       5.206277       141.6700 
 889   0.0000       5.214105       141.8830 
 890   0.0000       5.222645       142.1154 
 891   0.0000       5.234973       142.4509 
 892   0.0000       5.243302       142.6775 
 893   0.0000       5.251392       142.8977 
 894   0.0000       5.260232       143.1382 
 895   0.0000       5.285907       143.8369 
 896   0.0000       5.303496       144.3155 
 897   0.0000       5.319733       144.7573 
 898   0.0000       5.343776       145.4115 
 899   0.0000       5.350220       145.5869 
 900   0.0000       5.370298       146.1332 
 901   0.0000       5.374452       146.2463 
 902   0.0000       5.380214       146.4031 
 903   0.0000       5.391722       146.7162 
 904   0.0000       5.410177       147.2184 
 905   0.0000       5.412314       147.2765 
 906   0.0000       5.425450       147.6340 
 907   0.0000       5.427370       147.6863 
 908   0.0000       5.446488       148.2065 
 909   0.0000       5.455203       148.4436 
 910   0.0000       5.478367       149.0739 
 911   0.0000       5.487668       149.3270 
 912   0.0000       5.496144       149.5577 
 913   0.0000       5.508688       149.8990 
 914   0.0000       5.522686       150.2799 
 915   0.0000       5.540992       150.7781 
 916   0.0000       5.547622       150.9585 
 917   0.0000       5.565520       151.4455 
 918   0.0000       5.584586       151.9643 
 919   0.0000       5.593726       152.2130 
 920   0.0000       5.597942       152.3278 
 921   0.0000       5.599900       152.3810 
 922   0.0000       5.609585       152.6446 
 923   0.0000       5.636146       153.3673 
 924   0.0000       5.637727       153.4104 
 925   0.0000       5.646175       153.6402 
 926   0.0000       5.660082       154.0187 
 927   0.0000       5.673603       154.3866 
 928   0.0000       5.680882       154.5847 
 929   0.0000       5.693623       154.9314 
 930   0.0000       5.707332       155.3044 
 931   0.0000       5.709965       155.3761 
 932   0.0000       5.723715       155.7502 
 933   0.0000       5.740298       156.2015 
 934   0.0000       5.752952       156.5458 
 935   0.0000       5.760943       156.7632 
 936   0.0000       5.785503       157.4315 
 937   0.0000       5.794078       157.6649 
 938   0.0000       5.814677       158.2254 
 939   0.0000       5.830959       158.6685 
 940   0.0000       5.846654       159.0955 
 941   0.0000       5.861244       159.4926 
 942   0.0000       5.885117       160.1422 
 943   0.0000       5.923588       161.1890 
 944   0.0000       5.932580       161.4337 
 945   0.0000       5.977124       162.6458 
 946   0.0000       6.043909       164.4631 
 947   0.0000       6.053717       164.7300 
 948   0.0000       6.088328       165.6718 
 949   0.0000       6.125603       166.6861 
 950   0.0000       6.139566       167.0661 
 951   0.0000       6.150834       167.3727 
 952   0.0000       6.166870       167.8091 
 953   0.0000       6.199637       168.7007 
 954   0.0000       6.212222       169.0432 
 955   0.0000       6.224212       169.3694 
 956   0.0000       6.228453       169.4848 
 957   0.0000       6.264783       170.4734 
 958   0.0000       6.281550       170.9297 
 959   0.0000       6.290634       171.1768 
 960   0.0000       6.306133       171.5986 
 961   0.0000       6.311525       171.7453 
 962   0.0000       6.335793       172.4057 
 963   0.0000       6.344174       172.6338 
 964   0.0000       6.358187       173.0151 
 965   0.0000       6.366968       173.2540 
 966   0.0000       6.374932       173.4707 
 967   0.0000       6.388942       173.8519 
 968   0.0000       6.459241       175.7649 
 969   0.0000       6.522521       177.4868 
 970   0.0000       6.556215       178.4037 
 971   0.0000       6.635738       180.5676 
 972   0.0000       6.817989       185.5269 
 973   0.0000       6.840578       186.1416 
 974   0.0000       6.871213       186.9752 
 975   0.0000       6.905589       187.9106 
 976   0.0000       6.918118       188.2516 
 977   0.0000       6.934222       188.6898 
 978   0.0000       6.962759       189.4663 
 979   0.0000       6.987311       190.1344 
 980   0.0000       7.013689       190.8522 
 981   0.0000       7.025769       191.1809 
 982   0.0000       7.032643       191.3680 
 983   0.0000       7.055135       191.9800 
 984   0.0000       7.091923       192.9810 
 985   0.0000       7.140494       194.3027 
 986   0.0000       7.266401       197.7288 
 987   0.0000       7.326147       199.3546 
 988   0.0000       7.366030       200.4399 
 989   0.0000       7.433492       202.2756 
 990   0.0000       7.531973       204.9554 
 991   0.0000       7.578442       206.2199 
 992   0.0000       7.630550       207.6378 
 993   0.0000       7.681164       209.0151 
 994   0.0000       7.770084       211.4347 
 995   0.0000       7.897467       214.9010 
 996   0.0000       7.955094       216.4691 
 997   0.0000       8.068890       219.5657 
 998   0.0000       8.274250       225.1538 
 999   0.0000       9.418821       256.2992 
 1000   0.0000       9.432582       256.6736 
 1001   0.0000       9.437794       256.8154 
 1002   0.0000       9.450236       257.1540 
 1003   0.0000       9.462194       257.4794 
 1004   0.0000       9.486823       258.1496 
 1005   0.0000       9.686485       263.5826 
 1006   0.0000      10.091248       274.5968 
 1007   0.0000      10.097497       274.7669 
 1008   0.0000      10.121778       275.4276 
 1009   0.0000      10.207362       277.7564 
 1010   0.0000      10.215073       277.9663 
 1011   0.0000      10.248222       278.8683 
 1012   0.0000      10.362173       281.9691 
 1013   0.0000      10.394867       282.8587 
 1014   0.0000      10.499017       285.6928 
 1015   0.0000      14.215986       386.8366 
 1016   0.0000      17.142144       466.4615 
 1017   0.0000      17.860142       485.9992 
 1018   0.0000      18.347674       499.2656 
 1019   0.0000      18.629474       506.9338 
 1020   0.0000      18.659417       507.7486 
 1021   0.0000      18.928744       515.0773 
 1022   0.0000      20.128791       547.7322 
 1023   0.0000      20.866757       567.8133 
 1024   0.0000      21.701690       590.5330 

                 SPIN DOWN ORBITALS
  NO   OCC          E(Eh)            E(eV) 
   0   1.0000    -261.561898     -7117.4611 
   1   1.0000    -104.784550     -2851.3326 
   2   1.0000    -104.781749     -2851.2563 
   3   1.0000    -104.780035     -2851.2097 
   4   1.0000     -32.071222      -872.7023 
   5   1.0000     -27.549159      -749.6507 
   6   1.0000     -27.549094      -749.6490 
   7   1.0000     -27.548881      -749.6432 
   8   1.0000     -20.593277      -560.3715 
   9   1.0000     -11.412829      -310.5589 
  10   1.0000     -11.301585      -307.5318 
  11   1.0000     -11.270227      -306.6785 
  12   1.0000     -11.266145      -306.5674 
  13   1.0000     -11.263047      -306.4831 
  14   1.0000     -11.259461      -306.3855 
  15   1.0000     -11.244610      -305.9814 
  16   1.0000     -11.241007      -305.8834 
  17   1.0000     -10.511110      -286.0218 
  18   1.0000     -10.508293      -285.9452 
  19   1.0000     -10.506547      -285.8977 
  20   1.0000      -7.977011      -217.0655 
  21   1.0000      -7.976324      -217.0468 
  22   1.0000      -7.976268      -217.0453 
  23   1.0000      -7.974192      -216.9888 
  24   1.0000      -7.973521      -216.9705 
  25   1.0000      -7.973425      -216.9679 
  26   1.0000      -7.972520      -216.9433 
  27   1.0000      -7.971715      -216.9214 
  28   1.0000      -7.971620      -216.9188 
  29   1.0000      -4.146145      -112.8223 
  30   1.0000      -2.667764       -72.5935 
  31   1.0000      -2.667700       -72.5918 
  32   1.0000      -2.667237       -72.5792 
  33   1.0000      -1.430827       -38.9348 
  34   1.0000      -1.148441       -31.2507 
  35   1.0000      -1.089142       -29.6371 
  36   1.0000      -1.043108       -28.3844 
  37   1.0000      -1.032229       -28.0884 
  38   1.0000      -1.029582       -28.0164 
  39   1.0000      -1.028028       -27.9741 
  40   1.0000      -0.999808       -27.2062 
  41   1.0000      -0.977819       -26.6078 
  42   1.0000      -0.909143       -24.7391 
  43   1.0000      -0.818233       -22.2653 
  44   1.0000      -0.748026       -20.3548 
  45   1.0000      -0.701537       -19.0898 
  46   1.0000      -0.687202       -18.6997 
  47   1.0000      -0.682767       -18.5790 
  48   1.0000      -0.670017       -18.2321 
  49   1.0000      -0.637553       -17.3487 
  50   1.0000      -0.622108       -16.9284 
  51   1.0000      -0.604462       -16.4483 
  52   1.0000      -0.596304       -16.2262 
  53   1.0000      -0.582861       -15.8604 
  54   1.0000      -0.572788       -15.5863 
  55   1.0000      -0.571412       -15.5489 
  56   1.0000      -0.560866       -15.2619 
  57   1.0000      -0.555069       -15.1042 
  58   1.0000      -0.539479       -14.6800 
  59   1.0000      -0.536068       -14.5871 
  60   1.0000      -0.515136       -14.0176 
  61   1.0000      -0.511341       -13.9143 
  62   1.0000      -0.491801       -13.3826 
  63   1.0000      -0.476763       -12.9734 
  64   1.0000      -0.474823       -12.9206 
  65   1.0000      -0.447061       -12.1652 
  66   1.0000      -0.443331       -12.0636 
  67   1.0000      -0.441163       -12.0046 
  68   1.0000      -0.426179       -11.5969 
  69   1.0000      -0.421449       -11.4682 
  70   1.0000      -0.406356       -11.0575 
  71   1.0000      -0.370204       -10.0738 
  72   0.0000       0.011009         0.2996 
  73   0.0000       0.021613         0.5881 
  74   0.0000       0.022760         0.6193 
  75   0.0000       0.028860         0.7853 
  76   0.0000       0.037156         1.0111 
  77   0.0000       0.039710         1.0806 
  78   0.0000       0.041340         1.1249 
  79   0.0000       0.043715         1.1896 
  80   0.0000       0.044724         1.2170 
  81   0.0000       0.048150         1.3102 
  82   0.0000       0.057207         1.5567 
  83   0.0000       0.058547         1.5931 
  84   0.0000       0.061146         1.6639 
  85   0.0000       0.063096         1.7169 
  86   0.0000       0.065081         1.7709 
  87   0.0000       0.071558         1.9472 
  88   0.0000       0.076130         2.0716 
  89   0.0000       0.083955         2.2845 
  90   0.0000       0.088398         2.4054 
  91   0.0000       0.091194         2.4815 
  92   0.0000       0.091685         2.4949 
  93   0.0000       0.098653         2.6845 
  94   0.0000       0.100978         2.7477 
  95   0.0000       0.104698         2.8490 
  96   0.0000       0.105344         2.8666 
  97   0.0000       0.111636         3.0378 
  98   0.0000       0.112979         3.0743 
  99   0.0000       0.115275         3.1368 
 100   0.0000       0.116095         3.1591 
 101   0.0000       0.118036         3.2119 
 102   0.0000       0.119494         3.2516 
 103   0.0000       0.122997         3.3469 
 104   0.0000       0.124200         3.3796 
 105   0.0000       0.124846         3.3972 
 106   0.0000       0.126815         3.4508 
 107   0.0000       0.131913         3.5895 
 108   0.0000       0.133159         3.6234 
 109   0.0000       0.135984         3.7003 
 110   0.0000       0.138793         3.7768 
 111   0.0000       0.140758         3.8302 
 112   0.0000       0.145737         3.9657 
 113   0.0000       0.150417         4.0931 
 114   0.0000       0.152580         4.1519 
 115   0.0000       0.156984         4.2717 
 116   0.0000       0.158145         4.3033 
 117   0.0000       0.159676         4.3450 
 118   0.0000       0.162710         4.4276 
 119   0.0000       0.165978         4.5165 
 120   0.0000       0.168556         4.5866 
 121   0.0000       0.170205         4.6315 
 122   0.0000       0.173887         4.7317 
 123   0.0000       0.178370         4.8537 
 124   0.0000       0.181323         4.9341 
 125   0.0000       0.182978         4.9791 
 126   0.0000       0.186025         5.0620 
 127   0.0000       0.188150         5.1198 
 128   0.0000       0.190415         5.1815 
 129   0.0000       0.199877         5.4389 
 130   0.0000       0.203701         5.5430 
 131   0.0000       0.205166         5.5829 
 132   0.0000       0.209793         5.7088 
 133   0.0000       0.210694         5.7333 
 134   0.0000       0.215640         5.8679 
 135   0.0000       0.219959         5.9854 
 136   0.0000       0.224418         6.1067 
 137   0.0000       0.226821         6.1721 
 138   0.0000       0.230092         6.2611 
 139   0.0000       0.231768         6.3067 
 140   0.0000       0.234935         6.3929 
 141   0.0000       0.236563         6.4372 
 142   0.0000       0.241581         6.5738 
 143   0.0000       0.244040         6.6407 
 144   0.0000       0.249667         6.7938 
 145   0.0000       0.253788         6.9059 
 146   0.0000       0.257700         7.0124 
 147   0.0000       0.261558         7.1173 
 148   0.0000       0.265151         7.2151 
 149   0.0000       0.269021         7.3204 
 150   0.0000       0.272757         7.4221 
 151   0.0000       0.279324         7.6008 
 152   0.0000       0.280235         7.6256 
 153   0.0000       0.288838         7.8597 
 154   0.0000       0.290762         7.9120 
 155   0.0000       0.294346         8.0096 
 156   0.0000       0.295785         8.0487 
 157   0.0000       0.300141         8.1673 
 158   0.0000       0.303441         8.2571 
 159   0.0000       0.307269         8.3612 
 160   0.0000       0.307626         8.3709 
 161   0.0000       0.313636         8.5345 
 162   0.0000       0.319921         8.7055 
 163   0.0000       0.325798         8.8654 
 164   0.0000       0.328817         8.9476 
 165   0.0000       0.333571         9.0769 
 166   0.0000       0.334282         9.0963 
 167   0.0000       0.338417         9.2088 
 168   0.0000       0.341589         9.2951 
 169   0.0000       0.344100         9.3634 
 170   0.0000       0.346036         9.4161 
 171   0.0000       0.352635         9.5957 
 172   0.0000       0.354673         9.6511 
 173   0.0000       0.360618         9.8129 
 174   0.0000       0.362510         9.8644 
 175   0.0000       0.364919         9.9299 
 176   0.0000       0.368503        10.0275 
 177   0.0000       0.372129        10.1262 
 178   0.0000       0.374541        10.1918 
 179   0.0000       0.378145        10.2898 
 180   0.0000       0.380647        10.3579 
 181   0.0000       0.388127        10.5615 
 182   0.0000       0.390098        10.6151 
 183   0.0000       0.393484        10.7072 
 184   0.0000       0.395162        10.7529 
 185   0.0000       0.398574        10.8457 
 186   0.0000       0.399987        10.8842 
 187   0.0000       0.402769        10.9599 
 188   0.0000       0.404388        11.0040 
 189   0.0000       0.412763        11.2319 
 190   0.0000       0.413845        11.2613 
 191   0.0000       0.419038        11.4026 
 192   0.0000       0.419786        11.4230 
 193   0.0000       0.424719        11.5572 
 194   0.0000       0.430742        11.7211 
 195   0.0000       0.433239        11.7890 
 196   0.0000       0.437901        11.9159 
 197   0.0000       0.441170        12.0048 
 198   0.0000       0.444697        12.1008 
 199   0.0000       0.448611        12.2073 
 200   0.0000       0.453307        12.3351 
 201   0.0000       0.457249        12.4424 
 202   0.0000       0.461137        12.5482 
 203   0.0000       0.463107        12.6018 
 204   0.0000       0.467461        12.7203 
 205   0.0000       0.470229        12.7956 
 206   0.0000       0.474919        12.9232 
 207   0.0000       0.477333        12.9889 
 208   0.0000       0.481549        13.1036 
 209   0.0000       0.483104        13.1459 
 210   0.0000       0.483599        13.1594 
 211   0.0000       0.489141        13.3102 
 212   0.0000       0.493339        13.4244 
 213   0.0000       0.495278        13.4772 
 214   0.0000       0.500665        13.6238 
 215   0.0000       0.502332        13.6691 
 216   0.0000       0.508025        13.8241 
 217   0.0000       0.510137        13.8815 
 218   0.0000       0.513304        13.9677 
 219   0.0000       0.513664        13.9775 
 220   0.0000       0.517609        14.0849 
 221   0.0000       0.520471        14.1627 
 222   0.0000       0.523340        14.2408 
 223   0.0000       0.526209        14.3189 
 224   0.0000       0.528925        14.3928 
 225   0.0000       0.531485        14.4624 
 226   0.0000       0.537331        14.6215 
 227   0.0000       0.541229        14.7276 
 228   0.0000       0.543698        14.7948 
 229   0.0000       0.547422        14.8961 
 230   0.0000       0.550251        14.9731 
 231   0.0000       0.552708        15.0400 
 232   0.0000       0.553084        15.0502 
 233   0.0000       0.558656        15.2018 
 234   0.0000       0.563725        15.3397 
 235   0.0000       0.566833        15.4243 
 236   0.0000       0.568212        15.4618 
 237   0.0000       0.574856        15.6426 
 238   0.0000       0.578738        15.7483 
 239   0.0000       0.580082        15.7848 
 240   0.0000       0.583140        15.8680 
 241   0.0000       0.587447        15.9852 
 242   0.0000       0.590606        16.0712 
 243   0.0000       0.595974        16.2173 
 244   0.0000       0.600585        16.3428 
 245   0.0000       0.602615        16.3980 
 246   0.0000       0.602952        16.4072 
 247   0.0000       0.606098        16.4928 
 248   0.0000       0.613793        16.7022 
 249   0.0000       0.617372        16.7995 
 250   0.0000       0.620720        16.8906 
 251   0.0000       0.626305        17.0426 
 252   0.0000       0.626703        17.0535 
 253   0.0000       0.631080        17.1725 
 254   0.0000       0.637008        17.3339 
 255   0.0000       0.643448        17.5091 
 256   0.0000       0.646371        17.5886 
 257   0.0000       0.651434        17.7264 
 258   0.0000       0.658551        17.9201 
 259   0.0000       0.662302        18.0222 
 260   0.0000       0.664490        18.0817 
 261   0.0000       0.665670        18.1138 
 262   0.0000       0.667256        18.1570 
 263   0.0000       0.674811        18.3626 
 264   0.0000       0.680273        18.5112 
 265   0.0000       0.681440        18.5429 
 266   0.0000       0.684982        18.6393 
 267   0.0000       0.692312        18.8388 
 268   0.0000       0.696170        18.9438 
 269   0.0000       0.697273        18.9738 
 270   0.0000       0.709267        19.3001 
 271   0.0000       0.712394        19.3852 
 272   0.0000       0.714658        19.4468 
 273   0.0000       0.723524        19.6881 
 274   0.0000       0.726990        19.7824 
 275   0.0000       0.730859        19.8877 
 276   0.0000       0.734768        19.9940 
 277   0.0000       0.738051        20.0834 
 278   0.0000       0.741453        20.1760 
 279   0.0000       0.743499        20.2316 
 280   0.0000       0.748371        20.3642 
 281   0.0000       0.749617        20.3981 
 282   0.0000       0.760721        20.7003 
 283   0.0000       0.765323        20.8255 
 284   0.0000       0.773285        21.0421 
[...]
  | sigma^2 in % of trace(Dij) retained ...   8.89e+00
  | sigma^2 in % of trace(Dip) retained ...   1.95e+01
  | sigma^2 in % of trace(Dpq) retained ...   1.37e-01
  | Av. % of trace(Di) retained         ...  99.998533156151
  | Av. % of trace(Dp) retained         ...  99.999999592234
  | sigma^2 in % of trace(Di) retained  ...   7.06e-07
  | sigma^2 in % of trace(Dp) retained  ...   5.10e-13
 Distributions of % trace(Dij) recovered:
  |       >= 99.9  ...   105 ( 21.5 % of all IJ-pairs)
  |   [80.0, 90.0) ...    27 (  5.5 % of all IJ-pairs)
  |   [90.0, 99.0) ...   261 ( 53.4 % of all IJ-pairs)
  |   [99.0, 99.9) ...    96 ( 19.6 % of all IJ-pairs)
 Distributions of % trace(Dip) recovered:
  |   [80.0, 90.0) ...    16 ( 13.7 % of all IP-pairs)
  |   [90.0, 99.0) ...    57 ( 48.7 % of all IP-pairs)
  |   [99.0, 99.9) ...    44 ( 37.6 % of all IP-pairs)
 Distributions of % trace(Dpq) recovered:
  |       >= 99.9  ...     5 ( 33.3 % of all PQ-pairs)
  |   [99.0, 99.9) ...    10 ( 66.7 % of all PQ-pairs)
 Distributions of % trace(Di) recovered :
  |       >= 99.9  ...    43 (100.0 % of all I-pairs )
 Distributions of % trace(Dp) recovered :
  |       >= 99.9  ...     5 (100.0 % of all P-pairs )

                       ===========================
                       1077 OF 1659 PAIRS ARE KEPT
                       ===========================

 Initial PAO correlation energy (all pairs)    ...  -2.6919907968 Eh
 Energy constituents in PAO basis (Eh):
  | Vijab(+0) ...  -2.2643472354
  | Viab (-1) ...  -0.1743939449
  | Vab  (-2) ...  -0.0573479774
  | Va   (-1) ...  -0.0000446986
  | Vija (+1) ...  -0.0717349722
  | Vij  (+2) ...  -0.0155240646
  | Via  (+0) ...  -0.1084360991
  | Vi   (+1) ...  -0.0001618047
 Initial PNO correlation energy                ...  -2.6579740434 Eh
 Energy constituents in PNO basis (Eh):
  | Vijab(+0) ...  -2.2459455985 (err=  0.0184016369)
  | Viab (-1) ...  -0.1603637390 (err=  0.0140302059)
  | Vab  (-2) ...  -0.0568932046 (err=  0.0004547728)
  | Va   (-1) ...  -0.0000258030 (err=  0.0000188956)
  | Vija (+1) ...  -0.0707711182 (err=  0.0009638539)
  | Vij  (+2) ...  -0.0154725854 (err=  0.0000514792)
  | Via  (+0) ...  -0.1083405649 (err=  0.0000955341)
  | Vi   (+1) ...  -0.0001614297 (err=  0.0000003750)
 Sum of total truncation errors ...   0.0340167534 Eh
  | Pair screening ...   0.0112068051 Eh
  | PNO truncation ...   0.0228099483 Eh

 UMP2 correlation energy (PAO) ...  -2.6870037193
  | alpha-alpha ...  -0.3861379783 (NP_aa=  889)
  | alpha-beta  ...  -1.9943129185 (NP_ab= 1634)
  | beta -beta  ...  -0.3065528225 (NP_bb=  712)
 UMP2 correlation energy (PNO) ...  -2.6526057097
  | alpha-alpha ...  -0.3741995244 (err=  0.0119384539, NP_aa=  573)
  | alpha-beta  ...  -1.9758509810 (err=  0.0184619375, NP_ab= 1052)
  | beta -beta  ...  -0.3025552043 (err=  0.0039976182, NP_bb=  446)
 Sum of total UMP2 truncation errors ...   0.0343980096 Eh
  | Pair screening ...   0.0112217028 Eh
  | PNO truncation ...   0.0231763068 Eh
 Timing for NEV-PNO construction (sec.)
  | Intermediate construction  ..           42.477
  | Amplitude construction     ..           59.539
  | Total time                 ..          102.015
 Making pair pair interaction lists ...      ok
 Total size for 2-ext PNO integrals ...     10.9 MB
Checking the number of SOMO/SOMO doubles PNOs ... 
 #Truncate: (72, 72)[168] -> [86] .. 
 #Truncate: (73, 73)[171] -> [86] .. 
 #Truncate: (74, 74)[169] -> [86] .. 
 #Truncate: (75, 75)[171] -> [86] .. 
 #Truncate: (76, 76)[171] -> [86] .. 

--------------------------------
LOCAL RI TRANSFORMATION (VABPAO)
--------------------------------

Number of PAOs:    1030
Basis functions:   1025 (343 shells)
Aux. functions:    2424 (644 shells)

Processing maps (0.0 sec)
Average map sizes:
   Aux shells -> PAOs           1030.0
   PAOs       -> AO shells       343.0

Calculating integrals (187.8 sec, 37370.165 MB)
Finished
-----------------------------
LOCAL RI TRANSFORMATION (IJV)
-----------------------------

Orbital window:      29 to 76
Basis functions:   1025 (343 shells)
Aux. functions:    2424 (644 shells)

Processing maps (0.0 sec)
Average map sizes:
   Aux shells -> MOs(i)           46.1
   Aux shells -> MOs(j)           48.0
   MOs        -> AO shells       339.2

Calculating integrals (22.6 sec, 41.071 MB)
Sorting integrals (0.3 sec, 41.044 MB)
Total time for the integral transformation: 22.9 sec


-------------------------------------
Pair Pair Term precalculation with     
RI-(ij|mn) and (im|jn) transformation  
ON THE FLY                             
-------------------------------------

   IBatch   1 (of   2)              ... done ( 1072.521 sec)
   IBatch   2 (of   2)              ... done (  960.566 sec)
Total EXT                           ...        2033.088 sec

---------------------
RI-PNO TRANSFORMATION
---------------------

Total Number of PNOs                   ... 33932
Total Number of IJ-PNOs                ... 29780
Total Number of IP-PNOs                ...  3194
Total Number of PQ-PNOs                ...   958
Total Number of IJ-pairs               ...   935
Total Number of PI-pairs               ...   117
Total Number of PQ-pairs               ...    25
Average number of PNOs per pair        ...    31
Maximal number of PNOs per pair        ...    86
>> Statistics for ij-pairs..
   #pairs with  1 -  5 PNOs   :    0
   #pairs with  6 - 10 PNOs   :    0
   #pairs with 11 - 15 PNOs   :   64
   #pairs with 16 - 20 PNOs   :  208
   #pairs with 21 - 25 PNOs   :  154
   #pairs with 26 - 30 PNOs   :  150
   #pairs with 31 - 35 PNOs   :   62
   #pairs with 36 - 40 PNOs   :   56
   #pairs with 41 - 45 PNOs   :   44
   #pairs with 46 - 50 PNOs   :   26
   #pairs with 51 - 55 PNOs   :   38
   #pairs with 56 - 60 PNOs   :   57
   #pairs with 61 - 65 PNOs   :   69
   #pairs with 66 - 70 PNOs   :    4
   #pairs with 76 - 80 PNOs   :    1
   #pairs with 81 - 85 PNOs   :    2
>> Statistics for ip-pairs..
   #pairs with  1 -  5 PNOs   :    0
   #pairs with  6 - 10 PNOs   :    1
   #pairs with 11 - 15 PNOs   :   16
   #pairs with 16 - 20 PNOs   :    4
   #pairs with 21 - 25 PNOs   :   28
   #pairs with 26 - 30 PNOs   :    9
   #pairs with 31 - 35 PNOs   :   45
   #pairs with 36 - 40 PNOs   :   14
   #pairs with 41 - 45 PNOs   :    0
   #pairs with 46 - 50 PNOs   :    0
>> Statistics for pq-pairs..
   #pairs with  1 -  5 PNOs   :    0
   #pairs with  6 - 10 PNOs   :    0
   #pairs with 11 - 15 PNOs   :    0
   #pairs with 16 - 20 PNOs   :    0
   #pairs with 21 - 25 PNOs   :   10
   #pairs with 26 - 30 PNOs   :   10
   #pairs with 31 - 35 PNOs   :    0
   #pairs with 36 - 40 PNOs   :    0
   #pairs with 41 - 45 PNOs   :    0
   #pairs with 46 - 50 PNOs   :    0
   #pairs with 86 - 90 PNOs   :    5

Generation of (ij|ab)[P] integrals            ... on
Generation of (ia|bc)[P],(ja|bc)[P] integrals ... on
Storage of 3 and 4 external integrals         ... on
Generation of ALL (ka|bc)[P] integrals        ... on
Keep RI integrals in memory                   ... off

Ibatch:  1 (of  1)
Starting 2-4 index PNO integral generation ... done

Timings:
Total PNO integral transformation time     ...       2001.879 sec
Size of the 3-external file                ...       287 MB
Size of the 4-external file                ...      1958 MB
Size of the IKJL file                      ...        17 MB
Size of the all 3-external file            ...      6895 MB
Size of the 1-external file                ...        21 MB

Size of the PAO/PNO coefficient matrices   ...     216.2 MB

Making pair/pair overlap matrices          ... done (  306.220 sec)
Size of the pair overlap file              ...    2384.0 MB
Total # unrestricted pairs ...       2071
  # of alpha-alpha pairs   ...        573
  # of alpha-beta pairs    ...       1052
  # of beta-beta pairs     ...        446
Constructing the guess amplitudes          ... done (    0.606 sec)

-------------------------
FINAL STARTUP INFORMATION
-------------------------

E(0)                                       ...  -3028.443860581
E(SL-UMP2 in NEV-PNO space)                ...     -2.687972308
Initial E(tot)                             ...  -3031.131832889
<T|T>                                      ...      0.535710746
Number of unrestricted pairs included      ... 2071
Total number of pairs                      ... 4095
----------------------------------------------------------
                     OPEN-SHELL COUPLED CLUSTER ITERATIONS
----------------------------------------------------------

Number of PNO amplitudes to be optimized        ...          2101799
Number of canonical amplitudes for strong pairs ...       1870528177
Untruncated number of canonical amplitudes      ...       3698645738

Iter       E(tot)           E(Corr)          Delta-E          Residual     Time
  0  -3031.139019170     -2.659791990      0.028180318      0.021117230 1621.78
                           *** Turning on DIIS ***
  1  -3031.251524298     -2.772297118     -0.112505128      0.009455905 1595.22
  2  -3031.316257221     -2.837030041     -0.064732923      0.008424283 1932.87
  3  -3031.337802308     -2.858575128     -0.021545087      0.003179061 1923.37
  4  -3031.345195550     -2.865968371     -0.007393243      0.002643753 1932.15
  5  -3031.349215924     -2.869988745     -0.004020374      0.001567215 1918.29
  6  -3031.350693928     -2.871466748     -0.001478004      0.000822769 1918.48
  7  -3031.351329202     -2.872102022     -0.000635274      0.000512343 1913.36
  8  -3031.351467101     -2.872239922     -0.000137900      0.000222146 1913.17
  9  -3031.351526341     -2.872299162     -0.000059240      0.000151221 1915.43
 10  -3031.351524300     -2.872297121      0.000002041      0.000105406 1907.12
 11  -3031.351537342     -2.872310162     -0.000013042      0.000059628 1905.89
 12  -3031.351542425     -2.872315245     -0.000005083      0.000032757 1914.23
 13  -3031.351544804     -2.872317624     -0.000002379      0.000015432 1904.88
 14  -3031.351546453     -2.872319274     -0.000001649      0.000006454 1899.33
               --- The CCSD iterations have converged ---

E(0)                                       ...  -3028.443860581
E(CORR)(strong-pairs)                      ...     -2.872319274
E(CORR)(weak-pairs)                        ...     -0.035366598
E(CORR)(corrected)                         ...     -2.907685872
E(TOT)                                     ...  -3031.351546453
Singles norm <S|S>**1/2                    ...      0.194087254 ( 0.065113397, 0.128973858)  
T1 diagnostic                              ...      0.020345873                              
<S**2>(linearized)                         ...      8.7508215 (ideal value:      8.7500000)

----------------------
LARGEST PNO AMPLITUDES
----------------------
  71a-> 77a  71b-> 77b       0.054848
  51b-> 76b  -1b-> -1b       0.054558
  48b-> 72b  -1b-> -1b       0.053836
  50b-> 76b  -1b-> -1b       0.053591
  71a-> 78a  71b-> 78b       0.052169
  48b-> 75b  -1b-> -1b       0.046728
  62a-> 77a  62b-> 77b       0.046201
  66a-> 77a  66b-> 77b       0.045979
  48b-> 74b  -1b-> -1b       0.045677
  55a-> 78a  55b-> 78b       0.043807
  70a-> 77a  70b-> 77b       0.043693
  54a-> 77a  54b-> 77b       0.043551
  36b-> 72b  -1b-> -1b       0.043408
  43a-> 77a  43b-> 77b       0.043338
  38b-> 73b  -1b-> -1b       0.043241
  60a-> 77a  60b-> 77b       0.042868

Total # unrestricted pairs ...       1164
  # of alpha-alpha pairs   ...        316
  # of alpha-beta pairs    ...        582
  # of beta-beta pairs     ...        266

-------------------------------------------
DLPNO BASED TRIPLES CORRECTION
-------------------------------------------

Singles multiplier          ...  1.000000
Fragment selection                          .... not used
TCutTNO                     ... 1.000e-09
TCutMP2Pairs                ... 1.000e-05
TCutDOStrong                ... 2.000e-02
TCutMKNStrong               ... 1.000e-02
TCutDOWeak                  ... 4.000e-02
TCutMKNWeak                 ... 1.000e-01
NTCutTNO                    ... 1

Number of Triples that are to be computed         ...     32278

 . . . . . . . . .
10% done  
20% done  
30% done  
40% done  
50% done  
60% done  
70% done  
80% done  
90% done  
          Batch   1   done (  13962.049 sec)

Triples-Correction TCutTNO=   1.000e-09 (NWeakPairs = 0  1  2  3)  -0.117742671756   -0.001793158844    0.000000000000    0.000000000000
Triples-Correction  -0.119535830599

Triples timings:
Total time                      ... 14574.411 sec

Triples List generation         ...     0.000 sec
TNO generation                  ...   612.068 sec
Pair density generation         ...     0.102 sec
Look up tables                  ...     0.109 sec
Generating 3-index integrals    ...  8598.729 sec
Make 4-ind.int. from 3-ind.int  ...     3.288 sec
Projecting amplitudes (D + S)   ...  5109.562 sec
Sorting integrals for spin cases...    51.709 sec
Calculate W0/W1                 ...   160.172 sec
Energy contr. (sum over a,b,c)  ...    38.462 sec

Everything after 3-index        ...  5485.653 sec

Energy contribution AAA         ...    24.580 sec
Energy contribution AAB         ...   110.841 sec
Energy contribution ABB         ...   101.276 sec
Energy contribution BBB         ...    13.689 sec
prep                ...     3.023 sec
makeTTNO            ...  5056.723 sec
copyij              ...     0.129 sec
copyil              ...     3.993 sec
transposeij         ...     0.076 sec
newMatInDoubleProj  ...    51.318 sec
BlasInDoubleProj    ...  2737.741 sec
ProjSingles         ...    43.061 sec
ProjDoubles         ...  5066.501 sec
overall Doubles for projection      ... 2859523
used Doubles for projection         ... 2859523


Number of Triples   (0, 1, 2, 3 weak pairs; overall):  15724   10983       0       0  ( 26707)
Number of Atoms     (0, 1, 2, 3 weak pairs; overall):   18.9    14.6     0.0     0.0  (    29)
Number of PAOs      (0, 1, 2, 3 weak pairs; overall):  744.1   586.7     0.0     0.0  (  1025)
Number of AuxFcns   (0, 1, 2, 3 weak pairs; overall):  879.7   580.7     0.0     0.0  (  2424)
Number of TNOs (0, 1, 2, 3 weak pairs         ):   79.4    57.1     0.0     0.0
Aver. Number of NTNO, Atoms, PAOs, AuxFcns / Triples:  26707    70.3    17.2   679.4   756.7

Triples Correction (T)                     ...     -0.119535831
    alpha-alpha-alpha ... -0.003869414 (  3.2%)
    alpha-alpha-beta  ... -0.056120830 ( 46.9%)
    alpha-beta -beta  ... -0.055431905 ( 46.4%)
    beta -beta -beta  ... -0.004113683 (  3.4%)
Final correlation energy                   ...     -3.027221703
E(CCSD)                                    ...  -3031.351546453
E(CCSD(T))                                 ...  -3031.471082284

----------------------------
STATISTICS FOR PAIR-ENERGIES
----------------------------
Minimum, maximum and average ratios of UMP and CCSD pair-energies ... 0.45, 1.44, 1.02


------------------------------------------------------------------------------- 
                                     TIMINGS                                   
------------------------------------------------------------------------------- 


Total execution time                   ...    50325.010 sec

Localization of occupied MO's          ...       10.999 sec (  0.0%)
Fock Matrix Formation                  ...     1367.316 sec (  2.7%)
Differential overlap integrals         ...        1.381 sec (  0.0%)
Organizing maps                        ...        1.636 sec (  0.0%)
RI 3-index integral generations        ...      277.033 sec (  0.6%)
RI-PNO integral transformation         ...     4512.128 sec (  9.0%)
Initial Guess                          ...     1735.229 sec (  3.4%)
DIIS Solver                            ...       17.288 sec (  0.0%)
State Vector Update                    ...        0.751 sec (  0.0%)
Sigma-vector construction              ...    28115.559 sec ( 55.9%)
  <0|H|D>                              ...        0.031 sec (  0.0% of sigma)
  <D|H|D>(0-ext)                       ...     5148.992 sec ( 18.3% of sigma)
  <D|H|D>(2-ext Fock)                  ...        1.866 sec (  0.0% of sigma)
  <D|H|D>(2-ext)                       ...     3620.134 sec ( 12.9% of sigma)
  <D|H|D>(4-ext)                       ...      169.150 sec (  0.6% of sigma)
  <D|H|D>(4-ext-corr)                  ...     1038.567 sec (  3.7% of sigma)
  CCSD doubles correction              ...      506.306 sec (  1.8% of sigma)
  <S|H|S>                              ...      712.676 sec (  2.5% of sigma)
  <S|H|D>(1-ext)                       ...      294.123 sec (  1.0% of sigma)
  <D|H|S>(1-ext)                       ...        0.860 sec (  0.0% of sigma)
  <S|H|D>(3-ext)                       ...       21.711 sec (  0.1% of sigma)
  CCSD singles correction              ...        0.006 sec (  0.0% of sigma)
  Fock-dressing                        ...     8726.354 sec ( 31.0% of sigma)
  Singles amplitudes                   ...      126.099 sec (  0.4% of sigma)
  (ik|jl)-dressing                     ...     5966.057 sec ( 21.2% of sigma)
  (ij|ab),(ia|jb)-dressing             ...     1540.931 sec (  5.5% of sigma)
  Pair energies                        ...        0.149 sec (  0.0% of sigma)
Total Time for computing (T)           ...    14616.645 sec ( 29.0% of ALL)


-------------------------   --------------------
FINAL SINGLE POINT ENERGY     -3031.471082283853
-------------------------   --------------------


                            ***************************************
                            *     ORCA property calculations      *
                            ***************************************

                                    ---------------------
                                    Active property flags
                                    ---------------------
   (+) Dipole Moment


------------------------------------------------------------------------------
                       ORCA ELECTRIC PROPERTIES CALCULATION
------------------------------------------------------------------------------

Dipole Moment Calculation                       ... on
Quadrupole Moment Calculation                   ... off
Polarizability Calculation                      ... off
GBWName                                         ... simple-grid-225-290-b3lyp_d3bj-631gd-gas-singlepoint-DLPNO_CCSD_T1-NormalPNO-augtz-gas.gbw
Electron density file                           ... simple-grid-225-290-b3lyp_d3bj-631gd-gas-singlepoint-DLPNO_CCSD_T1-NormalPNO-augtz-gas.scfp.tmp
The origin for moment calculation is the CENTER OF MASS  = ( 0.325457,  0.046682 -0.006238)

-------------
DIPOLE MOMENT
-------------
                                X             Y             Z
Electronic contribution:     44.34285       5.82534      -1.14833
Nuclear contribution   :    -48.49316      -6.95558       0.92938
                        -----------------------------------------
Total Dipole Moment    :     -4.15031      -1.13025      -0.21895
                        -----------------------------------------
Magnitude (a.u.)       :      4.30703
Magnitude (Debye)      :     10.94759



--------------------
Rotational spectrum 
--------------------
 
Rotational constants in cm-1:     0.019454     0.010225     0.009755 
Rotational constants in MHz :   583.209937   306.525549   292.449964 

 Dipole components along the rotational axes: 
x,y,z [a.u.] :    -4.151382     1.113587    -0.276445 
x,y,z [Debye]:   -10.551975     2.830512    -0.702667 

 

Timings for individual modules:

Sum of individual times         ...    65774.028 sec (=1096.234 min)
GTO integral calculation        ...       12.612 sec (=   0.210 min)   0.0 %
SCF iterations                  ...    15418.259 sec (= 256.971 min)  23.4 %
MDCI module                     ...    50343.157 sec (= 839.053 min)  76.5 %
                             ****ORCA TERMINATED NORMALLY****
TOTAL RUN TIME: 0 days 18 hours 16 minutes 16 seconds 719 msec
