
                                 *****************
                                 * O   R   C   A *
                                 *****************

           --- An Ab Initio, DFT and Semiempirical electronic structure package ---

                  #######################################################
                  #                        -***-                        #
                  #          Department of theory and spectroscopy      #
                  #               Directorship: Frank Neese             #
                  #        Max Planck Institute fuer Kohlenforschung    #
                  #                Kaiser Wilhelm Platz 1               #
                  #                 D-45470 Muelheim/Ruhr               #
                  #                      Germany                        #
                  #                                                     #
                  #                  All rights reserved                #
                  #                        -***-                        #
                  #######################################################


                         Program Version 4.1.2  - RELEASE  -


 With contributions from (in alphabetic order):
   Daniel Aravena         : Magnetic Properties
   Michael Atanasov       : Ab Initio Ligand Field Theory
   Alexander A. Auer      : GIAO ZORA
   Ute Becker             : Parallelization
   Giovanni Bistoni       : ED, Open-shell LED
   Martin Brehm           : Molecular dynamics
   Dmytro Bykov           : SCF Hessian
   Vijay G. Chilkuri      : MRCI spin determinant printing
   Dipayan Datta          : RHF DLPNO-CCSD density
   Achintya Kumar Dutta   : EOM-CC, STEOM-CC
   Dmitry Ganyushin       : Spin-Orbit,Spin-Spin,Magnetic field MRCI
   Miquel Garcia          : C-PCM Hessian
   Yang Guo               : DLPNO-NEVPT2, CIM, IAO-localization
   Andreas Hansen         : Spin unrestricted coupled pair/coupled cluster methods
   Benjamin Helmich-Paris : CASSCF linear response (MC-RPA)
   Lee Huntington         : MR-EOM, pCC
   Robert Izsak           : Overlap fitted RIJCOSX, COSX-SCS-MP3, EOM
   Christian Kollmar      : KDIIS, OOCD, Brueckner-CCSD(T), CCSD density
   Simone Kossmann        : Meta GGA functionals, TD-DFT gradient, OOMP2, MP2 Hessian
   Martin Krupicka        : AUTO-CI
   Lucas Lang             : DCDCAS
   Dagmar Lenk            : GEPOL surface, SMD
   Dimitrios Liakos       : Extrapolation schemes; parallel MDCI
   Dimitrios Manganas     : ROCIS; embedding schemes
   Dimitrios Pantazis     : SARC Basis sets
   Taras Petrenko         : DFT Hessian,TD-DFT gradient, ASA, ECA, R-Raman, ABS, FL, XAS/XES, NRVS
   Peter Pinski           : DLPNO-MP2, DLPNO-MP2 Gradient
   Christoph Reimann      : Effective Core Potentials
   Marius Retegan         : Local ZFS, SOC
   Christoph Riplinger    : Optimizer, TS searches, QM/MM, DLPNO-CCSD(T), (RO)-DLPNO pert. Triples
   Tobias Risthaus        : Range-separated hybrids, TD-DFT gradient, RPA, STAB
   Michael Roemelt        : Restricted open shell CIS
   Masaaki Saitow         : Open-shell DLPNO
   Barbara Sandhoefer     : DKH picture change effects
   Avijit Sen             : IP-ROCIS
   Kantharuban Sivalingam : CASSCF convergence, NEVPT2, FIC-MRCI
   Bernardo de Souza      : ESD, SOC TD-DFT
   Georgi Stoychev        : AutoAux, RI-MP2 NMR
   Willem Van den Heuvel  : Paramagnetic NMR
   Boris Wezisla          : Elementary symmetry handling
   Frank Wennmohs         : Technical directorship


 We gratefully acknowledge several colleagues who have allowed us to
 interface, adapt or use parts of their codes:
   Stefan Grimme, W. Hujo, H. Kruse,             : VdW corrections, initial TS optimization,
                  C. Bannwarth                     DFT functionals, gCP, sTDA/sTD-DF
   Ed Valeev                                     : LibInt (2-el integral package), F12 methods
   Garnet Chan, S. Sharma, J. Yang, R. Olivares  : DMRG
   Ulf Ekstrom                                   : XCFun DFT Library
   Mihaly Kallay                                 : mrcc  (arbitrary order and MRCC methods)
   Andreas Klamt, Michael Diedenhofen            : otool_cosmo (COSMO solvation model)
   Jiri Pittner, Ondrej Demel                    : Mk-CCSD
   Frank Weinhold                                : gennbo (NPA and NBO analysis)
   Christopher J. Cramer and Donald G. Truhlar   : smd solvation model
   Lars Goerigk                                  : TD-DFT with DH, B97 family of functionals
   V. Asgeirsson, H. Jonsson                     : NEB implementation
   FAccTs GmbH                                   : IRC, NEB, NEB-TS, Multilevel


 Your calculation uses the libint2 library for the computation of 2-el integrals
 For citations please refer to: http://libint.valeyev.net

 This ORCA versions uses:
   CBLAS   interface :  Fast vector & matrix operations
   LAPACKE interface :  Fast linear algebra routines
   SCALAPACK package :  Parallel linear algebra routines


----- Orbital basis set information -----
Your calculation utilizes the basis: aug-cc-pVTZ 
    H, B-Ne : Obtained from the ccRepo (grant-hill.group.shef.ac.uk/ccrepo) Feb. 2017
              R. A. Kendall, T. H. Dunning, Jr., R. J. Harrison, J. Chem. Phys. 96, 6796 (1992)
         He : Obtained from the ccRepo (grant-hill.group.shef.ac.uk/ccrepo) Feb. 2017
              D. E. Woon, T. H. Dunning, Jr., J. Chem. Phys. 100, 2975 (1994)
  Li-Be, Na : Obtained from the ccRepo (grant-hill.group.shef.ac.uk/ccrepo) Feb. 2017
              B. P. Prascher, D. E. Woon, K. A. Peterson, T. H. Dunning, Jr., A. K. Wilson, Theor. Chem. Acc. 128, 69 (2011)
         Mg : Obtained from the Peterson Research Group Website (tyr0.chem.wsu.edu/~kipeters) Feb. 2017
              B. P. Prascher, D. E. Woon, K. A. Peterson, T. H. Dunning, Jr., A. K. Wilson, Theor. Chem. Acc. 128, 69 (2011)
      Al-Ar : Obtained from the ccRepo (grant-hill.group.shef.ac.uk/ccrepo) Feb. 2017
              D. E. Woon, T. H. Dunning, Jr., J. Chem. Phys. 98, 1358 (1993)
      Sc-Zn : Obtained from the ccRepo (grant-hill.group.shef.ac.uk/ccrepo) Feb. 2017
              N. B. Balabanov, K. A. Peterson, J. Chem. Phys. 123, 064107 (2005)
              N. B. Balabanov, K. A. Peterson, J. Chem. Phys. 125, 074110 (2006)
      Ga-Kr : Obtained from the ccRepo (grant-hill.group.shef.ac.uk/ccrepo) Feb. 2017
              A. K. Wilson, D. E. Woon, K. A. Peterson, T. H. Dunning, Jr., J. Chem. Phys. 110, 7667 (1999)
     Ag, Au : Obtained from the Peterson Research Group Website (tyr0.chem.wsu.edu/~kipeters) Feb. 2017
              K. A. Peterson, C. Puzzarini, Theor. Chem. Acc. 114, 283 (2005)

----- AuxJ basis set information -----
Your calculation utilizes the AutoAux generation procedure.
  G. L. Stoychev, A. A. Auer, F. Neese, J. Chem. Theory Comput. 13, 554 (2017)

----- AuxC basis set information -----
Your calculation utilizes the auxiliary basis: aug-cc-pVTZ/C 
  H-He, B-F, Al-Ar, Ga-Kr : Obtained from the EMSL Basis Set Exchange (bse.pnl.gov) Feb. 2017
                            F. Weigend, A. Kohn, C. Hattig, J. Chem. Phys. 116, 3175 (2002)
                   Be, Mg : Obtained from the TURBOMOLE 7.0 basis set library
                            C. Haettig, Phys. Chem. Chem. Phys. 7, 59 (2005)
                       Ne : Obtained from the EMSL Basis Set Exchange (bse.pnl.gov) Feb. 2017
                            C. Haettig, Phys. Chem. Chem. Phys. 7, 59 (2005)
                            F. Weigend, A. Kohn, C. Hattig, J. Chem. Phys. 116, 3175 (2002)
                    Sc-Zn : Obtained from the EMSL Basis Set Exchange (bse.pnl.gov) Feb. 2017
                            J. G. Hill, J. A. Platts, J. Chem. Phys. 128, 044104 (2008)

----- AuxJK basis set information -----
Your calculation utilizes the AutoAux generation procedure.
  G. L. Stoychev, A. A. Auer, F. Neese, J. Chem. Theory Comput. 13, 554 (2017)

================================================================================
                                        WARNINGS
                       Please study these warnings very carefully!
================================================================================


WARNING: your system is open-shell and RHF/RKS was chosen
  ===> : WILL SWITCH to UHF/UKS


WARNING: MDCI localization with Augmented Hessian Foster-Boys
  ===> : Switching off randomization!

WARNING: Post HF methods need fully converged wavefunctions
  ===> : Setting SCFConvForced true
         You can overwrite this default with %scf ConvForced false 


INFO   : the flag for use of LIBINT has been found!

================================================================================
                                       INPUT FILE
================================================================================
NAME = simple-grid-225-230-b3lyp_d3bj-631gd-gas-singlepoint-DLPNO_CCSD_T1-NormalPNO-augtz-gas.inp
|  1> ! aug-cc-pVTZ aug-cc-pVTZ/C DLPNO-CCSD(T1) TightSCF NormalPNO UNO MiniPrint AutoAux
|  2> %pal nproc 10 end
|  3> %maxcore 20000
|  4> %mdci
|  5>      density none
|  6> end
|  7> 
|  8> * xyz 0 6
|  9>  O     -0.33247800     -0.10625200     -0.58512800
| 10>  C     -1.21535600     -1.04105100     -0.52448700
| 11>  C     -3.13622500      0.00670900     -0.00012200
| 12>  C     -2.28310800      1.05231100     -0.20728800
| 13>  C     -2.15799500      1.70532500     -1.54816700
| 14> Fe      1.45691900      0.06406700      0.05453800
| 15> Cl      2.07397700      1.99553400     -0.77559300
| 16>  C     -1.57174300      1.74964300      0.91145400
| 17> Cl      2.42683600     -1.73280500     -0.76098400
| 18> Cl      1.39222300      0.03419200      2.25786000
| 19>  H     -3.71641000     -0.33001900     -0.85646100
| 20>  H     -2.25302700      2.50968400      1.32038000
| 21>  H     -1.28947500      1.08672300      1.73030600
| 22>  H     -0.67682600      2.26469200      0.55534500
| 23>  H     -2.54643700      2.72923500     -1.46042600
| 24>  H     -1.10849300      1.78526100     -1.84632000
| 25>  H     -2.73252100      1.19614900     -2.32549500
| 26>  C     -3.65193100     -0.44823200      1.33929100
| 27>  H     -4.57378900      0.09913100      1.57782300
| 28>  H     -3.90784300     -1.51206100      1.33612900
| 29>  H     -2.94764900     -0.26803700      2.15431500
| 30>  C     -1.16178300     -1.98872200      0.64030400
| 31>  H     -2.03761100     -2.63477600      0.70219800
| 32>  H     -0.27978900     -2.62031200      0.45614300
| 33>  H     -0.99034300     -1.46893200      1.58318400
| 34>  C     -1.67364900     -1.60550300     -1.84363300
| 35>  H     -0.83812800     -2.22659300     -2.19749400
| 36>  H     -2.56050800     -2.23466400     -1.74800000
| 37>  H     -1.83211100     -0.82174900     -2.58450100
| 38> *
| 39> 
| 40> 
| 41>                          ****END OF INPUT****
================================================================================

                       ****************************
                       * Single Point Calculation *
                       ****************************

---------------------------------
CARTESIAN COORDINATES (ANGSTROEM)
---------------------------------
  O     -0.332478   -0.106252   -0.585128
  C     -1.215356   -1.041051   -0.524487
  C     -3.136225    0.006709   -0.000122
  C     -2.283108    1.052311   -0.207288
  C     -2.157995    1.705325   -1.548167
  Fe     1.456919    0.064067    0.054538
  Cl     2.073977    1.995534   -0.775593
  C     -1.571743    1.749643    0.911454
  Cl     2.426836   -1.732805   -0.760984
  Cl     1.392223    0.034192    2.257860
  H     -3.716410   -0.330019   -0.856461
  H     -2.253027    2.509684    1.320380
  H     -1.289475    1.086723    1.730306
  H     -0.676826    2.264692    0.555345
  H     -2.546437    2.729235   -1.460426
  H     -1.108493    1.785261   -1.846320
  H     -2.732521    1.196149   -2.325495
  C     -3.651931   -0.448232    1.339291
  H     -4.573789    0.099131    1.577823
  H     -3.907843   -1.512061    1.336129
  H     -2.947649   -0.268037    2.154315
  C     -1.161783   -1.988722    0.640304
  H     -2.037611   -2.634776    0.702198
  H     -0.279789   -2.620312    0.456143
  H     -0.990343   -1.468932    1.583184
  C     -1.673649   -1.605503   -1.843633
  H     -0.838128   -2.226593   -2.197494
  H     -2.560508   -2.234664   -1.748000
  H     -1.832111   -0.821749   -2.584501

----------------------------
CARTESIAN COORDINATES (A.U.)
----------------------------
  NO LB      ZA    FRAG     MASS         X           Y           Z
   0 O     8.0000    0    15.999   -0.628292   -0.200787   -1.105732
   1 C     6.0000    0    12.011   -2.296690   -1.967301   -0.991137
   2 C     6.0000    0    12.011   -5.926606    0.012678   -0.000231
   3 C     6.0000    0    12.011   -4.314449    1.988580   -0.391718
   4 C     6.0000    0    12.011   -4.078020    3.222597   -2.925612
   5 Fe   26.0000    0    55.850    2.753178    0.121069    0.103062
   6 Cl   17.0000    0    35.453    3.919249    3.771013   -1.465658
   7 C     6.0000    0    12.011   -2.970164    3.306346    1.722398
   8 Cl   17.0000    0    35.453    4.586055   -3.274527   -1.438051
   9 Cl   17.0000    0    35.453    2.630920    0.064614    4.266737
  10 H     1.0000    0     1.008   -7.022997   -0.623646   -1.618477
  11 H     1.0000    0     1.008   -4.257604    4.742615    2.495157
  12 H     1.0000    0     1.008   -2.436755    2.053609    3.269804
  13 H     1.0000    0     1.008   -1.279016    4.279648    1.049450
  14 H     1.0000    0     1.008   -4.812069    5.157507   -2.759805
  15 H     1.0000    0     1.008   -2.094748    3.373654   -3.489039
  16 H     1.0000    0     1.008   -5.163716    2.260394   -4.394549
  17 C     6.0000    0    12.011   -6.901149   -0.847036    2.530893
  18 H     1.0000    0     1.008   -8.643209    0.187330    2.981653
  19 H     1.0000    0     1.008   -7.384753   -2.857381    2.524918
  20 H     1.0000    0     1.008   -5.570249   -0.506517    4.071065
  21 C     6.0000    0    12.011   -2.195452   -3.758140    1.209999
  22 H     1.0000    0     1.008   -3.850527   -4.979005    1.326962
  23 H     1.0000    0     1.008   -0.528725   -4.951672    0.861985
  24 H     1.0000    0     1.008   -1.871477   -2.775879    2.991784
  25 C     6.0000    0    12.011   -3.162738   -3.033961   -3.483961
  26 H     1.0000    0     1.008   -1.583832   -4.207651   -4.152662
  27 H     1.0000    0     1.008   -4.838659   -4.222903   -3.303241
  28 H     1.0000    0     1.008   -3.462188   -1.552881   -4.883999



           ************************************************************
           *        Program running with 10 parallel MPI-processes    *
           *              working on a common directory               *
           ************************************************************


           ************************************************************
           *        Program running with 10 parallel MPI-processes    *
           *              working on a common directory               *
           ************************************************************

Diagonalization of the overlap matrix:
Smallest eigenvalue                        ... 6.174e-07
Time for diagonalization                   ...    0.344 sec
Threshold for overlap eigenvalues          ... 1.000e-08
Number of eigenvalues below threshold      ... 0
Time for construction of square roots      ...    0.278 sec
Total time needed                          ...    0.626 sec

-------------------
DFT GRID GENERATION
-------------------

General Integration Accuracy     IntAcc      ...  4.340
Radial Grid Type                 RadialGrid  ... Gauss-Chebyshev
Angular Grid (max. acc.)         AngularGrid ... Lebedev-110
Angular grid pruning method      GridPruning ... 3 (G Style)
Weight generation scheme         WeightScheme... Becke
Basis function cutoff            BFCut       ...    1.0000e-11
Integration weight cutoff        WCut        ...    1.0000e-14
Grids for H and He will be reduced by one unit

# of grid points (after initial pruning)     ...  36112 (   0.0 sec)
# of grid points (after weights+screening)   ...  32321 (   0.1 sec)
nearest neighbour list constructed           ...    0.0 sec
Grid point re-assignment to atoms done       ...    0.0 sec
Grid point division into batches done        ...    0.0 sec
Reduced shell lists constructed in    0.3 sec

Total number of grid points                  ...    32321
Total number of batches                      ...      521
Average number of points per batch           ...       62
Average number of grid points per atom       ...     1115
Average number of shells per batch           ...   293.43 (85.55%)
Average number of basis functions per batch  ...   871.87 (85.06%)
Average number of large shells per batch     ...   241.98 (82.47%)
Average number of large basis fcns per batch ...   717.80 (82.33%)
Maximum spatial batch extension              ...   3.06,  3.38,  3.07 au
Average spatial batch extension              ...   0.18,  0.19,  0.17 au

Time for grid setup =    0.459 sec

Loading Hartree-Fock densities                     ... done
Calculating cut-offs                               ... done
Setting up the integral package                    ... done
Initializing the effective Hamiltonian             ... done
Starting the Coulomb interaction                   ... done (   1.1 sec)
Reading the grid                                   ... done
Mapping shells                                     ... done
Starting the XC term evaluation                    ... done (   0.9 sec)
Transforming the Hamiltonian                       ... done (   0.2 sec)
Diagonalizing the Hamiltonian                      ... done (   0.4 sec)
Back transforming the eigenvectors                 ... done (   0.1 sec)
Now organizing SCF variables                       ... done
--------------
SCF ITERATIONS
--------------
ITER       Energy         Delta-E        Max-DP      RMS-DP      [F,P]     Damp
               ***  Starting incremental Fock matrix formation  ***
  0  -3027.5638537973   0.000000000000 0.21513878  0.00110616  0.2651567 0.7000
  1  -3027.8148096369  -0.250955839676 0.15427229  0.00086156  0.1619345 0.7000
                               ***Turning on DIIS***
  2  -3027.9833754154  -0.168565778456 0.10703053  0.00063347  0.1091026 0.7000
  3  -3029.6378993315  -1.654523916151 0.25374606  0.00158804  0.0817346 0.0000
  4  -3028.2871627593   1.350736572267 0.04750342  0.00023957  0.0198907 0.0000
  5  -3028.4089991584  -0.121836399118 0.03969937  0.00017725  0.0120107 0.0000
  6  -3028.4426019301  -0.033602771671 0.02141134  0.00007076  0.0054879 0.0000
  7  -3028.4582230418  -0.015621111776 0.00919225  0.00003234  0.0034947 0.0000
  8  -3028.4526294192   0.005593622605 0.00609896  0.00001855  0.0014386 0.0000
  9  -3028.4440127932   0.008616625986 0.00235505  0.00001049  0.0007619 0.0000
 10  -3028.4323697743   0.011643018973 0.00105879  0.00000342  0.0004415 0.0000
 11  -3028.4389880796  -0.006618305357 0.00028886  0.00000192  0.0000677 0.0000
 12  -3028.4367988963   0.002189183328 0.00051221  0.00000155  0.0000234 0.0000
 13  -3028.4367785620   0.000020334304 0.00071555  0.00000162  0.0000082 0.0000
 14  -3028.4367863285  -0.000007766555 0.00085801  0.00000216  0.0000052 0.0000
 15  -3028.4367436399   0.000042688665 0.00092865  0.00000239  0.0000027 0.0000
 16  -3028.4367528496  -0.000009209735 0.00123699  0.00000308  0.0000019 0.0000
 17  -3028.4367653371  -0.000012487511 0.00099734  0.00000262  0.0000013 0.0000
 18  -3028.4367516674   0.000013669773 0.00151894  0.00000410  0.0000010 0.0000
                            ***DIIS convergence achieved***

               *****************************************************
               *                     SUCCESS                       *
               *           SCF CONVERGED AFTER  19 CYCLES          *
               *****************************************************

Total Energy       :        -3028.43676311 Eh          -82407.95386 eV
  Last Energy change         ...   -1.1446e-05  Tolerance :   1.0000e-08
  Last MAX-Density change    ...    1.1180e-03  Tolerance :   1.0000e-07
             **** THE GBW FILE WAS UPDATED (simple-grid-225-230-b3lyp_d3bj-631gd-gas-singlepoint-DLPNO_CCSD_T1-NormalPNO-augtz-gas.gbw) ****
             **** DENSITY FILE WAS UPDATED (simple-grid-225-230-b3lyp_d3bj-631gd-gas-singlepoint-DLPNO_CCSD_T1-NormalPNO-augtz-gas.scfp.tmp) ****
             **** ENERGY FILE WAS UPDATED (simple-grid-225-230-b3lyp_d3bj-631gd-gas-singlepoint-DLPNO_CCSD_T1-NormalPNO-augtz-gas.en.tmp) ****
----------------------
UHF SPIN CONTAMINATION
----------------------

Expectation value of <S**2>     :     8.764671
Ideal value S*(S+1) for S=2.5   :     8.750000
Deviation                       :     0.014671

----------------
ORBITAL ENERGIES
----------------
                 SPIN UP ORBITALS
  NO   OCC          E(Eh)            E(eV) 
   0   1.0000    -261.563687     -7117.5098 
   1   1.0000    -104.784541     -2851.3323 
   2   1.0000    -104.783499     -2851.3040 
   3   1.0000    -104.782733     -2851.2831 
   4   1.0000     -32.231509      -877.0640 
   5   1.0000     -27.707747      -753.9661 
   6   1.0000     -27.706981      -753.9453 
   7   1.0000     -27.706852      -753.9418 
   8   1.0000     -20.580860      -560.0337 
   9   1.0000     -11.415165      -310.6224 
  10   1.0000     -11.311316      -307.7966 
  11   1.0000     -11.269459      -306.6576 
  12   1.0000     -11.264761      -306.5297 
  13   1.0000     -11.260882      -306.4242 
  14   1.0000     -11.253287      -306.2175 
  15   1.0000     -11.251599      -306.1716 
  16   1.0000     -11.246738      -306.0393 
  17   1.0000     -10.511187      -286.0240 
  18   1.0000     -10.510091      -285.9941 
  19   1.0000     -10.509296      -285.9725 
  20   1.0000      -7.978052      -217.0938 
  21   1.0000      -7.977251      -217.0720 
  22   1.0000      -7.977210      -217.0709 
  23   1.0000      -7.976957      -217.0640 
  24   1.0000      -7.976189      -217.0431 
  25   1.0000      -7.976102      -217.0408 
  26   1.0000      -7.976094      -217.0405 
  27   1.0000      -7.975414      -217.0221 
  28   1.0000      -7.975340      -217.0200 
  29   1.0000      -4.586766      -124.8123 
  30   1.0000      -3.199763       -87.0700 
  31   1.0000      -3.198477       -87.0350 
  32   1.0000      -3.198136       -87.0257 
  33   1.0000      -1.435886       -39.0724 
  34   1.0000      -1.151623       -31.3373 
  35   1.0000      -1.094218       -29.7752 
  36   1.0000      -1.057312       -28.7709 
  37   1.0000      -1.051919       -28.6242 
  38   1.0000      -1.050154       -28.5762 
  39   1.0000      -1.032320       -28.0908 
  40   1.0000      -1.004735       -27.3402 
  41   1.0000      -0.976064       -26.5601 
  42   1.0000      -0.933753       -25.4087 
  43   1.0000      -0.916245       -24.9323 
  44   1.0000      -0.916121       -24.9289 
  45   1.0000      -0.914509       -24.8850 
  46   1.0000      -0.906120       -24.6568 
  47   1.0000      -0.905801       -24.6481 
  48   1.0000      -0.799134       -21.7455 
  49   1.0000      -0.747956       -20.3529 
  50   1.0000      -0.699349       -19.0303 
  51   1.0000      -0.695146       -18.9159 
  52   1.0000      -0.687043       -18.6954 
  53   1.0000      -0.667258       -18.1570 
  54   1.0000      -0.636492       -17.3198 
  55   1.0000      -0.619776       -16.8650 
  56   1.0000      -0.602794       -16.4029 
  57   1.0000      -0.598991       -16.2994 
  58   1.0000      -0.582473       -15.8499 
  59   1.0000      -0.576646       -15.6913 
  60   1.0000      -0.569600       -15.4996 
  61   1.0000      -0.566369       -15.4117 
  62   1.0000      -0.549539       -14.9537 
  63   1.0000      -0.548019       -14.9124 
  64   1.0000      -0.541992       -14.7484 
  65   1.0000      -0.520893       -14.1742 
  66   1.0000      -0.513154       -13.9636 
  67   1.0000      -0.490551       -13.3486 
  68   1.0000      -0.471210       -12.8223 
  69   1.0000      -0.463513       -12.6128 
  70   1.0000      -0.439099       -11.9485 
  71   1.0000      -0.433402       -11.7935 
  72   1.0000      -0.431841       -11.7510 
  73   1.0000      -0.423791       -11.5319 
  74   1.0000      -0.421871       -11.4797 
  75   1.0000      -0.421628       -11.4731 
  76   1.0000      -0.368759       -10.0344 
  77   0.0000       0.011732         0.3192 
  78   0.0000       0.022378         0.6089 
  79   0.0000       0.023211         0.6316 
  80   0.0000       0.030313         0.8249 
  81   0.0000       0.039195         1.0666 
  82   0.0000       0.040311         1.0969 
  83   0.0000       0.042459         1.1554 
  84   0.0000       0.043462         1.1827 
  85   0.0000       0.044354         1.2069 
  86   0.0000       0.056169         1.5284 
  87   0.0000       0.056515         1.5378 
  88   0.0000       0.059574         1.6211 
  89   0.0000       0.064287         1.7493 
  90   0.0000       0.067351         1.8327 
  91   0.0000       0.070108         1.9077 
  92   0.0000       0.071956         1.9580 
  93   0.0000       0.075329         2.0498 
  94   0.0000       0.080039         2.1780 
  95   0.0000       0.089734         2.4418 
  96   0.0000       0.091231         2.4825 
  97   0.0000       0.092520         2.5176 
  98   0.0000       0.099394         2.7047 
  99   0.0000       0.101435         2.7602 
 100   0.0000       0.102993         2.8026 
 101   0.0000       0.108851         2.9620 
 102   0.0000       0.115136         3.1330 
 103   0.0000       0.120172         3.2701 
 104   0.0000       0.123051         3.3484 
 105   0.0000       0.125353         3.4110 
 106   0.0000       0.127900         3.4803 
 107   0.0000       0.128978         3.5097 
 108   0.0000       0.130759         3.5581 
 109   0.0000       0.132705         3.6111 
 110   0.0000       0.136513         3.7147 
 111   0.0000       0.139016         3.7828 
 112   0.0000       0.142624         3.8810 
 113   0.0000       0.147553         4.0151 
 114   0.0000       0.150011         4.0820 
 115   0.0000       0.153858         4.1867 
 116   0.0000       0.156322         4.2537 
 117   0.0000       0.158147         4.3034 
 118   0.0000       0.160816         4.3760 
 119   0.0000       0.168923         4.5966 
 120   0.0000       0.169073         4.6007 
 121   0.0000       0.172848         4.7034 
 122   0.0000       0.173253         4.7145 
 123   0.0000       0.177115         4.8195 
 124   0.0000       0.181026         4.9260 
 125   0.0000       0.184078         5.0090 
 126   0.0000       0.188604         5.1322 
 127   0.0000       0.190386         5.1807 
 128   0.0000       0.193303         5.2600 
 129   0.0000       0.199272         5.4225 
 130   0.0000       0.199954         5.4410 
 131   0.0000       0.204821         5.5735 
 132   0.0000       0.206960         5.6317 
 133   0.0000       0.209771         5.7082 
 134   0.0000       0.211990         5.7685 
 135   0.0000       0.214283         5.8309 
 136   0.0000       0.216551         5.8927 
 137   0.0000       0.222820         6.0632 
 138   0.0000       0.228034         6.2051 
 139   0.0000       0.229503         6.2451 
 140   0.0000       0.234122         6.3708 
 141   0.0000       0.236261         6.4290 
 142   0.0000       0.237941         6.4747 
 143   0.0000       0.242884         6.6092 
 144   0.0000       0.246805         6.7159 
 145   0.0000       0.251481         6.8431 
 146   0.0000       0.253263         6.8916 
 147   0.0000       0.255357         6.9486 
 148   0.0000       0.260759         7.0956 
 149   0.0000       0.262520         7.1435 
 150   0.0000       0.267098         7.2681 
 151   0.0000       0.270928         7.3723 
 152   0.0000       0.274020         7.4565 
 153   0.0000       0.280338         7.6284 
 154   0.0000       0.285037         7.7563 
 155   0.0000       0.288570         7.8524 
 156   0.0000       0.289310         7.8725 
 157   0.0000       0.297587         8.0978 
 158   0.0000       0.299591         8.1523 
 159   0.0000       0.302329         8.2268 
 160   0.0000       0.308421         8.3926 
 161   0.0000       0.309566         8.4237 
 162   0.0000       0.318638         8.6706 
 163   0.0000       0.319036         8.6814 
 164   0.0000       0.324554         8.8316 
 165   0.0000       0.331728         9.0268 
 166   0.0000       0.333343         9.0707 
 167   0.0000       0.337908         9.1949 
 168   0.0000       0.341178         9.2839 
 169   0.0000       0.343035         9.3345 
 170   0.0000       0.352199         9.5838 
 171   0.0000       0.356425         9.6988 
 172   0.0000       0.357731         9.7344 
 173   0.0000       0.361607         9.8398 
 174   0.0000       0.364520         9.9191 
 175   0.0000       0.366090         9.9618 
 176   0.0000       0.367863        10.0101 
 177   0.0000       0.369026        10.0417 
 178   0.0000       0.372707        10.1419 
 179   0.0000       0.374421        10.1885 
 180   0.0000       0.381911        10.3923 
 181   0.0000       0.384457        10.4616 
 182   0.0000       0.387148        10.5348 
 183   0.0000       0.390074        10.6145 
 184   0.0000       0.390227        10.6186 
 185   0.0000       0.393835        10.7168 
 186   0.0000       0.397159        10.8072 
 187   0.0000       0.400734        10.9045 
 188   0.0000       0.405235        11.0270 
 189   0.0000       0.410858        11.1800 
 190   0.0000       0.412464        11.2237 
 191   0.0000       0.415756        11.3133 
 192   0.0000       0.417969        11.3735 
 193   0.0000       0.423626        11.5274 
 194   0.0000       0.431274        11.7356 
 195   0.0000       0.433058        11.7841 
 196   0.0000       0.435566        11.8524 
 197   0.0000       0.439548        11.9607 
 198   0.0000       0.444847        12.1049 
 199   0.0000       0.448679        12.2092 
 200   0.0000       0.454345        12.3633 
 201   0.0000       0.455053        12.3826 
 202   0.0000       0.455736        12.4012 
 203   0.0000       0.464882        12.6501 
 204   0.0000       0.466974        12.7070 
 205   0.0000       0.468847        12.7580 
 206   0.0000       0.472598        12.8600 
 207   0.0000       0.475241        12.9320 
 208   0.0000       0.476406        12.9637 
 209   0.0000       0.479758        13.0549 
 210   0.0000       0.481714        13.1081 
 211   0.0000       0.486745        13.2450 
 212   0.0000       0.489969        13.3327 
 213   0.0000       0.497253        13.5309 
 214   0.0000       0.499528        13.5928 
 215   0.0000       0.503169        13.6919 
 216   0.0000       0.506107        13.7719 
 217   0.0000       0.507716        13.8157 
 218   0.0000       0.509211        13.8563 
 219   0.0000       0.511835        13.9277 
 220   0.0000       0.515329        14.0228 
 221   0.0000       0.518288        14.1033 
 222   0.0000       0.521593        14.1933 
 223   0.0000       0.525773        14.3070 
 224   0.0000       0.528588        14.3836 
 225   0.0000       0.534021        14.5315 
 226   0.0000       0.536988        14.6122 
 227   0.0000       0.540953        14.7201 
 228   0.0000       0.542565        14.7639 
 229   0.0000       0.544678        14.8215 
 230   0.0000       0.552319        15.0294 
 231   0.0000       0.555437        15.1142 
 232   0.0000       0.558977        15.2105 
 233   0.0000       0.561576        15.2813 
 234   0.0000       0.565436        15.3863 
 235   0.0000       0.568350        15.4656 
 236   0.0000       0.569796        15.5050 
 237   0.0000       0.573711        15.6115 
 238   0.0000       0.577775        15.7221 
 239   0.0000       0.583740        15.8844 
 240   0.0000       0.585429        15.9303 
 241   0.0000       0.595860        16.2142 
 242   0.0000       0.599631        16.3168 
 243   0.0000       0.600772        16.3478 
 244   0.0000       0.602918        16.4062 
 245   0.0000       0.609883        16.5958 
 246   0.0000       0.612918        16.6783 
 247   0.0000       0.618578        16.8324 
 248   0.0000       0.622055        16.9270 
 249   0.0000       0.624785        17.0013 
 250   0.0000       0.626979        17.0610 
 251   0.0000       0.632743        17.2178 
 252   0.0000       0.634334        17.2611 
 253   0.0000       0.638811        17.3829 
 254   0.0000       0.644487        17.5374 
 255   0.0000       0.647938        17.6313 
 256   0.0000       0.648542        17.6477 
 257   0.0000       0.649480        17.6732 
 258   0.0000       0.653848        17.7921 
 259   0.0000       0.659048        17.9336 
 260   0.0000       0.662512        18.0279 
 261   0.0000       0.667295        18.1580 
 262   0.0000       0.669077        18.2065 
 263   0.0000       0.671116        18.2620 
 264   0.0000       0.674322        18.3492 
 265   0.0000       0.683242        18.5920 
 266   0.0000       0.688294        18.7294 
 267   0.0000       0.694051        18.8861 
 268   0.0000       0.698894        19.0179 
 269   0.0000       0.702445        19.1145 
 270   0.0000       0.705057        19.1856 
 271   0.0000       0.711359        19.3571 
 272   0.0000       0.713255        19.4087 
 273   0.0000       0.723285        19.6816 
 274   0.0000       0.724454        19.7134 
 275   0.0000       0.731502        19.9052 
 276   0.0000       0.733214        19.9518 
 277   0.0000       0.736730        20.0475 
 278   0.0000       0.740220        20.1424 
 279   0.0000       0.747850        20.3500 
 280   0.0000       0.752308        20.4714 
 281   0.0000       0.755616        20.5614 
 282   0.0000       0.762552        20.7501 
 283   0.0000       0.771404        20.9910 
 284   0.0000       0.777826        21.1657 
 285   0.0000       0.782227        21.2855 
 286   0.0000       0.782997        21.3064 
 287   0.0000       0.797191        21.6927 
 288   0.0000       0.798462        21.7272 
 289   0.0000       0.807992        21.9866 
 290   0.0000       0.813941        22.1484 
 291   0.0000       0.822387        22.3783 
 292   0.0000       0.823720        22.4146 
 293   0.0000       0.828396        22.5418 
 294   0.0000       0.833187        22.6722 
 295   0.0000       0.836534        22.7632 
 296   0.0000       0.846145        23.0248 
 297   0.0000       0.853124        23.2147 
 298   0.0000       0.857500        23.3338 
 299   0.0000       0.859563        23.3899 
 300   0.0000       0.867347        23.6017 
 301   0.0000       0.873377        23.7658 
 302   0.0000       0.879544        23.9336 
 303   0.0000       0.883461        24.0402 
 304   0.0000       0.888138        24.1675 
 305   0.0000       0.888223        24.1698 
 306   0.0000       0.892064        24.2743 
 307   0.0000       0.893721        24.3194 
 308   0.0000       0.897711        24.4280 
 309   0.0000       0.900964        24.5165 
 310   0.0000       0.908120        24.7112 
 311   0.0000       0.911479        24.8026 
 312   0.0000       0.916521        24.9398 
 313   0.0000       0.918862        25.0035 
 314   0.0000       0.922945        25.1146 
 315   0.0000       0.929670        25.2976 
 316   0.0000       0.932463        25.3736 
 317   0.0000       0.937826        25.5196 
 318   0.0000       0.942069        25.6350 
 319   0.0000       0.944009        25.6878 
 320   0.0000       0.950790        25.8723 
 321   0.0000       0.953418        25.9438 
 322   0.0000       0.956355        26.0237 
 323   0.0000       0.957959        26.0674 
 324   0.0000       0.961879        26.1741 
 325   0.0000       0.969770        26.3888 
 326   0.0000       0.972340        26.4587 
 327   0.0000       0.972965        26.4757 
 328   0.0000       0.976519        26.5724 
 329   0.0000       0.982600        26.7379 
 330   0.0000       0.985087        26.8056 
 331   0.0000       0.987070        26.8595 
 332   0.0000       0.990235        26.9457 
 333   0.0000       0.991992        26.9935 
 334   0.0000       0.999249        27.1909 
 335   0.0000       1.002883        27.2898 
 336   0.0000       1.006302        27.3829 
 337   0.0000       1.010011        27.4838 
 338   0.0000       1.013691        27.5839 
 339   0.0000       1.015736        27.6396 
 340   0.0000       1.019547        27.7433 
 341   0.0000       1.022475        27.8230 
 342   0.0000       1.027222        27.9521 
 343   0.0000       1.033774        28.1304 
 344   0.0000       1.034441        28.1486 
 345   0.0000       1.036857        28.2143 
 346   0.0000       1.040921        28.3249 
 347   0.0000       1.042624        28.3712 
 348   0.0000       1.047706        28.5095 
 349   0.0000       1.050738        28.5920 
 350   0.0000       1.055626        28.7250 
 351   0.0000       1.059489        28.8302 
 352   0.0000       1.062520        28.9126 
 353   0.0000       1.065566        28.9955 
 354   0.0000       1.066146        29.0113 
 355   0.0000       1.073004        29.1979 
 356   0.0000       1.077415        29.3180 
 357   0.0000       1.079782        29.3824 
 358   0.0000       1.086186        29.5566 
 359   0.0000       1.090125        29.6638 
 360   0.0000       1.093207        29.7477 
 361   0.0000       1.097430        29.8626 
 362   0.0000       1.102514        30.0009 
 363   0.0000       1.106782        30.1171 
 364   0.0000       1.109628        30.1945 
 365   0.0000       1.115203        30.3462 
 366   0.0000       1.117703        30.4142 
 367   0.0000       1.125909        30.6375 
 368   0.0000       1.132465        30.8159 
 369   0.0000       1.134916        30.8826 
 370   0.0000       1.137751        30.9598 
 371   0.0000       1.143345        31.1120 
 372   0.0000       1.150324        31.3019 
 373   0.0000       1.154738        31.4220 
 374   0.0000       1.155777        31.4503 
 375   0.0000       1.161288        31.6003 
 376   0.0000       1.166796        31.7501 
 377   0.0000       1.169973        31.8366 
 378   0.0000       1.174737        31.9662 
 379   0.0000       1.178102        32.0578 
 380   0.0000       1.183891        32.2153 
 381   0.0000       1.188624        32.3441 
 382   0.0000       1.197706        32.5912 
 383   0.0000       1.198157        32.6035 
 384   0.0000       1.206312        32.8254 
 385   0.0000       1.207860        32.8675 
 386   0.0000       1.211284        32.9607 
 387   0.0000       1.214002        33.0347 
 388   0.0000       1.216372        33.0992 
 389   0.0000       1.225492        33.3473 
 390   0.0000       1.231810        33.5193 
 391   0.0000       1.233980        33.5783 
 392   0.0000       1.239903        33.7395 
 393   0.0000       1.244110        33.8539 
 394   0.0000       1.249140        33.9908 
 395   0.0000       1.253856        34.1192 
 396   0.0000       1.260210        34.2921 
 397   0.0000       1.263312        34.3765 
 398   0.0000       1.266771        34.4706 
 399   0.0000       1.277408        34.7600 
 400   0.0000       1.278787        34.7976 
 401   0.0000       1.285266        34.9739 
 402   0.0000       1.290108        35.1056 
 403   0.0000       1.298533        35.3349 
 404   0.0000       1.302304        35.4375 
 405   0.0000       1.304754        35.5042 
 406   0.0000       1.309361        35.6295 
 407   0.0000       1.314140        35.7596 
 408   0.0000       1.319437        35.9037 
 409   0.0000       1.325483        36.0682 
 410   0.0000       1.331854        36.2416 
 411   0.0000       1.334536        36.3146 
 412   0.0000       1.341712        36.5098 
 413   0.0000       1.344049        36.5734 
 414   0.0000       1.348865        36.7045 
 415   0.0000       1.354236        36.8506 
 416   0.0000       1.360765        37.0283 
 417   0.0000       1.366138        37.1745 
 418   0.0000       1.373031        37.3621 
 419   0.0000       1.376205        37.4484 
 420   0.0000       1.387672        37.7605 
 421   0.0000       1.390440        37.8358 
 422   0.0000       1.395946        37.9856 
 423   0.0000       1.400723        38.1156 
 424   0.0000       1.403515        38.1916 
 425   0.0000       1.413818        38.4719 
 426   0.0000       1.417477        38.5715 
 427   0.0000       1.418486        38.5990 
 428   0.0000       1.423413        38.7330 
 429   0.0000       1.432354        38.9763 
 430   0.0000       1.438110        39.1330 
 431   0.0000       1.446118        39.3509 
 432   0.0000       1.447433        39.3866 
 433   0.0000       1.448806        39.4240 
 434   0.0000       1.456047        39.6211 
 435   0.0000       1.457426        39.6586 
 436   0.0000       1.468515        39.9603 
 437   0.0000       1.478563        40.2337 
 438   0.0000       1.479613        40.2623 
 439   0.0000       1.481444        40.3122 
 440   0.0000       1.488051        40.4919 
 441   0.0000       1.497165        40.7399 
 442   0.0000       1.502743        40.8917 
 443   0.0000       1.505540        40.9678 
 444   0.0000       1.512592        41.1597 
 445   0.0000       1.517165        41.2842 
 446   0.0000       1.522496        41.4292 
 447   0.0000       1.523414        41.4542 
 448   0.0000       1.529658        41.6241 
 449   0.0000       1.538668        41.8693 
 450   0.0000       1.539090        41.8808 
 451   0.0000       1.546241        42.0754 
 452   0.0000       1.549315        42.1590 
 453   0.0000       1.551543        42.2196 
 454   0.0000       1.561781        42.4982 
 455   0.0000       1.566931        42.6384 
 456   0.0000       1.574817        42.8530 
 457   0.0000       1.579139        42.9705 
 458   0.0000       1.583614        43.0923 
 459   0.0000       1.587822        43.2068 
 460   0.0000       1.596228        43.4356 
 461   0.0000       1.597930        43.4819 
 462   0.0000       1.602059        43.5942 
 463   0.0000       1.609270        43.7905 
 464   0.0000       1.610717        43.8298 
 465   0.0000       1.619893        44.0795 
 466   0.0000       1.625735        44.2385 
 467   0.0000       1.631641        44.3992 
 468   0.0000       1.639510        44.6133 
 469   0.0000       1.641521        44.6681 
 470   0.0000       1.646990        44.8169 
 471   0.0000       1.652051        44.9546 
 472   0.0000       1.661256        45.2051 
 473   0.0000       1.665515        45.3210 
 474   0.0000       1.672328        45.5064 
 475   0.0000       1.675734        45.5990 
 476   0.0000       1.679530        45.7023 
 477   0.0000       1.686185        45.8834 
 478   0.0000       1.697534        46.1922 
 479   0.0000       1.700718        46.2789 
 480   0.0000       1.704054        46.3697 
 481   0.0000       1.707355        46.4595 
 482   0.0000       1.711842        46.5816 
 483   0.0000       1.718203        46.7547 
 484   0.0000       1.720372        46.8137 
 485   0.0000       1.732572        47.1457 
 486   0.0000       1.734649        47.2022 
 487   0.0000       1.737327        47.2751 
 488   0.0000       1.742332        47.4113 
 489   0.0000       1.751664        47.6652 
 490   0.0000       1.755937        47.7815 
 491   0.0000       1.763130        47.9772 
 492   0.0000       1.763398        47.9845 
 493   0.0000       1.765972        48.0545 
 494   0.0000       1.775201        48.3057 
 495   0.0000       1.777956        48.3806 
 496   0.0000       1.780279        48.4439 
 497   0.0000       1.787285        48.6345 
 498   0.0000       1.789151        48.6853 
 499   0.0000       1.795447        48.8566 
 500   0.0000       1.802804        49.0568 
 501   0.0000       1.807318        49.1796 
 502   0.0000       1.809923        49.2505 
 503   0.0000       1.817176        49.4479 
 504   0.0000       1.823384        49.6168 
 505   0.0000       1.826300        49.6961 
 506   0.0000       1.836505        49.9738 
 507   0.0000       1.838013        50.0149 
 508   0.0000       1.850536        50.3557 
 509   0.0000       1.853169        50.4273 
 510   0.0000       1.858678        50.5772 
 511   0.0000       1.864371        50.7321 
 512   0.0000       1.871650        50.9302 
 513   0.0000       1.877582        51.0916 
 514   0.0000       1.879113        51.1333 
 515   0.0000       1.882676        51.2302 
 516   0.0000       1.883845        51.2620 
 517   0.0000       1.890674        51.4479 
 518   0.0000       1.897311        51.6284 
 519   0.0000       1.903454        51.7956 
 520   0.0000       1.908039        51.9204 
 521   0.0000       1.913319        52.0641 
 522   0.0000       1.922898        52.3247 
 523   0.0000       1.927769        52.4573 
 524   0.0000       1.935066        52.6558 
 525   0.0000       1.937497        52.7220 
 526   0.0000       1.941225        52.8234 
 527   0.0000       1.944474        52.9118 
 528   0.0000       1.950525        53.0765 
 529   0.0000       1.958506        53.2937 
 530   0.0000       1.961619        53.3784 
 531   0.0000       1.966080        53.4998 
 532   0.0000       1.984856        54.0107 
 533   0.0000       1.989735        54.1435 
 534   0.0000       1.994461        54.2720 
 535   0.0000       1.998300        54.3765 
 536   0.0000       2.007082        54.6155 
 537   0.0000       2.009529        54.6821 
 538   0.0000       2.016175        54.8629 
 539   0.0000       2.022717        55.0409 
 540   0.0000       2.026806        55.1522 
 541   0.0000       2.030125        55.2425 
 542   0.0000       2.037743        55.4498 
 543   0.0000       2.041271        55.5458 
 544   0.0000       2.054136        55.8959 
 545   0.0000       2.060509        56.0693 
 546   0.0000       2.070002        56.3276 
 547   0.0000       2.074929        56.4617 
 548   0.0000       2.076539        56.5055 
 549   0.0000       2.083622        56.6982 
 550   0.0000       2.087339        56.7994 
 551   0.0000       2.098236        57.0959 
 552   0.0000       2.103741        57.2457 
 553   0.0000       2.106489        57.3205 
 554   0.0000       2.113295        57.5057 
 555   0.0000       2.120437        57.7000 
 556   0.0000       2.130804        57.9821 
 557   0.0000       2.137843        58.1737 
 558   0.0000       2.142278        58.2944 
 559   0.0000       2.154704        58.6325 
 560   0.0000       2.162931        58.8563 
 561   0.0000       2.163774        58.8793 
 562   0.0000       2.167726        58.9868 
 563   0.0000       2.179845        59.3166 
 564   0.0000       2.189608        59.5823 
 565   0.0000       2.197907        59.8081 
 566   0.0000       2.210510        60.1510 
 567   0.0000       2.214727        60.2658 
 568   0.0000       2.217796        60.3493 
 569   0.0000       2.222702        60.4828 
 570   0.0000       2.230549        60.6963 
 571   0.0000       2.232756        60.7564 
 572   0.0000       2.248407        61.1823 
 573   0.0000       2.255133        61.3653 
 574   0.0000       2.259179        61.4754 
 575   0.0000       2.262297        61.5602 
 576   0.0000       2.271980        61.8237 
 577   0.0000       2.276568        61.9486 
 578   0.0000       2.288905        62.2843 
 579   0.0000       2.290796        62.3357 
 580   0.0000       2.296717        62.4968 
 581   0.0000       2.306084        62.7517 
 582   0.0000       2.309895        62.8554 
 583   0.0000       2.313640        62.9573 
 584   0.0000       2.323671        63.2303 
 585   0.0000       2.330985        63.4293 
 586   0.0000       2.335237        63.5450 
 587   0.0000       2.350328        63.9557 
 588   0.0000       2.361883        64.2701 
 589   0.0000       2.369078        64.4659 
 590   0.0000       2.373334        64.5817 
 591   0.0000       2.384733        64.8919 
 592   0.0000       2.392778        65.1108 
 593   0.0000       2.397472        65.2385 
 594   0.0000       2.407882        65.5218 
 595   0.0000       2.414954        65.7142 
 596   0.0000       2.424996        65.9875 
 597   0.0000       2.437748        66.3345 
 598   0.0000       2.440612        66.4124 
 599   0.0000       2.444542        66.5194 
 600   0.0000       2.456778        66.8523 
 601   0.0000       2.468900        67.1822 
 602   0.0000       2.474550        67.3359 
 603   0.0000       2.486595        67.6637 
 604   0.0000       2.488540        67.7166 
 605   0.0000       2.498383        67.9844 
 606   0.0000       2.504274        68.1447 
 607   0.0000       2.510942        68.3262 
 608   0.0000       2.525918        68.7337 
 609   0.0000       2.550314        69.3976 
 610   0.0000       2.554296        69.5059 
 611   0.0000       2.565772        69.8182 
 612   0.0000       2.573645        70.0324 
 613   0.0000       2.587284        70.4036 
 614   0.0000       2.598823        70.7176 
 615   0.0000       2.607525        70.9544 
 616   0.0000       2.610085        71.0240 
 617   0.0000       2.628656        71.5294 
 618   0.0000       2.642994        71.9195 
 619   0.0000       2.656078        72.2756 
 620   0.0000       2.666092        72.5481 
 621   0.0000       2.675063        72.7922 
 622   0.0000       2.677819        72.8671 
 623   0.0000       2.692128        73.2565 
 624   0.0000       2.696044        73.3631 
 625   0.0000       2.698314        73.4248 
 626   0.0000       2.709069        73.7175 
 627   0.0000       2.722652        74.0871 
 628   0.0000       2.731620        74.3312 
 629   0.0000       2.735696        74.4421 
 630   0.0000       2.747236        74.7561 
 631   0.0000       2.758670        75.0672 
 632   0.0000       2.770542        75.3903 
 633   0.0000       2.775517        75.5257 
 634   0.0000       2.777849        75.5891 
 635   0.0000       2.789279        75.9001 
 636   0.0000       2.800130        76.1954 
 637   0.0000       2.814275        76.5803 
 638   0.0000       2.826499        76.9129 
 639   0.0000       2.839630        77.2703 
 640   0.0000       2.855035        77.6895 
 641   0.0000       2.865883        77.9847 
 642   0.0000       2.874625        78.2225 
 643   0.0000       2.893565        78.7379 
 644   0.0000       2.903588        79.0106 
 645   0.0000       2.915290        79.3291 
 646   0.0000       2.930719        79.7489 
 647   0.0000       2.949922        80.2714 
 648   0.0000       2.952694        80.3469 
 649   0.0000       2.978070        81.0374 
 650   0.0000       2.982976        81.1709 
 651   0.0000       2.991031        81.3901 
 652   0.0000       3.012101        81.9634 
 653   0.0000       3.016522        82.0837 
 654   0.0000       3.031981        82.5044 
 655   0.0000       3.051606        83.0384 
 656   0.0000       3.056495        83.1715 
 657   0.0000       3.075992        83.7020 
 658   0.0000       3.089553        84.0710 
 659   0.0000       3.106177        84.5234 
 660   0.0000       3.115399        84.7743 
 661   0.0000       3.126538        85.0774 
 662   0.0000       3.147711        85.6536 
 663   0.0000       3.162063        86.0441 
 664   0.0000       3.175373        86.4063 
 665   0.0000       3.195823        86.9628 
 666   0.0000       3.211795        87.3974 
 667   0.0000       3.217416        87.5503 
 668   0.0000       3.219330        87.6024 
 669   0.0000       3.225657        87.7746 
 670   0.0000       3.238624        88.1274 
 671   0.0000       3.246132        88.3317 
 672   0.0000       3.260161        88.7135 
 673   0.0000       3.268844        88.9498 
 674   0.0000       3.281378        89.2908 
 675   0.0000       3.282287        89.3156 
 676   0.0000       3.297838        89.7387 
 677   0.0000       3.306268        89.9681 
 678   0.0000       3.312894        90.1484 
 679   0.0000       3.316883        90.2570 
 680   0.0000       3.322889        90.4204 
 681   0.0000       3.333573        90.7111 
 682   0.0000       3.349280        91.1385 
 683   0.0000       3.354169        91.2716 
 684   0.0000       3.362198        91.4901 
 685   0.0000       3.372682        91.7753 
 686   0.0000       3.387093        92.1675 
 687   0.0000       3.394691        92.3743 
 688   0.0000       3.403582        92.6162 
 689   0.0000       3.419340        93.0450 
 690   0.0000       3.430712        93.3544 
 691   0.0000       3.433130        93.4202 
 692   0.0000       3.443994        93.7158 
 693   0.0000       3.459929        94.1495 
 694   0.0000       3.472873        94.5017 
 695   0.0000       3.479023        94.6690 
 696   0.0000       3.490996        94.9948 
 697   0.0000       3.494160        95.0809 
 698   0.0000       3.497171        95.1629 
 699   0.0000       3.507258        95.4373 
 700   0.0000       3.514414        95.6321 
 701   0.0000       3.522979        95.8651 
 702   0.0000       3.536468        96.2322 
 703   0.0000       3.552854        96.6781 
 704   0.0000       3.557534        96.8054 
 705   0.0000       3.565883        97.0326 
 706   0.0000       3.578409        97.3735 
 707   0.0000       3.581164        97.4484 
 708   0.0000       3.584230        97.5319 
 709   0.0000       3.590891        97.7131 
 710   0.0000       3.603559        98.0578 
 711   0.0000       3.617387        98.4341 
 712   0.0000       3.621978        98.5590 
 713   0.0000       3.630099        98.7800 
 714   0.0000       3.632559        98.8470 
 715   0.0000       3.644023        99.1589 
 716   0.0000       3.655093        99.4601 
 717   0.0000       3.659431        99.5782 
 718   0.0000       3.668247        99.8181 
 719   0.0000       3.684736       100.2668 
 720   0.0000       3.687858       100.3517 
 721   0.0000       3.694125       100.5223 
 722   0.0000       3.695370       100.5561 
 723   0.0000       3.707536       100.8872 
 724   0.0000       3.714804       101.0850 
 725   0.0000       3.719397       101.2099 
 726   0.0000       3.727825       101.4393 
 727   0.0000       3.736933       101.6871 
 728   0.0000       3.746628       101.9509 
 729   0.0000       3.752178       102.1020 
 730   0.0000       3.755920       102.2038 
 731   0.0000       3.769706       102.5789 
 732   0.0000       3.777468       102.7901 
 733   0.0000       3.781429       102.8979 
 734   0.0000       3.790379       103.1414 
 735   0.0000       3.794375       103.2502 
 736   0.0000       3.801377       103.4407 
 737   0.0000       3.802583       103.4735 
 738   0.0000       3.816497       103.8522 
 739   0.0000       3.828098       104.1679 
 740   0.0000       3.830668       104.2378 
 741   0.0000       3.838856       104.4606 
 742   0.0000       3.844008       104.6008 
 743   0.0000       3.850197       104.7692 
 744   0.0000       3.858161       104.9859 
 745   0.0000       3.860473       105.0488 
 746   0.0000       3.880830       105.6028 
 747   0.0000       3.888900       105.8224 
 748   0.0000       3.893550       105.9489 
 749   0.0000       3.900098       106.1271 
 750   0.0000       3.903381       106.2164 
 751   0.0000       3.916775       106.5809 
 752   0.0000       3.921033       106.6967 
 753   0.0000       3.932365       107.0051 
 754   0.0000       3.936101       107.1068 
 755   0.0000       3.936901       107.1285 
 756   0.0000       3.945705       107.3681 
 757   0.0000       3.949849       107.4809 
 758   0.0000       3.964361       107.8757 
 759   0.0000       3.969589       108.0180 
 760   0.0000       3.975610       108.1818 
 761   0.0000       3.981984       108.3553 
 762   0.0000       3.987335       108.5009 
 763   0.0000       3.996085       108.7390 
 764   0.0000       4.003477       108.9402 
 765   0.0000       4.006941       109.0344 
 766   0.0000       4.025947       109.5516 
 767   0.0000       4.029733       109.6546 
 768   0.0000       4.034385       109.7812 
 769   0.0000       4.040602       109.9504 
 770   0.0000       4.056626       110.3864 
 771   0.0000       4.059069       110.4529 
 772   0.0000       4.062205       110.5382 
 773   0.0000       4.066816       110.6637 
 774   0.0000       4.087974       111.2394 
 775   0.0000       4.091597       111.3380 
 776   0.0000       4.100821       111.5890 
 777   0.0000       4.103152       111.6524 
 778   0.0000       4.108644       111.8019 
 779   0.0000       4.117161       112.0336 
 780   0.0000       4.126377       112.2844 
 781   0.0000       4.128740       112.3487 
 782   0.0000       4.132199       112.4428 
 783   0.0000       4.151405       112.9655 
 784   0.0000       4.158640       113.1624 
 785   0.0000       4.165574       113.3510 
 786   0.0000       4.174795       113.6019 
 787   0.0000       4.182683       113.8166 
 788   0.0000       4.189332       113.9975 
 789   0.0000       4.204140       114.4005 
 790   0.0000       4.210030       114.5607 
 791   0.0000       4.216460       114.7357 
 792   0.0000       4.220372       114.8422 
 793   0.0000       4.235879       115.2641 
 794   0.0000       4.239276       115.3566 
 795   0.0000       4.253299       115.7381 
 796   0.0000       4.256770       115.8326 
 797   0.0000       4.268047       116.1395 
 798   0.0000       4.273357       116.2840 
 799   0.0000       4.286676       116.6464 
 800   0.0000       4.295877       116.8968 
 801   0.0000       4.301985       117.0630 
 802   0.0000       4.304721       117.1374 
 803   0.0000       4.315900       117.4416 
 804   0.0000       4.323417       117.6462 
 805   0.0000       4.333420       117.9183 
 806   0.0000       4.340431       118.1091 
 807   0.0000       4.349889       118.3665 
 808   0.0000       4.357310       118.5684 
 809   0.0000       4.368119       118.8626 
 810   0.0000       4.382845       119.2633 
 811   0.0000       4.388632       119.4207 
 812   0.0000       4.406957       119.9194 
 813   0.0000       4.414215       120.1169 
 814   0.0000       4.423644       120.3735 
 815   0.0000       4.428086       120.4943 
 816   0.0000       4.438822       120.7865 
 817   0.0000       4.447918       121.0340 
 818   0.0000       4.450049       121.0920 
 819   0.0000       4.462238       121.4237 
 820   0.0000       4.471676       121.6805 
 821   0.0000       4.477768       121.8463 
 822   0.0000       4.480196       121.9123 
 823   0.0000       4.491309       122.2147 
 824   0.0000       4.507572       122.6573 
 825   0.0000       4.518230       122.9473 
 826   0.0000       4.525021       123.1321 
 827   0.0000       4.532135       123.3257 
 828   0.0000       4.544168       123.6531 
 829   0.0000       4.549183       123.7896 
 830   0.0000       4.560268       124.0912 
 831   0.0000       4.568688       124.3203 
 832   0.0000       4.585493       124.7776 
 833   0.0000       4.596595       125.0797 
 834   0.0000       4.598207       125.1236 
 835   0.0000       4.615093       125.5831 
 836   0.0000       4.633134       126.0740 
 837   0.0000       4.635113       126.1278 
 838   0.0000       4.660272       126.8124 
 839   0.0000       4.665045       126.9423 
 840   0.0000       4.682896       127.4281 
 841   0.0000       4.691462       127.6612 
 842   0.0000       4.703764       127.9959 
 843   0.0000       4.709636       128.1557 
 844   0.0000       4.717353       128.3657 
 845   0.0000       4.740142       128.9858 
 846   0.0000       4.742564       129.0517 
 847   0.0000       4.760993       129.5532 
 848   0.0000       4.771674       129.8439 
 849   0.0000       4.773473       129.8928 
 850   0.0000       4.782010       130.1251 
 851   0.0000       4.801170       130.6465 
 852   0.0000       4.806941       130.8035 
 853   0.0000       4.816218       131.0560 
 854   0.0000       4.830909       131.4557 
 855   0.0000       4.852235       132.0360 
 856   0.0000       4.857220       132.1717 
 857   0.0000       4.867882       132.4618 
 858   0.0000       4.873288       132.6089 
 859   0.0000       4.889215       133.0423 
 860   0.0000       4.903799       133.4392 
 861   0.0000       4.914828       133.7393 
 862   0.0000       4.920157       133.8843 
 863   0.0000       4.933667       134.2519 
 864   0.0000       4.946770       134.6085 
 865   0.0000       4.956980       134.8863 
 866   0.0000       4.966501       135.1454 
 867   0.0000       4.988939       135.7559 
 868   0.0000       4.994681       135.9122 
 869   0.0000       5.004029       136.1665 
 870   0.0000       5.012487       136.3967 
 871   0.0000       5.017323       136.5283 
 872   0.0000       5.033741       136.9751 
 873   0.0000       5.040942       137.1710 
 874   0.0000       5.049928       137.4155 
 875   0.0000       5.063323       137.7800 
 876   0.0000       5.076873       138.1487 
 877   0.0000       5.089286       138.4865 
 878   0.0000       5.100634       138.7953 
 879   0.0000       5.110772       139.0712 
 880   0.0000       5.129308       139.5756 
 881   0.0000       5.136034       139.7586 
 882   0.0000       5.147308       140.0654 
 883   0.0000       5.160448       140.4229 
 884   0.0000       5.170792       140.7044 
 885   0.0000       5.193838       141.3315 
 886   0.0000       5.206478       141.6755 
 887   0.0000       5.219129       142.0197 
 888   0.0000       5.231148       142.3468 
 889   0.0000       5.238717       142.5527 
 890   0.0000       5.244660       142.7145 
 891   0.0000       5.257583       143.0661 
 892   0.0000       5.283076       143.7598 
 893   0.0000       5.289948       143.9468 
 894   0.0000       5.291646       143.9930 
 895   0.0000       5.301929       144.2728 
 896   0.0000       5.322837       144.8418 
 897   0.0000       5.333877       145.1422 
 898   0.0000       5.363710       145.9540 
 899   0.0000       5.367228       146.0497 
 900   0.0000       5.387413       146.5990 
 901   0.0000       5.392408       146.7349 
 902   0.0000       5.398316       146.8957 
 903   0.0000       5.409521       147.2005 
 904   0.0000       5.420768       147.5066 
 905   0.0000       5.428094       147.7060 
 906   0.0000       5.432134       147.8159 
 907   0.0000       5.447977       148.2470 
 908   0.0000       5.457880       148.5165 
 909   0.0000       5.467212       148.7704 
 910   0.0000       5.481722       149.1652 
 911   0.0000       5.507973       149.8796 
 912   0.0000       5.516291       150.1059 
 913   0.0000       5.543332       150.8417 
 914   0.0000       5.549216       151.0018 
 915   0.0000       5.558380       151.2512 
 916   0.0000       5.566064       151.4603 
 917   0.0000       5.575986       151.7303 
 918   0.0000       5.584876       151.9722 
 919   0.0000       5.604378       152.5029 
 920   0.0000       5.626452       153.1035 
 921   0.0000       5.630055       153.2016 
 922   0.0000       5.640778       153.4934 
 923   0.0000       5.646991       153.6624 
 924   0.0000       5.661218       154.0496 
 925   0.0000       5.664725       154.1450 
 926   0.0000       5.673856       154.3935 
 927   0.0000       5.680632       154.5779 
 928   0.0000       5.697154       155.0275 
 929   0.0000       5.711876       155.4280 
 930   0.0000       5.726206       155.8180 
 931   0.0000       5.732658       155.9936 
 932   0.0000       5.740093       156.1959 
 933   0.0000       5.752160       156.5242 
 934   0.0000       5.767647       156.9457 
 935   0.0000       5.782704       157.3554 
 936   0.0000       5.790431       157.5656 
 937   0.0000       5.820222       158.3763 
 938   0.0000       5.826716       158.5530 
 939   0.0000       5.841670       158.9599 
 940   0.0000       5.861818       159.5082 
 941   0.0000       5.880935       160.0284 
 942   0.0000       5.903214       160.6346 
 943   0.0000       5.933139       161.4489 
 944   0.0000       5.959434       162.1644 
 945   0.0000       5.992843       163.0735 
 946   0.0000       6.035662       164.2387 
 947   0.0000       6.113553       166.3582 
 948   0.0000       6.116234       166.4312 
 949   0.0000       6.137732       167.0162 
 950   0.0000       6.161707       167.6686 
 951   0.0000       6.174538       168.0177 
 952   0.0000       6.201367       168.7478 
 953   0.0000       6.210729       169.0025 
 954   0.0000       6.238187       169.7497 
 955   0.0000       6.253579       170.1685 
 956   0.0000       6.257813       170.2837 
 957   0.0000       6.264338       170.4613 
 958   0.0000       6.283768       170.9900 
 959   0.0000       6.290534       171.1741 
 960   0.0000       6.316660       171.8851 
 961   0.0000       6.319668       171.9669 
 962   0.0000       6.343982       172.6285 
 963   0.0000       6.360914       173.0893 
 964   0.0000       6.389905       173.8782 
 965   0.0000       6.405629       174.3060 
 966   0.0000       6.435496       175.1187 
 967   0.0000       6.448862       175.4825 
 968   0.0000       6.524233       177.5334 
 969   0.0000       6.530967       177.7166 
 970   0.0000       6.613988       179.9758 
 971   0.0000       6.689176       182.0217 
 972   0.0000       6.846606       186.3056 
 973   0.0000       6.864288       186.7868 
 974   0.0000       6.875096       187.0809 
 975   0.0000       6.906917       187.9468 
 976   0.0000       6.952433       189.1853 
 977   0.0000       6.961864       189.4419 
 978   0.0000       6.982929       190.0152 
 979   0.0000       6.999689       190.4712 
 980   0.0000       7.008174       190.7021 
 981   0.0000       7.039003       191.5410 
 982   0.0000       7.062522       192.1810 
 983   0.0000       7.084058       192.7670 
 984   0.0000       7.162619       194.9048 
 985   0.0000       7.226121       196.6327 
 986   0.0000       7.371947       200.6009 
 987   0.0000       7.418577       201.8697 
 988   0.0000       7.484996       203.6771 
 989   0.0000       7.539576       205.1623 
 990   0.0000       7.563944       205.8254 
 991   0.0000       7.614372       207.1976 
 992   0.0000       7.671602       208.7549 
 993   0.0000       7.738863       210.5852 
 994   0.0000       7.844289       213.4539 
 995   0.0000       7.915967       215.4044 
 996   0.0000       8.040818       218.8018 
 997   0.0000       8.109900       220.6816 
 998   0.0000       8.294334       225.7003 
 999   0.0000       9.421384       256.3689 
 1000   0.0000       9.449165       257.1249 
 1001   0.0000       9.453396       257.2400 
 1002   0.0000       9.459561       257.4077 
 1003   0.0000       9.476649       257.8727 
 1004   0.0000       9.499055       258.4824 
 1005   0.0000       9.713550       264.3191 
 1006   0.0000      10.089231       274.5419 
 1007   0.0000      10.118460       275.3373 
 1008   0.0000      10.130059       275.6529 
 1009   0.0000      10.212117       277.8858 
 1010   0.0000      10.216430       278.0032 
 1011   0.0000      10.258756       279.1549 
 1012   0.0000      10.366400       282.0841 
 1013   0.0000      10.411743       283.3179 
 1014   0.0000      10.519104       286.2394 
 1015   0.0000      17.119755       465.8522 
 1016   0.0000      18.031504       490.6622 
 1017   0.0000      18.214726       495.6479 
 1018   0.0000      18.512638       503.7545 
 1019   0.0000      18.765199       510.6270 
 1020   0.0000      18.932591       515.1820 
 1021   0.0000      19.040637       518.1221 
 1022   0.0000      20.473312       557.1071 
 1023   0.0000      21.339302       580.6719 
 1024   0.0000      21.989448       598.3633 

                 SPIN DOWN ORBITALS
  NO   OCC          E(Eh)            E(eV) 
   0   1.0000    -261.560130     -7117.4130 
   1   1.0000    -104.783095     -2851.2930 
   2   1.0000    -104.782025     -2851.2639 
   3   1.0000    -104.781281     -2851.2436 
   4   1.0000     -32.069487      -872.6551 
   5   1.0000     -27.547432      -749.6037 
   6   1.0000     -27.547376      -749.6022 
   7   1.0000     -27.547093      -749.5945 
   8   1.0000     -20.576545      -559.9162 
   9   1.0000     -11.415019      -310.6185 
  10   1.0000     -11.311381      -307.7983 
  11   1.0000     -11.269362      -306.6549 
  12   1.0000     -11.264741      -306.5292 
  13   1.0000     -11.260563      -306.4155 
  14   1.0000     -11.253322      -306.2185 
  15   1.0000     -11.251581      -306.1711 
  16   1.0000     -11.246751      -306.0396 
  17   1.0000     -10.509639      -285.9818 
  18   1.0000     -10.508514      -285.9512 
  19   1.0000     -10.507749      -285.9304 
  20   1.0000      -7.975540      -217.0255 
  21   1.0000      -7.974899      -217.0080 
  22   1.0000      -7.974830      -217.0062 
  23   1.0000      -7.974411      -216.9947 
  24   1.0000      -7.973770      -216.9773 
  25   1.0000      -7.973733      -216.9763 
  26   1.0000      -7.973673      -216.9747 
  27   1.0000      -7.972952      -216.9551 
  28   1.0000      -7.972863      -216.9526 
  29   1.0000      -4.144531      -112.7784 
  30   1.0000      -2.666172       -72.5502 
  31   1.0000      -2.666099       -72.5482 
  32   1.0000      -2.665699       -72.5374 
  33   1.0000      -1.424923       -38.7741 
  34   1.0000      -1.150857       -31.3164 
  35   1.0000      -1.091594       -29.7038 
  36   1.0000      -1.042332       -28.3633 
  37   1.0000      -1.031886       -28.0790 
  38   1.0000      -1.030313       -28.0362 
  39   1.0000      -1.029037       -28.0015 
  40   1.0000      -1.003927       -27.3182 
  41   1.0000      -0.975978       -26.5577 
  42   1.0000      -0.916049       -24.9270 
  43   1.0000      -0.813191       -22.1281 
  44   1.0000      -0.748003       -20.3542 
  45   1.0000      -0.701193       -19.0804 
  46   1.0000      -0.696427       -18.9507 
  47   1.0000      -0.685225       -18.6459 
  48   1.0000      -0.667097       -18.1526 
  49   1.0000      -0.636421       -17.3179 
  50   1.0000      -0.619541       -16.8586 
  51   1.0000      -0.602242       -16.3878 
  52   1.0000      -0.598938       -16.2979 
  53   1.0000      -0.582134       -15.8407 
  54   1.0000      -0.576259       -15.6808 
  55   1.0000      -0.569477       -15.4962 
  56   1.0000      -0.566106       -15.4045 
  57   1.0000      -0.548991       -14.9388 
  58   1.0000      -0.545792       -14.8517 
  59   1.0000      -0.540241       -14.7007 
  60   1.0000      -0.513493       -13.9728 
  61   1.0000      -0.512731       -13.9521 
  62   1.0000      -0.488425       -13.2907 
  63   1.0000      -0.475637       -12.9427 
  64   1.0000      -0.474129       -12.9017 
  65   1.0000      -0.446054       -12.1378 
  66   1.0000      -0.443197       -12.0600 
  67   1.0000      -0.440997       -12.0001 
  68   1.0000      -0.426941       -11.6177 
  69   1.0000      -0.421512       -11.4699 
  70   1.0000      -0.407345       -11.0844 
  71   1.0000      -0.367296        -9.9946 
  72   0.0000       0.011727         0.3191 
  73   0.0000       0.022345         0.6080 
  74   0.0000       0.023186         0.6309 
  75   0.0000       0.030330         0.8253 
  76   0.0000       0.039172         1.0659 
  77   0.0000       0.040191         1.0937 
  78   0.0000       0.042352         1.1524 
  79   0.0000       0.043354         1.1797 
  80   0.0000       0.044392         1.2080 
  81   0.0000       0.054884         1.4935 
  82   0.0000       0.056420         1.5353 
  83   0.0000       0.059564         1.6208 
  84   0.0000       0.064183         1.7465 
  85   0.0000       0.065781         1.7900 
  86   0.0000       0.068992         1.8774 
  87   0.0000       0.071767         1.9529 
  88   0.0000       0.075224         2.0469 
  89   0.0000       0.079909         2.1744 
  90   0.0000       0.089500         2.4354 
  91   0.0000       0.090632         2.4662 
  92   0.0000       0.092197         2.5088 
  93   0.0000       0.099295         2.7020 
  94   0.0000       0.100867         2.7447 
  95   0.0000       0.102915         2.8005 
  96   0.0000       0.107456         2.9240 
  97   0.0000       0.113350         3.0844 
  98   0.0000       0.114036         3.1031 
  99   0.0000       0.115956         3.1553 
 100   0.0000       0.116587         3.1725 
 101   0.0000       0.119335         3.2473 
 102   0.0000       0.120212         3.2711 
 103   0.0000       0.122559         3.3350 
 104   0.0000       0.125778         3.4226 
 105   0.0000       0.126713         3.4480 
 106   0.0000       0.129366         3.5202 
 107   0.0000       0.130954         3.5634 
 108   0.0000       0.133209         3.6248 
 109   0.0000       0.134682         3.6649 
 110   0.0000       0.137693         3.7468 
 111   0.0000       0.140191         3.8148 
 112   0.0000       0.144674         3.9368 
 113   0.0000       0.148857         4.0506 
 114   0.0000       0.150867         4.1053 
 115   0.0000       0.154627         4.2076 
 116   0.0000       0.157185         4.2772 
 117   0.0000       0.159634         4.3439 
 118   0.0000       0.164583         4.4785 
 119   0.0000       0.169387         4.6092 
 120   0.0000       0.170149         4.6300 
 121   0.0000       0.173201         4.7130 
 122   0.0000       0.176173         4.7939 
 123   0.0000       0.178639         4.8610 
 124   0.0000       0.182233         4.9588 
 125   0.0000       0.185628         5.0512 
 126   0.0000       0.189327         5.1519 
 127   0.0000       0.192994         5.2516 
 128   0.0000       0.195041         5.3073 
 129   0.0000       0.201326         5.4784 
 130   0.0000       0.202187         5.5018 
 131   0.0000       0.209327         5.6961 
 132   0.0000       0.210483         5.7275 
 133   0.0000       0.210728         5.7342 
 134   0.0000       0.214043         5.8244 
 135   0.0000       0.216337         5.8868 
 136   0.0000       0.225257         6.1296 
 137   0.0000       0.227164         6.1814 
 138   0.0000       0.232293         6.3210 
 139   0.0000       0.232427         6.3247 
 140   0.0000       0.236854         6.4451 
 141   0.0000       0.240930         6.5560 
 142   0.0000       0.241319         6.5666 
 143   0.0000       0.245196         6.6721 
 144   0.0000       0.250305         6.8111 
 145   0.0000       0.255225         6.9450 
 146   0.0000       0.256452         6.9784 
 147   0.0000       0.260748         7.0953 
 148   0.0000       0.261917         7.1271 
 149   0.0000       0.268146         7.2966 
 150   0.0000       0.272043         7.4027 
 151   0.0000       0.277240         7.5441 
 152   0.0000       0.281141         7.6502 
 153   0.0000       0.285820         7.7776 
 154   0.0000       0.288443         7.8489 
 155   0.0000       0.294180         8.0050 
 156   0.0000       0.300378         8.1737 
 157   0.0000       0.303350         8.2546 
 158   0.0000       0.304308         8.2806 
 159   0.0000       0.308917         8.4061 
 160   0.0000       0.311738         8.4828 
 161   0.0000       0.315130         8.5751 
 162   0.0000       0.321612         8.7515 
 163   0.0000       0.326853         8.8941 
 164   0.0000       0.329466         8.9652 
 165   0.0000       0.333914         9.0863 
 166   0.0000       0.335362         9.1257 
 167   0.0000       0.340514         9.2659 
 168   0.0000       0.342412         9.3175 
 169   0.0000       0.345725         9.4077 
 170   0.0000       0.353688         9.6243 
 171   0.0000       0.359502         9.7825 
 172   0.0000       0.362075         9.8526 
 173   0.0000       0.364194         9.9102 
 174   0.0000       0.366801         9.9812 
 175   0.0000       0.369605        10.0575 
 176   0.0000       0.370719        10.0878 
 177   0.0000       0.373331        10.1589 
 178   0.0000       0.375622        10.2212 
 179   0.0000       0.379883        10.3371 
 180   0.0000       0.387702        10.5499 
 181   0.0000       0.388581        10.5738 
 182   0.0000       0.392346        10.6763 
 183   0.0000       0.394460        10.7338 
 184   0.0000       0.395122        10.7518 
 185   0.0000       0.400773        10.9056 
 186   0.0000       0.402462        10.9515 
 187   0.0000       0.404511        11.0073 
 188   0.0000       0.410288        11.1645 
 189   0.0000       0.413040        11.2394 
 190   0.0000       0.415910        11.3175 
 191   0.0000       0.416962        11.3461 
 192   0.0000       0.422422        11.4947 
 193   0.0000       0.425044        11.5660 
 194   0.0000       0.432759        11.7760 
 195   0.0000       0.435556        11.8521 
 196   0.0000       0.437612        11.9080 
 197   0.0000       0.447030        12.1643 
 198   0.0000       0.452221        12.3056 
 199   0.0000       0.452944        12.3252 
 200   0.0000       0.456653        12.4262 
 201   0.0000       0.460786        12.5386 
 202   0.0000       0.464250        12.6329 
 203   0.0000       0.468049        12.7363 
 204   0.0000       0.470713        12.8087 
 205   0.0000       0.474384        12.9087 
 206   0.0000       0.477221        12.9858 
 207   0.0000       0.477930        13.0051 
 208   0.0000       0.482001        13.1159 
 209   0.0000       0.484226        13.1765 
 210   0.0000       0.485466        13.2102 
 211   0.0000       0.490976        13.3601 
 212   0.0000       0.493014        13.4156 
 213   0.0000       0.499990        13.6054 
 214   0.0000       0.505164        13.7462 
 215   0.0000       0.506147        13.7730 
 216   0.0000       0.508106        13.8263 
 217   0.0000       0.509638        13.8680 
 218   0.0000       0.511632        13.9222 
 219   0.0000       0.516337        14.0503 
 220   0.0000       0.520126        14.1534 
 221   0.0000       0.522563        14.2196 
 222   0.0000       0.524981        14.2855 
 223   0.0000       0.527123        14.3438 
 224   0.0000       0.531968        14.4756 
 225   0.0000       0.537118        14.6157 
 226   0.0000       0.541910        14.7461 
 227   0.0000       0.543639        14.7932 
 228   0.0000       0.545270        14.8376 
 229   0.0000       0.549327        14.9479 
 230   0.0000       0.554592        15.0912 
 231   0.0000       0.557272        15.1642 
 232   0.0000       0.561450        15.2778 
 233   0.0000       0.563200        15.3254 
 234   0.0000       0.566710        15.4210 
 235   0.0000       0.569477        15.4963 
 236   0.0000       0.572158        15.5692 
 237   0.0000       0.577063        15.7027 
 238   0.0000       0.580417        15.7939 
 239   0.0000       0.584925        15.9166 
 240   0.0000       0.587595        15.9893 
 241   0.0000       0.596825        16.2404 
 242   0.0000       0.601034        16.3550 
 243   0.0000       0.603056        16.4100 
 244   0.0000       0.606887        16.5142 
 245   0.0000       0.613019        16.6811 
 246   0.0000       0.615332        16.7440 
 247   0.0000       0.620700        16.8901 
 248   0.0000       0.624395        16.9906 
 249   0.0000       0.626368        17.0444 
 250   0.0000       0.629920        17.1410 
 251   0.0000       0.634478        17.2650 
 252   0.0000       0.636087        17.3088 
 253   0.0000       0.639992        17.4151 
 254   0.0000       0.646711        17.5979 
 255   0.0000       0.649354        17.6698 
 256   0.0000       0.650387        17.6979 
 257   0.0000       0.652631        17.7590 
 258   0.0000       0.655596        17.8397 
 259   0.0000       0.660648        17.9771 
 260   0.0000       0.665286        18.1034 
 261   0.0000       0.671551        18.2738 
 262   0.0000       0.672828        18.3086 
 263   0.0000       0.674038        18.3415 
 264   0.0000       0.677342        18.4314 
 265   0.0000       0.686825        18.6895 
 266   0.0000       0.693342        18.8668 
 267   0.0000       0.697577        18.9820 
 268   0.0000       0.700424        19.0595 
 269   0.0000       0.705485        19.1972 
 270   0.0000       0.710120        19.3233 
 271   0.0000       0.714823        19.4513 
 272   0.0000       0.714992        19.4559 
 273   0.0000       0.725023        19.7289 
 274   0.0000       0.728689        19.8286 
 275   0.0000       0.733055        19.9475 
 276   0.0000       0.738654        20.0998 
 277   0.0000       0.741210        20.1694 
 278   0.0000       0.746763        20.3204 
 279   0.0000       0.751279        20.4433 
 280   0.0000       0.756828        20.5943 
 281   0.0000       0.759081        20.6557 
 282   0.0000       0.765225        20.8228 
 283   0.0000       0.775715        21.1083 
[...]
  | sigma^2 in % of trace(Dip) retained ...   1.61e+01
  | sigma^2 in % of trace(Dpq) retained ...   1.35e-01
  | Av. % of trace(Di) retained         ...  99.998506920894
  | Av. % of trace(Dp) retained         ...  99.999997125690
  | sigma^2 in % of trace(Di) retained  ...   7.67e-07
  | sigma^2 in % of trace(Dp) retained  ...   5.39e-12
 Distributions of % trace(Dij) recovered:
  |       >= 99.9  ...   105 ( 20.5 % of all IJ-pairs)
  |   [80.0, 90.0) ...    32 (  6.2 % of all IJ-pairs)
  |   [90.0, 99.0) ...   281 ( 54.9 % of all IJ-pairs)
  |   [99.0, 99.9) ...    94 ( 18.4 % of all IJ-pairs)
 Distributions of % trace(Dip) recovered:
  |   [70.0, 80.0) ...     1 (  0.9 % of all IP-pairs)
  |   [80.0, 90.0) ...    11 (  9.4 % of all IP-pairs)
  |   [90.0, 99.0) ...    62 ( 53.0 % of all IP-pairs)
  |   [99.0, 99.9) ...    43 ( 36.8 % of all IP-pairs)
 Distributions of % trace(Dpq) recovered:
  |       >= 99.9  ...     5 ( 33.3 % of all PQ-pairs)
  |   [99.0, 99.9) ...    10 ( 66.7 % of all PQ-pairs)
 Distributions of % trace(Di) recovered :
  |       >= 99.9  ...    43 (100.0 % of all I-pairs )
 Distributions of % trace(Dp) recovered :
  |       >= 99.9  ...     5 (100.0 % of all P-pairs )

                       ===========================
                       1123 OF 1724 PAIRS ARE KEPT
                       ===========================

 Initial PAO correlation energy (all pairs)    ...  -2.6943801081 Eh
 Energy constituents in PAO basis (Eh):
  | Vijab(+0) ...  -2.2654306448
  | Viab (-1) ...  -0.1751196893
  | Vab  (-2) ...  -0.0573565922
  | Va   (-1) ...  -0.0000434807
  | Vija (+1) ...  -0.0723420525
  | Vij  (+2) ...  -0.0155222774
  | Via  (+0) ...  -0.1084046211
  | Vi   (+1) ...  -0.0001607500
 Initial PNO correlation energy                ...  -2.6594494422 Eh
 Energy constituents in PNO basis (Eh):
  | Vijab(+0) ...  -2.2466749979 (err=  0.0187556469)
  | Viab (-1) ...  -0.1606465119 (err=  0.0144731774)
  | Vab  (-2) ...  -0.0569042516 (err=  0.0004523407)
  | Va   (-1) ...  -0.0000252276 (err=  0.0000182531)
  | Vija (+1) ...  -0.0712910359 (err=  0.0010510167)
  | Vij  (+2) ...  -0.0154641920 (err=  0.0000580855)
  | Via  (+0) ...  -0.1082830587 (err=  0.0001215624)
  | Vi   (+1) ...  -0.0001601667 (err=  0.0000005833)
 Sum of total truncation errors ...   0.0349306659 Eh
  | Pair screening ...   0.0117697329 Eh
  | PNO truncation ...   0.0231609329 Eh

 UMP2 correlation energy (PAO) ...  -2.6894020266
  | alpha-alpha ...  -0.3868419511 (NP_aa=  936)
  | alpha-beta  ...  -1.9952985082 (NP_ab= 1699)
  | beta -beta  ...  -0.3072615673 (NP_bb=  730)
 UMP2 correlation energy (PNO) ...  -2.6540938922
  | alpha-alpha ...  -0.3746449028 (err=  0.0121970482, NP_aa=  596)
  | alpha-beta  ...  -1.9762964351 (err=  0.0190020732, NP_ab= 1098)
  | beta -beta  ...  -0.3031525543 (err=  0.0041090131, NP_bb=  469)
 Sum of total UMP2 truncation errors ...   0.0353081345 Eh
  | Pair screening ...   0.0117798598 Eh
  | PNO truncation ...   0.0235282747 Eh
 Timing for NEV-PNO construction (sec.)
  | Intermediate construction  ..           53.450
  | Amplitude construction     ..           69.826
  | Total time                 ..          123.276
 Making pair pair interaction lists ...      ok
 Total size for 2-ext PNO integrals ...     11.1 MB
Checking the number of SOMO/SOMO doubles PNOs ... 
 #Truncate: (72, 72)[176] -> [85] .. 
 #Truncate: (73, 73)[177] -> [85] .. 
 #Truncate: (74, 74)[176] -> [85] .. 
 #Truncate: (75, 75)[176] -> [85] .. 
 #Truncate: (76, 76)[178] -> [85] .. 

--------------------------------
LOCAL RI TRANSFORMATION (VABPAO)
--------------------------------

Number of PAOs:    1030
Basis functions:   1025 (343 shells)
Aux. functions:    2424 (644 shells)

Processing maps (0.0 sec)
Average map sizes:
   Aux shells -> PAOs           1030.0
   PAOs       -> AO shells       343.0

Calculating integrals (190.5 sec, 37370.165 MB)
Finished
-----------------------------
LOCAL RI TRANSFORMATION (IJV)
-----------------------------

Orbital window:      29 to 76
Basis functions:   1025 (343 shells)
Aux. functions:    2424 (644 shells)

Processing maps (0.0 sec)
Average map sizes:
   Aux shells -> MOs(i)           46.8
   Aux shells -> MOs(j)           48.0
   MOs        -> AO shells       340.3

Calculating integrals (22.3 sec, 41.694 MB)
Sorting integrals (0.3 sec, 41.667 MB)
Total time for the integral transformation: 22.7 sec


-------------------------------------
Pair Pair Term precalculation with     
RI-(ij|mn) and (im|jn) transformation  
ON THE FLY                             
-------------------------------------

   IBatch   1 (of   2)              ... done ( 1056.407 sec)
   IBatch   2 (of   2)              ... done ( 1171.267 sec)
Total EXT                           ...        2227.674 sec

---------------------
RI-PNO TRANSFORMATION
---------------------

Total Number of PNOs                   ... 34772
Total Number of IJ-PNOs                ... 30605
Total Number of IP-PNOs                ...  3214
Total Number of PQ-PNOs                ...   953
Total Number of IJ-pairs               ...   981
Total Number of PI-pairs               ...   117
Total Number of PQ-pairs               ...    25
Average number of PNOs per pair        ...    30
Maximal number of PNOs per pair        ...    85
>> Statistics for ij-pairs..
   #pairs with  1 -  5 PNOs   :    0
   #pairs with  6 - 10 PNOs   :    0
   #pairs with 11 - 15 PNOs   :   60
   #pairs with 16 - 20 PNOs   :  260
   #pairs with 21 - 25 PNOs   :  148
   #pairs with 26 - 30 PNOs   :  148
   #pairs with 31 - 35 PNOs   :   72
   #pairs with 36 - 40 PNOs   :   40
   #pairs with 41 - 45 PNOs   :   62
   #pairs with 46 - 50 PNOs   :   20
   #pairs with 51 - 55 PNOs   :   37
   #pairs with 56 - 60 PNOs   :   55
   #pairs with 61 - 65 PNOs   :   74
   #pairs with 66 - 70 PNOs   :    2
   #pairs with 71 - 75 PNOs   :    1
   #pairs with 81 - 85 PNOs   :    2
>> Statistics for ip-pairs..
   #pairs with  1 -  5 PNOs   :    0
   #pairs with  6 - 10 PNOs   :    1
   #pairs with 11 - 15 PNOs   :   15
   #pairs with 16 - 20 PNOs   :    4
   #pairs with 21 - 25 PNOs   :   27
   #pairs with 26 - 30 PNOs   :   12
   #pairs with 31 - 35 PNOs   :   45
   #pairs with 36 - 40 PNOs   :   13
   #pairs with 41 - 45 PNOs   :    0
   #pairs with 46 - 50 PNOs   :    0
>> Statistics for pq-pairs..
   #pairs with  1 -  5 PNOs   :    0
   #pairs with  6 - 10 PNOs   :    0
   #pairs with 11 - 15 PNOs   :    0
   #pairs with 16 - 20 PNOs   :    0
   #pairs with 21 - 25 PNOs   :   10
   #pairs with 26 - 30 PNOs   :   10
   #pairs with 31 - 35 PNOs   :    0
   #pairs with 36 - 40 PNOs   :    0
   #pairs with 41 - 45 PNOs   :    0
   #pairs with 46 - 50 PNOs   :    0
   #pairs with 81 - 85 PNOs   :    5

Generation of (ij|ab)[P] integrals            ... on
Generation of (ia|bc)[P],(ja|bc)[P] integrals ... on
Storage of 3 and 4 external integrals         ... on
Generation of ALL (ka|bc)[P] integrals        ... on
Keep RI integrals in memory                   ... off

Ibatch:  1 (of  1)
Starting 2-4 index PNO integral generation ... done

Timings:
Total PNO integral transformation time     ...       2160.335 sec
Size of the 3-external file                ...       288 MB
Size of the 4-external file                ...      1953 MB
Size of the IKJL file                      ...        19 MB
Size of the all 3-external file            ...      6916 MB
Size of the 1-external file                ...        22 MB

Size of the PAO/PNO coefficient matrices   ...     228.7 MB

Making pair/pair overlap matrices          ... done (  328.553 sec)
Size of the pair overlap file              ...    2476.0 MB
Total # unrestricted pairs ...       2163
  # of alpha-alpha pairs   ...        596
  # of alpha-beta pairs    ...       1098
  # of beta-beta pairs     ...        469
Constructing the guess amplitudes          ... done (    0.587 sec)

-------------------------
FINAL STARTUP INFORMATION
-------------------------

E(0)                                       ...  -3028.428730612
E(SL-UMP2 in NEV-PNO space)                ...     -2.690308666
Initial E(tot)                             ...  -3031.119039278
<T|T>                                      ...      0.534904152
Number of unrestricted pairs included      ... 2163
Total number of pairs                      ... 4095
----------------------------------------------------------
                     OPEN-SHELL COUPLED CLUSTER ITERATIONS
----------------------------------------------------------

Number of PNO amplitudes to be optimized        ...          2130041
Number of canonical amplitudes for strong pairs ...       1953645600
Untruncated number of canonical amplitudes      ...       3698645738

Iter       E(tot)           E(Corr)          Delta-E          Residual     Time
  0  -3031.126246531     -2.661301144      0.029007522      0.020925992 1675.85
                           *** Turning on DIIS ***
  1  -3031.238597979     -2.773652593     -0.112351448      0.010288709 1720.45
  2  -3031.303022894     -2.838077508     -0.064424915      0.008337394 1787.81
  3  -3031.324298315     -2.859352929     -0.021275421      0.003012423 1823.70
  4  -3031.331516316     -2.866570930     -0.007218002      0.002674319 1808.82
  5  -3031.335359016     -2.870413629     -0.003842699      0.001638828 2037.07
  6  -3031.336751601     -2.871806214     -0.001392585      0.000829895 2118.04
  7  -3031.337474431     -2.872529044     -0.000722830      0.000530611 2105.86
  8  -3031.337636635     -2.872691249     -0.000162205      0.000221388 2122.66
  9  -3031.337690467     -2.872745081     -0.000053832      0.000161379 2140.50
 10  -3031.337684447     -2.872739061      0.000006020      0.000088002 2160.60
 11  -3031.337695998     -2.872750612     -0.000011551      0.000066876 2146.17
 12  -3031.337702234     -2.872756848     -0.000006236      0.000032684 2127.58
 13  -3031.337704875     -2.872759488     -0.000002640      0.000015098 2105.23
 14  -3031.337706373     -2.872760987     -0.000001499      0.000007218 2145.08
               --- The CCSD iterations have converged ---

E(0)                                       ...  -3028.428730612
E(CORR)(strong-pairs)                      ...     -2.872760987
E(CORR)(weak-pairs)                        ...     -0.036214774
E(CORR)(corrected)                         ...     -2.908975761
E(TOT)                                     ...  -3031.337706373
Singles norm <S|S>**1/2                    ...      0.192128693 ( 0.064508785, 0.127619908)  
T1 diagnostic                              ...      0.020140560                              
<S**2>(linearized)                         ...      8.7508150 (ideal value:      8.7500000)

----------------------
LARGEST PNO AMPLITUDES
----------------------
  71a-> 78a  71b-> 78b       0.060935
  50b-> 76b  -1b-> -1b       0.055250
  51b-> 76b  -1b-> -1b       0.052003
  48b-> 72b  -1b-> -1b       0.050999
  71a-> 77a  71b-> 77b       0.048674
  43a-> 77a  -1a-> -1a       0.046575
  48b-> 75b  -1b-> -1b       0.046089
  48b-> 74b  -1b-> -1b       0.045997
  65a-> 77a  65b-> 77b       0.045505
  54a-> 77a  54b-> 77b       0.045260
  55a-> 77a  55b-> 77b       0.044417
  69a-> 77a  69b-> 77b       0.043921
  38b-> 73b  -1b-> -1b       0.043561
  61a-> 77a  61b-> 77b       0.043150
  43b-> 77b  -1b-> -1b       0.043150
  63a-> 77a  63b-> 77b       0.043094

Total # unrestricted pairs ...       1200
  # of alpha-alpha pairs   ...        339
  # of alpha-beta pairs    ...        600
  # of beta-beta pairs     ...        261

-------------------------------------------
DLPNO BASED TRIPLES CORRECTION
-------------------------------------------

Singles multiplier          ...  1.000000
Fragment selection                          .... not used
TCutTNO                     ... 1.000e-09
TCutMP2Pairs                ... 1.000e-05
TCutDOStrong                ... 2.000e-02
TCutMKNStrong               ... 1.000e-02
TCutDOWeak                  ... 4.000e-02
TCutMKNWeak                 ... 1.000e-01
NTCutTNO                    ... 1

Number of Triples that are to be computed         ...     35602

 . . . . . . . . .
10% done  
20% done  
30% done  
40% done  
50% done  
60% done  
70% done  
80% done  
90% done  
          Batch   1   done (  17201.232 sec)

Triples-Correction TCutTNO=   1.000e-09 (NWeakPairs = 0  1  2  3)  -0.117621474080   -0.002031090965    0.000000000000    0.000000000000
Triples-Correction  -0.119652565045

Triples timings:
Total time                      ... 17931.089 sec

Triples List generation         ...     0.000 sec
TNO generation                  ...   729.595 sec
Pair density generation         ...     0.095 sec
Look up tables                  ...     0.118 sec
Generating 3-index integrals    ... 10916.838 sec
Make 4-ind.int. from 3-ind.int  ...     3.748 sec
Projecting amplitudes (D + S)   ...  6012.244 sec
Sorting integrals for spin cases...    55.614 sec
Calculate W0/W1                 ...   172.039 sec
Energy contr. (sum over a,b,c)  ...    40.605 sec

Everything after 3-index        ...  6421.753 sec

Energy contribution AAA         ...    26.264 sec
Energy contribution AAB         ...   119.159 sec
Energy contribution ABB         ...   108.258 sec
Energy contribution BBB         ...    14.615 sec
prep                ...     3.345 sec
makeTTNO            ...  5951.534 sec
copyij              ...     0.137 sec
copyil              ...     4.346 sec
transposeij         ...     0.079 sec
newMatInDoubleProj  ...    56.526 sec
BlasInDoubleProj    ...  3229.869 sec
ProjSingles         ...    50.072 sec
ProjDoubles         ...  5962.171 sec
overall Doubles for projection      ... 3264607
used Doubles for projection         ... 3264607


Number of Triples   (0, 1, 2, 3 weak pairs; overall):  16858   12668       0       0  ( 29526)
Number of Atoms     (0, 1, 2, 3 weak pairs; overall):   20.1    14.7     0.0     0.0  (    29)
Number of PAOs      (0, 1, 2, 3 weak pairs; overall):  775.0   593.8     0.0     0.0  (  1025)
Number of AuxFcns   (0, 1, 2, 3 weak pairs; overall):  915.9   577.3     0.0     0.0  (  2424)
Number of TNOs (0, 1, 2, 3 weak pairs         ):   78.9    56.0     0.0     0.0
Aver. Number of NTNO, Atoms, PAOs, AuxFcns / Triples:  29526    69.1    17.8   697.2   770.6

Triples Correction (T)                     ...     -0.119652565
    alpha-alpha-alpha ... -0.003908169 (  3.3%)
    alpha-alpha-beta  ... -0.056143244 ( 46.9%)
    alpha-beta -beta  ... -0.055452570 ( 46.3%)
    beta -beta -beta  ... -0.004148583 (  3.5%)
Final correlation energy                   ...     -3.028628326
E(CCSD)                                    ...  -3031.337706373
E(CCSD(T))                                 ...  -3031.457358938

----------------------------
STATISTICS FOR PAIR-ENERGIES
----------------------------
Minimum, maximum and average ratios of UMP and CCSD pair-energies ... 0.45, 1.44, 1.02


------------------------------------------------------------------------------- 
                                     TIMINGS                                   
------------------------------------------------------------------------------- 


Total execution time                   ...    56162.350 sec

Localization of occupied MO's          ...       12.535 sec (  0.0%)
Fock Matrix Formation                  ...     1403.913 sec (  2.5%)
Differential overlap integrals         ...        1.421 sec (  0.0%)
Organizing maps                        ...        1.691 sec (  0.0%)
RI 3-index integral generations        ...      276.249 sec (  0.5%)
RI-PNO integral transformation         ...     4924.967 sec (  8.8%)
Initial Guess                          ...     1867.934 sec (  3.3%)
DIIS Solver                            ...       18.087 sec (  0.0%)
State Vector Update                    ...        0.717 sec (  0.0%)
Sigma-vector construction              ...    30025.419 sec ( 53.5%)
  <0|H|D>                              ...        0.030 sec (  0.0% of sigma)
  <D|H|D>(0-ext)                       ...     5415.941 sec ( 18.0% of sigma)
  <D|H|D>(2-ext Fock)                  ...        1.962 sec (  0.0% of sigma)
  <D|H|D>(2-ext)                       ...     4624.605 sec ( 15.4% of sigma)
  <D|H|D>(4-ext)                       ...      161.545 sec (  0.5% of sigma)
  <D|H|D>(4-ext-corr)                  ...      992.276 sec (  3.3% of sigma)
  CCSD doubles correction              ...      506.837 sec (  1.7% of sigma)
  <S|H|S>                              ...      656.760 sec (  2.2% of sigma)
  <S|H|D>(1-ext)                       ...      279.732 sec (  0.9% of sigma)
  <D|H|S>(1-ext)                       ...        0.948 sec (  0.0% of sigma)
  <S|H|D>(3-ext)                       ...       21.503 sec (  0.1% of sigma)
  CCSD singles correction              ...        0.005 sec (  0.0% of sigma)
  Fock-dressing                        ...     8499.980 sec ( 28.3% of sigma)
  Singles amplitudes                   ...      112.214 sec (  0.4% of sigma)
  (ik|jl)-dressing                     ...     6990.238 sec ( 23.3% of sigma)
  (ij|ab),(ia|jb)-dressing             ...     1546.245 sec (  5.1% of sigma)
  Pair energies                        ...        0.155 sec (  0.0% of sigma)
Total Time for computing (T)           ...    17970.834 sec ( 32.0% of ALL)


-------------------------   --------------------
FINAL SINGLE POINT ENERGY     -3031.457358938374
-------------------------   --------------------


                            ***************************************
                            *     ORCA property calculations      *
                            ***************************************

                                    ---------------------
                                    Active property flags
                                    ---------------------
   (+) Dipole Moment


------------------------------------------------------------------------------
                       ORCA ELECTRIC PROPERTIES CALCULATION
------------------------------------------------------------------------------

Dipole Moment Calculation                       ... on
Quadrupole Moment Calculation                   ... off
Polarizability Calculation                      ... off
GBWName                                         ... simple-grid-225-230-b3lyp_d3bj-631gd-gas-singlepoint-DLPNO_CCSD_T1-NormalPNO-augtz-gas.gbw
Electron density file                           ... simple-grid-225-230-b3lyp_d3bj-631gd-gas-singlepoint-DLPNO_CCSD_T1-NormalPNO-augtz-gas.scfp.tmp
The origin for moment calculation is the CENTER OF MASS  = ( 0.312347,  0.020162  0.018447)

-------------
DIPOLE MOMENT
-------------
                                X             Y             Z
Electronic contribution:     42.54548       2.38340       2.21698
Nuclear contribution   :    -46.53973      -3.00415      -2.74863
                        -----------------------------------------
Total Dipole Moment    :     -3.99425      -0.62074      -0.53165
                        -----------------------------------------
Magnitude (a.u.)       :      4.07701
Magnitude (Debye)      :     10.36292



--------------------
Rotational spectrum 
--------------------
 
Rotational constants in cm-1:     0.019535     0.011119     0.010436 
Rotational constants in MHz :   585.639985   333.346696   312.866085 

 Dipole components along the rotational axes: 
x,y,z [a.u.] :     3.991228    -0.642069    -0.528979 
x,y,z [Debye]:    10.144895    -1.632010    -1.344557 

 

Timings for individual modules:

Sum of individual times         ...    73413.899 sec (=1223.565 min)
GTO integral calculation        ...       12.251 sec (=   0.204 min)   0.0 %
SCF iterations                  ...    17221.217 sec (= 287.020 min)  23.5 %
MDCI module                     ...    56180.431 sec (= 936.341 min)  76.5 %
                             ****ORCA TERMINATED NORMALLY****
TOTAL RUN TIME: 0 days 20 hours 23 minutes 36 seconds 546 msec
