
                                 *****************
                                 * O   R   C   A *
                                 *****************

           --- An Ab Initio, DFT and Semiempirical electronic structure package ---

                  #######################################################
                  #                        -***-                        #
                  #          Department of theory and spectroscopy      #
                  #               Directorship: Frank Neese             #
                  #        Max Planck Institute fuer Kohlenforschung    #
                  #                Kaiser Wilhelm Platz 1               #
                  #                 D-45470 Muelheim/Ruhr               #
                  #                      Germany                        #
                  #                                                     #
                  #                  All rights reserved                #
                  #                        -***-                        #
                  #######################################################


                         Program Version 4.1.2  - RELEASE  -


 With contributions from (in alphabetic order):
   Daniel Aravena         : Magnetic Properties
   Michael Atanasov       : Ab Initio Ligand Field Theory
   Alexander A. Auer      : GIAO ZORA
   Ute Becker             : Parallelization
   Giovanni Bistoni       : ED, Open-shell LED
   Martin Brehm           : Molecular dynamics
   Dmytro Bykov           : SCF Hessian
   Vijay G. Chilkuri      : MRCI spin determinant printing
   Dipayan Datta          : RHF DLPNO-CCSD density
   Achintya Kumar Dutta   : EOM-CC, STEOM-CC
   Dmitry Ganyushin       : Spin-Orbit,Spin-Spin,Magnetic field MRCI
   Miquel Garcia          : C-PCM Hessian
   Yang Guo               : DLPNO-NEVPT2, CIM, IAO-localization
   Andreas Hansen         : Spin unrestricted coupled pair/coupled cluster methods
   Benjamin Helmich-Paris : CASSCF linear response (MC-RPA)
   Lee Huntington         : MR-EOM, pCC
   Robert Izsak           : Overlap fitted RIJCOSX, COSX-SCS-MP3, EOM
   Christian Kollmar      : KDIIS, OOCD, Brueckner-CCSD(T), CCSD density
   Simone Kossmann        : Meta GGA functionals, TD-DFT gradient, OOMP2, MP2 Hessian
   Martin Krupicka        : AUTO-CI
   Lucas Lang             : DCDCAS
   Dagmar Lenk            : GEPOL surface, SMD
   Dimitrios Liakos       : Extrapolation schemes; parallel MDCI
   Dimitrios Manganas     : ROCIS; embedding schemes
   Dimitrios Pantazis     : SARC Basis sets
   Taras Petrenko         : DFT Hessian,TD-DFT gradient, ASA, ECA, R-Raman, ABS, FL, XAS/XES, NRVS
   Peter Pinski           : DLPNO-MP2, DLPNO-MP2 Gradient
   Christoph Reimann      : Effective Core Potentials
   Marius Retegan         : Local ZFS, SOC
   Christoph Riplinger    : Optimizer, TS searches, QM/MM, DLPNO-CCSD(T), (RO)-DLPNO pert. Triples
   Tobias Risthaus        : Range-separated hybrids, TD-DFT gradient, RPA, STAB
   Michael Roemelt        : Restricted open shell CIS
   Masaaki Saitow         : Open-shell DLPNO
   Barbara Sandhoefer     : DKH picture change effects
   Avijit Sen             : IP-ROCIS
   Kantharuban Sivalingam : CASSCF convergence, NEVPT2, FIC-MRCI
   Bernardo de Souza      : ESD, SOC TD-DFT
   Georgi Stoychev        : AutoAux, RI-MP2 NMR
   Willem Van den Heuvel  : Paramagnetic NMR
   Boris Wezisla          : Elementary symmetry handling
   Frank Wennmohs         : Technical directorship


 We gratefully acknowledge several colleagues who have allowed us to
 interface, adapt or use parts of their codes:
   Stefan Grimme, W. Hujo, H. Kruse,             : VdW corrections, initial TS optimization,
                  C. Bannwarth                     DFT functionals, gCP, sTDA/sTD-DF
   Ed Valeev                                     : LibInt (2-el integral package), F12 methods
   Garnet Chan, S. Sharma, J. Yang, R. Olivares  : DMRG
   Ulf Ekstrom                                   : XCFun DFT Library
   Mihaly Kallay                                 : mrcc  (arbitrary order and MRCC methods)
   Andreas Klamt, Michael Diedenhofen            : otool_cosmo (COSMO solvation model)
   Jiri Pittner, Ondrej Demel                    : Mk-CCSD
   Frank Weinhold                                : gennbo (NPA and NBO analysis)
   Christopher J. Cramer and Donald G. Truhlar   : smd solvation model
   Lars Goerigk                                  : TD-DFT with DH, B97 family of functionals
   V. Asgeirsson, H. Jonsson                     : NEB implementation
   FAccTs GmbH                                   : IRC, NEB, NEB-TS, Multilevel


 Your calculation uses the libint2 library for the computation of 2-el integrals
 For citations please refer to: http://libint.valeyev.net

 This ORCA versions uses:
   CBLAS   interface :  Fast vector & matrix operations
   LAPACKE interface :  Fast linear algebra routines
   SCALAPACK package :  Parallel linear algebra routines


----- Orbital basis set information -----
Your calculation utilizes the basis: aug-cc-pVTZ 
    H, B-Ne : Obtained from the ccRepo (grant-hill.group.shef.ac.uk/ccrepo) Feb. 2017
              R. A. Kendall, T. H. Dunning, Jr., R. J. Harrison, J. Chem. Phys. 96, 6796 (1992)
         He : Obtained from the ccRepo (grant-hill.group.shef.ac.uk/ccrepo) Feb. 2017
              D. E. Woon, T. H. Dunning, Jr., J. Chem. Phys. 100, 2975 (1994)
  Li-Be, Na : Obtained from the ccRepo (grant-hill.group.shef.ac.uk/ccrepo) Feb. 2017
              B. P. Prascher, D. E. Woon, K. A. Peterson, T. H. Dunning, Jr., A. K. Wilson, Theor. Chem. Acc. 128, 69 (2011)
         Mg : Obtained from the Peterson Research Group Website (tyr0.chem.wsu.edu/~kipeters) Feb. 2017
              B. P. Prascher, D. E. Woon, K. A. Peterson, T. H. Dunning, Jr., A. K. Wilson, Theor. Chem. Acc. 128, 69 (2011)
      Al-Ar : Obtained from the ccRepo (grant-hill.group.shef.ac.uk/ccrepo) Feb. 2017
              D. E. Woon, T. H. Dunning, Jr., J. Chem. Phys. 98, 1358 (1993)
      Sc-Zn : Obtained from the ccRepo (grant-hill.group.shef.ac.uk/ccrepo) Feb. 2017
              N. B. Balabanov, K. A. Peterson, J. Chem. Phys. 123, 064107 (2005)
              N. B. Balabanov, K. A. Peterson, J. Chem. Phys. 125, 074110 (2006)
      Ga-Kr : Obtained from the ccRepo (grant-hill.group.shef.ac.uk/ccrepo) Feb. 2017
              A. K. Wilson, D. E. Woon, K. A. Peterson, T. H. Dunning, Jr., J. Chem. Phys. 110, 7667 (1999)
     Ag, Au : Obtained from the Peterson Research Group Website (tyr0.chem.wsu.edu/~kipeters) Feb. 2017
              K. A. Peterson, C. Puzzarini, Theor. Chem. Acc. 114, 283 (2005)

----- AuxJ basis set information -----
Your calculation utilizes the AutoAux generation procedure.
  G. L. Stoychev, A. A. Auer, F. Neese, J. Chem. Theory Comput. 13, 554 (2017)

----- AuxC basis set information -----
Your calculation utilizes the auxiliary basis: aug-cc-pVTZ/C 
  H-He, B-F, Al-Ar, Ga-Kr : Obtained from the EMSL Basis Set Exchange (bse.pnl.gov) Feb. 2017
                            F. Weigend, A. Kohn, C. Hattig, J. Chem. Phys. 116, 3175 (2002)
                   Be, Mg : Obtained from the TURBOMOLE 7.0 basis set library
                            C. Haettig, Phys. Chem. Chem. Phys. 7, 59 (2005)
                       Ne : Obtained from the EMSL Basis Set Exchange (bse.pnl.gov) Feb. 2017
                            C. Haettig, Phys. Chem. Chem. Phys. 7, 59 (2005)
                            F. Weigend, A. Kohn, C. Hattig, J. Chem. Phys. 116, 3175 (2002)
                    Sc-Zn : Obtained from the EMSL Basis Set Exchange (bse.pnl.gov) Feb. 2017
                            J. G. Hill, J. A. Platts, J. Chem. Phys. 128, 044104 (2008)

----- AuxJK basis set information -----
Your calculation utilizes the AutoAux generation procedure.
  G. L. Stoychev, A. A. Auer, F. Neese, J. Chem. Theory Comput. 13, 554 (2017)

================================================================================
                                        WARNINGS
                       Please study these warnings very carefully!
================================================================================


WARNING: your system is open-shell and RHF/RKS was chosen
  ===> : WILL SWITCH to UHF/UKS


WARNING: MDCI localization with Augmented Hessian Foster-Boys
  ===> : Switching off randomization!

WARNING: Post HF methods need fully converged wavefunctions
  ===> : Setting SCFConvForced true
         You can overwrite this default with %scf ConvForced false 


INFO   : the flag for use of LIBINT has been found!

================================================================================
                                       INPUT FILE
================================================================================
NAME = simple-grid-195-215-b3lyp_d3bj-631gd-gas-singlepoint-DLPNO_CCSD_T1-NormalPNO-augtz-gas.inp
|  1> ! aug-cc-pVTZ aug-cc-pVTZ/C DLPNO-CCSD(T1) TightSCF NormalPNO UNO MiniPrint AutoAux
|  2> %pal nproc 10 end
|  3> %maxcore 20000
|  4> %mdci
|  5>      density none
|  6> end
|  7> 
|  8> * xyz 0 6
|  9>  O     -0.36531500     -0.13722200     -0.51565600
| 10>  C     -1.32406200     -1.11245600     -0.42888800
| 11>  C     -2.94435600     -0.06687100     -0.13924600
| 12>  C     -2.11257300      1.08720100     -0.25036800
| 13>  C     -1.93712700      1.77132100     -1.55730600
| 14> Fe      1.40543000      0.04815500      0.04415200
| 15> Cl      1.89851200      2.03506700     -0.79784500
| 16>  C     -1.58978000      1.78994000      0.94944000
| 17> Cl      2.48537300     -1.69707300     -0.74981500
| 18> Cl      1.36028700      0.08344500      2.26293200
| 19>  H     -3.52392200     -0.27514300     -1.03752100
| 20>  H     -2.40565300      2.43532300      1.31377000
| 21>  H     -1.32408200      1.10964300      1.75946100
| 22>  H     -0.72994100      2.41690000      0.70792900
| 23>  H     -2.61596200      2.63967500     -1.54534600
| 24>  H     -0.91607800      2.14302800     -1.67384000
| 25>  H     -2.21590700      1.14099500     -2.40321400
| 26>  C     -3.66619300     -0.40485800      1.14755600
| 27>  H     -4.52907300      0.25798800      1.28962100
| 28>  H     -4.04604500     -1.42983000      1.11226900
| 29>  H     -3.02899300     -0.31457800      2.02973600
| 30>  C     -1.17978900     -2.03103500      0.75714600
| 31>  H     -2.01585800     -2.72877400      0.84530200
| 32>  H     -0.26178700     -2.61178100      0.59008300
| 33>  H     -1.04351200     -1.47965700      1.68845800
| 34>  C     -1.55676600     -1.80936200     -1.74859600
| 35>  H     -0.63519100     -2.35878700     -1.98279900
| 36>  H     -2.39092200     -2.51502800     -1.69924800
| 37>  H     -1.72280500     -1.09196300     -2.55542400
| 38> *
| 39> 
| 40> 
| 41>                          ****END OF INPUT****
================================================================================

                       ****************************
                       * Single Point Calculation *
                       ****************************

---------------------------------
CARTESIAN COORDINATES (ANGSTROEM)
---------------------------------
  O     -0.365315   -0.137222   -0.515656
  C     -1.324062   -1.112456   -0.428888
  C     -2.944356   -0.066871   -0.139246
  C     -2.112573    1.087201   -0.250368
  C     -1.937127    1.771321   -1.557306
  Fe     1.405430    0.048155    0.044152
  Cl     1.898512    2.035067   -0.797845
  C     -1.589780    1.789940    0.949440
  Cl     2.485373   -1.697073   -0.749815
  Cl     1.360287    0.083445    2.262932
  H     -3.523922   -0.275143   -1.037521
  H     -2.405653    2.435323    1.313770
  H     -1.324082    1.109643    1.759461
  H     -0.729941    2.416900    0.707929
  H     -2.615962    2.639675   -1.545346
  H     -0.916078    2.143028   -1.673840
  H     -2.215907    1.140995   -2.403214
  C     -3.666193   -0.404858    1.147556
  H     -4.529073    0.257988    1.289621
  H     -4.046045   -1.429830    1.112269
  H     -3.028993   -0.314578    2.029736
  C     -1.179789   -2.031035    0.757146
  H     -2.015858   -2.728774    0.845302
  H     -0.261787   -2.611781    0.590083
  H     -1.043512   -1.479657    1.688458
  C     -1.556766   -1.809362   -1.748596
  H     -0.635191   -2.358787   -1.982799
  H     -2.390922   -2.515028   -1.699248
  H     -1.722805   -1.091963   -2.555424

----------------------------
CARTESIAN COORDINATES (A.U.)
----------------------------
  NO LB      ZA    FRAG     MASS         X           Y           Z
   0 O     8.0000    0    15.999   -0.690345   -0.259312   -0.974449
   1 C     6.0000    0    12.011   -2.502115   -2.102237   -0.810481
   2 C     6.0000    0    12.011   -5.564026   -0.126368   -0.263137
   3 C     6.0000    0    12.011   -3.992184    2.054512   -0.473127
   4 C     6.0000    0    12.011   -3.660640    3.347312   -2.942882
   5 Fe   26.0000    0    55.850    2.655878    0.091000    0.083435
   6 Cl   17.0000    0    35.453    3.587668    3.845719   -1.507709
   7 C     6.0000    0    12.011   -3.004249    3.382496    1.794182
   8 Cl   17.0000    0    35.453    4.696674   -3.207003   -1.416945
   9 Cl   17.0000    0    35.453    2.570570    0.157688    4.276322
  10 H     1.0000    0     1.008   -6.659247   -0.519945   -1.960631
  11 H     1.0000    0     1.008   -4.546025    4.602094    2.482666
  12 H     1.0000    0     1.008   -2.502152    2.096921    3.324899
  13 H     1.0000    0     1.008   -1.379389    4.567279    1.337792
  14 H     1.0000    0     1.008   -4.943452    4.988263   -2.920281
  15 H     1.0000    0     1.008   -1.731137    4.049736   -3.163099
  16 H     1.0000    0     1.008   -4.187457    2.156168   -4.541416
  17 C     6.0000    0    12.011   -6.928101   -0.765071    2.168567
  18 H     1.0000    0     1.008   -8.558708    0.487527    2.437031
  19 H     1.0000    0     1.008   -7.645917   -2.701987    2.101884
  20 H     1.0000    0     1.008   -5.723967   -0.594466    3.835645
  21 C     6.0000    0    12.011   -2.229478   -3.838100    1.430799
  22 H     1.0000    0     1.008   -3.809420   -5.156636    1.597389
  23 H     1.0000    0     1.008   -0.494706   -4.935551    1.115095
  24 H     1.0000    0     1.008   -1.971952   -2.796147    3.190723
  25 C     6.0000    0    12.011   -2.941861   -3.419199   -3.304368
  26 H     1.0000    0     1.008   -1.200337   -4.457461   -3.746947
  27 H     1.0000    0     1.008   -4.518188   -4.752714   -3.211113
  28 H     1.0000    0     1.008   -3.255630   -2.063511   -4.829052



           ************************************************************
           *        Program running with 10 parallel MPI-processes    *
           *              working on a common directory               *
           ************************************************************


           ************************************************************
           *        Program running with 10 parallel MPI-processes    *
           *              working on a common directory               *
           ************************************************************

Diagonalization of the overlap matrix:
Smallest eigenvalue                        ... 6.672e-07
Time for diagonalization                   ...    0.329 sec
Threshold for overlap eigenvalues          ... 1.000e-08
Number of eigenvalues below threshold      ... 0
Time for construction of square roots      ...    0.276 sec
Total time needed                          ...    0.609 sec

-------------------
DFT GRID GENERATION
-------------------

General Integration Accuracy     IntAcc      ...  4.340
Radial Grid Type                 RadialGrid  ... Gauss-Chebyshev
Angular Grid (max. acc.)         AngularGrid ... Lebedev-110
Angular grid pruning method      GridPruning ... 3 (G Style)
Weight generation scheme         WeightScheme... Becke
Basis function cutoff            BFCut       ...    1.0000e-11
Integration weight cutoff        WCut        ...    1.0000e-14
Grids for H and He will be reduced by one unit

# of grid points (after initial pruning)     ...  36112 (   0.0 sec)
# of grid points (after weights+screening)   ...  32288 (   0.1 sec)
nearest neighbour list constructed           ...    0.0 sec
Grid point re-assignment to atoms done       ...    0.0 sec
Grid point division into batches done        ...    0.0 sec
Reduced shell lists constructed in    0.2 sec

Total number of grid points                  ...    32288
Total number of batches                      ...      520
Average number of points per batch           ...       62
Average number of grid points per atom       ...     1113
Average number of shells per batch           ...   294.49 (85.86%)
Average number of basis functions per batch  ...   876.87 (85.55%)
Average number of large shells per batch     ...   244.42 (83.00%)
Average number of large basis fcns per batch ...   726.98 (82.91%)
Maximum spatial batch extension              ...   2.55,  3.29,  3.20 au
Average spatial batch extension              ...   0.17,  0.18,  0.16 au

Time for grid setup =    0.349 sec

Loading Hartree-Fock densities                     ... done
Calculating cut-offs                               ... done
Setting up the integral package                    ... done
Initializing the effective Hamiltonian             ... done
Starting the Coulomb interaction                   ... done (   1.1 sec)
Reading the grid                                   ... done
Mapping shells                                     ... done
Starting the XC term evaluation                    ... done (   0.8 sec)
Transforming the Hamiltonian                       ... done (   0.2 sec)
Diagonalizing the Hamiltonian                      ... done (   0.3 sec)
Back transforming the eigenvectors                 ... done (   0.1 sec)
Now organizing SCF variables                       ... done
--------------
SCF ITERATIONS
--------------
ITER       Energy         Delta-E        Max-DP      RMS-DP      [F,P]     Damp
               ***  Starting incremental Fock matrix formation  ***
  0  -3027.5608297856   0.000000000000 0.32066429  0.00131264  0.2774662 0.7000
  1  -3027.8091767544  -0.248346968780 0.22835982  0.00100396  0.1650607 0.7000
                               ***Turning on DIIS***
  2  -3027.9764776260  -0.167300871568 0.16053951  0.00072879  0.1092781 0.7000
  3  -3029.6760031306  -1.699525504635 0.37118004  0.00179282  0.0820214 0.0000
  4  -3028.2858857763   1.390117354357 0.04617516  0.00023846  0.0184664 0.0000
  5  -3028.4108795168  -0.124993740537 0.03909712  0.00017481  0.0117566 0.0000
  6  -3028.4311411498  -0.020261633053 0.01976505  0.00006853  0.0054527 0.0000
  7  -3028.4452315542  -0.014090404404 0.00879947  0.00003082  0.0032559 0.0000
  8  -3028.4437066789   0.001524875357 0.00575605  0.00001798  0.0013570 0.0000
  9  -3028.4327356957   0.010970983220 0.00224371  0.00001025  0.0007036 0.0000
 10  -3028.4222430838   0.010492611885 0.00096515  0.00000340  0.0004409 0.0000
 11  -3028.4287732437  -0.006530159922 0.00028475  0.00000188  0.0000784 0.0000
 12  -3028.4262768296   0.002496414156 0.00072221  0.00000160  0.0000278 0.0000
 13  -3028.4262551477   0.000021681842 0.00095091  0.00000246  0.0000119 0.0000
 14  -3028.4262290192   0.000026128483 0.00148766  0.00000301  0.0000058 0.0000
 15  -3028.4261781467   0.000050872542 0.00098683  0.00000240  0.0000033 0.0000
 16  -3028.4261978284  -0.000019681724 0.00160933  0.00000305  0.0000023 0.0000
 17  -3028.4262168112  -0.000018982747 0.00101653  0.00000250  0.0000013 0.0000
                            ***DIIS convergence achieved***

               *****************************************************
               *                     SUCCESS                       *
               *           SCF CONVERGED AFTER  18 CYCLES          *
               *****************************************************

Total Energy       :        -3028.42619929 Eh          -82407.66641 eV
  Last Energy change         ...    1.7519e-05  Tolerance :   1.0000e-08
  Last MAX-Density change    ...    1.8386e-03  Tolerance :   1.0000e-07
             **** THE GBW FILE WAS UPDATED (simple-grid-195-215-b3lyp_d3bj-631gd-gas-singlepoint-DLPNO_CCSD_T1-NormalPNO-augtz-gas.gbw) ****
             **** DENSITY FILE WAS UPDATED (simple-grid-195-215-b3lyp_d3bj-631gd-gas-singlepoint-DLPNO_CCSD_T1-NormalPNO-augtz-gas.scfp.tmp) ****
             **** ENERGY FILE WAS UPDATED (simple-grid-195-215-b3lyp_d3bj-631gd-gas-singlepoint-DLPNO_CCSD_T1-NormalPNO-augtz-gas.en.tmp) ****
----------------------
UHF SPIN CONTAMINATION
----------------------

Expectation value of <S**2>     :     8.764521
Ideal value S*(S+1) for S=2.5   :     8.750000
Deviation                       :     0.014521

----------------
ORBITAL ENERGIES
----------------
                 SPIN UP ORBITALS
  NO   OCC          E(Eh)            E(eV) 
   0   1.0000    -261.550385     -7117.1478 
   1   1.0000    -104.776758     -2851.1205 
   2   1.0000    -104.775749     -2851.0931 
   3   1.0000    -104.774819     -2851.0678 
   4   1.0000     -32.218280      -876.7040 
   5   1.0000     -27.694184      -753.5971 
   6   1.0000     -27.694005      -753.5922 
   7   1.0000     -27.693735      -753.5848 
   8   1.0000     -20.553321      -559.2843 
   9   1.0000     -11.383115      -309.7503 
  10   1.0000     -11.377894      -309.6082 
  11   1.0000     -11.279525      -306.9315 
  12   1.0000     -11.273043      -306.7551 
  13   1.0000     -11.269462      -306.6576 
  14   1.0000     -11.260973      -306.4266 
  15   1.0000     -11.250700      -306.1471 
  16   1.0000     -11.246525      -306.0335 
  17   1.0000     -10.503261      -285.8083 
  18   1.0000     -10.502336      -285.7831 
  19   1.0000     -10.501358      -285.7565 
  20   1.0000      -7.970079      -216.8769 
  21   1.0000      -7.969351      -216.8571 
  22   1.0000      -7.969267      -216.8548 
  23   1.0000      -7.969228      -216.8537 
  24   1.0000      -7.968383      -216.8307 
  25   1.0000      -7.968331      -216.8293 
  26   1.0000      -7.968172      -216.8250 
  27   1.0000      -7.967466      -216.8058 
  28   1.0000      -7.967385      -216.8036 
  29   1.0000      -4.573744      -124.4579 
  30   1.0000      -3.186341       -86.7048 
  31   1.0000      -3.185878       -86.6921 
  32   1.0000      -3.185273       -86.6757 
  33   1.0000      -1.383684       -37.6520 
  34   1.0000      -1.173557       -31.9341 
  35   1.0000      -1.085972       -29.5508 
  36   1.0000      -1.048232       -28.5238 
  37   1.0000      -1.042452       -28.3666 
  38   1.0000      -1.041269       -28.3344 
  39   1.0000      -1.040617       -28.3166 
  40   1.0000      -1.006055       -27.3762 
  41   1.0000      -0.979663       -26.6580 
  42   1.0000      -0.932025       -25.3617 
  43   1.0000      -0.911561       -24.8048 
  44   1.0000      -0.903388       -24.5824 
  45   1.0000      -0.903236       -24.5783 
  46   1.0000      -0.894830       -24.3496 
  47   1.0000      -0.894299       -24.3351 
  48   1.0000      -0.785021       -21.3615 
  49   1.0000      -0.763128       -20.7658 
  50   1.0000      -0.696416       -18.9504 
  51   1.0000      -0.692799       -18.8520 
  52   1.0000      -0.673227       -18.3194 
  53   1.0000      -0.648548       -17.6479 
  54   1.0000      -0.640093       -17.4178 
  55   1.0000      -0.625358       -17.0168 
  56   1.0000      -0.599645       -16.3172 
  57   1.0000      -0.592809       -16.1312 
  58   1.0000      -0.589928       -16.0527 
  59   1.0000      -0.584146       -15.8954 
  60   1.0000      -0.573806       -15.6140 
  61   1.0000      -0.563013       -15.3204 
  62   1.0000      -0.555026       -15.1030 
  63   1.0000      -0.545387       -14.8407 
  64   1.0000      -0.536435       -14.5971 
  65   1.0000      -0.532344       -14.4858 
  66   1.0000      -0.508922       -13.8485 
  67   1.0000      -0.479726       -13.0540 
  68   1.0000      -0.463547       -12.6138 
  69   1.0000      -0.451603       -12.2887 
  70   1.0000      -0.431141       -11.7319 
  71   1.0000      -0.426591       -11.6081 
  72   1.0000      -0.423534       -11.5249 
  73   1.0000      -0.417256       -11.3541 
  74   1.0000      -0.414767       -11.2864 
  75   1.0000      -0.413698       -11.2573 
  76   1.0000      -0.385339       -10.4856 
  77   0.0000       0.008732         0.2376 
  78   0.0000       0.019887         0.5412 
  79   0.0000       0.022193         0.6039 
  80   0.0000       0.030502         0.8300 
  81   0.0000       0.036533         0.9941 
  82   0.0000       0.037938         1.0323 
  83   0.0000       0.041671         1.1339 
  84   0.0000       0.043819         1.1924 
  85   0.0000       0.044662         1.2153 
  86   0.0000       0.047227         1.2851 
  87   0.0000       0.056335         1.5329 
  88   0.0000       0.060613         1.6494 
  89   0.0000       0.061343         1.6692 
  90   0.0000       0.064695         1.7605 
  91   0.0000       0.066704         1.8151 
  92   0.0000       0.071308         1.9404 
  93   0.0000       0.073208         1.9921 
  94   0.0000       0.081204         2.2097 
  95   0.0000       0.088452         2.4069 
  96   0.0000       0.089576         2.4375 
  97   0.0000       0.091398         2.4871 
  98   0.0000       0.094279         2.5655 
  99   0.0000       0.100231         2.7274 
 100   0.0000       0.102584         2.7915 
 101   0.0000       0.110624         3.0102 
 102   0.0000       0.115349         3.1388 
 103   0.0000       0.119034         3.2391 
 104   0.0000       0.122409         3.3309 
 105   0.0000       0.124047         3.3755 
 106   0.0000       0.128059         3.4847 
 107   0.0000       0.129478         3.5233 
 108   0.0000       0.131059         3.5663 
 109   0.0000       0.132446         3.6040 
 110   0.0000       0.136482         3.7139 
 111   0.0000       0.138313         3.7637 
 112   0.0000       0.145262         3.9528 
 113   0.0000       0.148590         4.0433 
 114   0.0000       0.150308         4.0901 
 115   0.0000       0.153344         4.1727 
 116   0.0000       0.157726         4.2919 
 117   0.0000       0.161520         4.3952 
 118   0.0000       0.163302         4.4437 
 119   0.0000       0.166060         4.5187 
 120   0.0000       0.170569         4.6414 
 121   0.0000       0.175318         4.7707 
 122   0.0000       0.177511         4.8303 
 123   0.0000       0.179819         4.8931 
 124   0.0000       0.183585         4.9956 
 125   0.0000       0.187680         5.1070 
 126   0.0000       0.192509         5.2384 
 127   0.0000       0.194759         5.2997 
 128   0.0000       0.196475         5.3464 
 129   0.0000       0.198299         5.3960 
 130   0.0000       0.201744         5.4897 
 131   0.0000       0.207191         5.6380 
 132   0.0000       0.207916         5.6577 
 133   0.0000       0.209923         5.7123 
 134   0.0000       0.214694         5.8421 
 135   0.0000       0.216432         5.8894 
 136   0.0000       0.220395         5.9973 
 137   0.0000       0.222833         6.0636 
 138   0.0000       0.229356         6.2411 
 139   0.0000       0.232443         6.3251 
 140   0.0000       0.238294         6.4843 
 141   0.0000       0.239445         6.5156 
 142   0.0000       0.241445         6.5700 
 143   0.0000       0.241680         6.5765 
 144   0.0000       0.247126         6.7246 
 145   0.0000       0.252332         6.8663 
 146   0.0000       0.253466         6.8972 
 147   0.0000       0.256324         6.9749 
 148   0.0000       0.257502         7.0070 
 149   0.0000       0.260353         7.0846 
 150   0.0000       0.267105         7.2683 
 151   0.0000       0.275543         7.4979 
 152   0.0000       0.277515         7.5516 
 153   0.0000       0.282242         7.6802 
 154   0.0000       0.284909         7.7528 
 155   0.0000       0.286060         7.7841 
 156   0.0000       0.292181         7.9507 
 157   0.0000       0.296116         8.0577 
 158   0.0000       0.299401         8.1471 
 159   0.0000       0.304133         8.2759 
 160   0.0000       0.306811         8.3488 
 161   0.0000       0.309227         8.4145 
 162   0.0000       0.313584         8.5331 
 163   0.0000       0.318938         8.6788 
 164   0.0000       0.324743         8.8367 
 165   0.0000       0.327155         8.9023 
 166   0.0000       0.331189         9.0121 
 167   0.0000       0.339303         9.2329 
 168   0.0000       0.341216         9.2850 
 169   0.0000       0.347793         9.4639 
 170   0.0000       0.349920         9.5218 
 171   0.0000       0.354570         9.6483 
 172   0.0000       0.359644         9.7864 
 173   0.0000       0.362002         9.8506 
 174   0.0000       0.363942         9.9034 
 175   0.0000       0.365375         9.9424 
 176   0.0000       0.369385        10.0515 
 177   0.0000       0.372681        10.1412 
 178   0.0000       0.375986        10.2311 
 179   0.0000       0.380642        10.3578 
 180   0.0000       0.383778        10.4431 
 181   0.0000       0.384970        10.4756 
 182   0.0000       0.385324        10.4852 
 183   0.0000       0.388609        10.5746 
 184   0.0000       0.389717        10.6047 
 185   0.0000       0.396669        10.7939 
 186   0.0000       0.398832        10.8528 
 187   0.0000       0.400409        10.8957 
 188   0.0000       0.405539        11.0353 
 189   0.0000       0.408244        11.1089 
 190   0.0000       0.413554        11.2534 
 191   0.0000       0.417312        11.3556 
 192   0.0000       0.420421        11.4402 
 193   0.0000       0.423367        11.5204 
 194   0.0000       0.425972        11.5913 
 195   0.0000       0.431572        11.7437 
 196   0.0000       0.436422        11.8757 
 197   0.0000       0.443500        12.0683 
 198   0.0000       0.446862        12.1597 
 199   0.0000       0.448899        12.2152 
 200   0.0000       0.452112        12.3026 
 201   0.0000       0.458533        12.4773 
 202   0.0000       0.459988        12.5169 
 203   0.0000       0.464292        12.6340 
 204   0.0000       0.465762        12.6740 
 205   0.0000       0.468143        12.7388 
 206   0.0000       0.471397        12.8274 
 207   0.0000       0.472347        12.8532 
 208   0.0000       0.475001        12.9254 
 209   0.0000       0.478769        13.0280 
 210   0.0000       0.483070        13.1450 
 211   0.0000       0.486522        13.2389 
 212   0.0000       0.491797        13.3825 
 213   0.0000       0.493189        13.4204 
 214   0.0000       0.497462        13.5366 
 215   0.0000       0.498366        13.5612 
 216   0.0000       0.501664        13.6510 
 217   0.0000       0.503948        13.7131 
 218   0.0000       0.508945        13.8491 
 219   0.0000       0.513451        13.9717 
 220   0.0000       0.515254        14.0208 
 221   0.0000       0.516570        14.0566 
 222   0.0000       0.519234        14.1291 
 223   0.0000       0.523835        14.2543 
 224   0.0000       0.527807        14.3624 
 225   0.0000       0.529938        14.4203 
 226   0.0000       0.533691        14.5225 
 227   0.0000       0.540889        14.7183 
 228   0.0000       0.541966        14.7476 
 229   0.0000       0.548629        14.9290 
 230   0.0000       0.550710        14.9856 
 231   0.0000       0.553766        15.0687 
 232   0.0000       0.558793        15.2055 
 233   0.0000       0.564139        15.3510 
 234   0.0000       0.570400        15.5214 
 235   0.0000       0.571145        15.5417 
 236   0.0000       0.575142        15.6504 
 237   0.0000       0.578001        15.7282 
 238   0.0000       0.579014        15.7558 
 239   0.0000       0.584859        15.9148 
 240   0.0000       0.585647        15.9363 
 241   0.0000       0.590593        16.0708 
 242   0.0000       0.598590        16.2885 
 243   0.0000       0.599789        16.3211 
 244   0.0000       0.605558        16.4781 
 245   0.0000       0.608275        16.5520 
 246   0.0000       0.612839        16.6762 
 247   0.0000       0.614000        16.7078 
 248   0.0000       0.620585        16.8870 
 249   0.0000       0.621814        16.9204 
 250   0.0000       0.625269        17.0144 
 251   0.0000       0.629523        17.1302 
 252   0.0000       0.631174        17.1751 
 253   0.0000       0.637206        17.3392 
 254   0.0000       0.638981        17.3876 
 255   0.0000       0.645278        17.5589 
 256   0.0000       0.648368        17.6430 
 257   0.0000       0.652257        17.7488 
 258   0.0000       0.656528        17.8650 
 259   0.0000       0.658683        17.9237 
 260   0.0000       0.664983        18.0951 
 261   0.0000       0.669178        18.2093 
 262   0.0000       0.673256        18.3202 
 263   0.0000       0.673789        18.3347 
 264   0.0000       0.678200        18.4548 
 265   0.0000       0.685233        18.6461 
 266   0.0000       0.687841        18.7171 
 267   0.0000       0.693948        18.8833 
 268   0.0000       0.697366        18.9763 
 269   0.0000       0.706108        19.2142 
 270   0.0000       0.709226        19.2990 
 271   0.0000       0.712019        19.3750 
 272   0.0000       0.714923        19.4540 
 273   0.0000       0.723689        19.6926 
 274   0.0000       0.726740        19.7756 
 275   0.0000       0.728339        19.8191 
 276   0.0000       0.734053        19.9746 
 277   0.0000       0.739836        20.1320 
 278   0.0000       0.743629        20.2352 
 279   0.0000       0.751053        20.4372 
 280   0.0000       0.758903        20.6508 
 281   0.0000       0.762126        20.7385 
 282   0.0000       0.765669        20.8349 
 283   0.0000       0.773697        21.0534 
 284   0.0000       0.778764        21.1912 
 285   0.0000       0.782899        21.3038 
 286   0.0000       0.784693        21.3526 
 287   0.0000       0.791545        21.5390 
 288   0.0000       0.798457        21.7271 
 289   0.0000       0.804124        21.8813 
 290   0.0000       0.808769        22.0077 
 291   0.0000       0.811310        22.0769 
 292   0.0000       0.820374        22.3235 
 293   0.0000       0.821508        22.3544 
 294   0.0000       0.834379        22.7046 
 295   0.0000       0.837458        22.7884 
 296   0.0000       0.840681        22.8761 
 297   0.0000       0.848641        23.0927 
 298   0.0000       0.858254        23.3543 
 299   0.0000       0.859461        23.3871 
 300   0.0000       0.860479        23.4148 
 301   0.0000       0.868448        23.6317 
 302   0.0000       0.873374        23.7657 
 303   0.0000       0.876944        23.8629 
 304   0.0000       0.879817        23.9410 
 305   0.0000       0.884468        24.0676 
 306   0.0000       0.886245        24.1159 
 307   0.0000       0.891864        24.2689 
 308   0.0000       0.897864        24.4321 
 309   0.0000       0.900286        24.4980 
 310   0.0000       0.907747        24.7011 
 311   0.0000       0.908522        24.7221 
 312   0.0000       0.918852        25.0032 
 313   0.0000       0.924297        25.1514 
 314   0.0000       0.927543        25.2397 
 315   0.0000       0.928204        25.2577 
 316   0.0000       0.932534        25.3755 
 317   0.0000       0.936606        25.4863 
 318   0.0000       0.940902        25.6032 
 319   0.0000       0.943571        25.6759 
 320   0.0000       0.950311        25.8593 
 321   0.0000       0.952617        25.9220 
 322   0.0000       0.957742        26.0615 
 323   0.0000       0.960445        26.1350 
 324   0.0000       0.964403        26.2427 
 325   0.0000       0.965764        26.2798 
 326   0.0000       0.971356        26.4319 
 327   0.0000       0.972960        26.4756 
 328   0.0000       0.977279        26.5931 
 329   0.0000       0.979488        26.6532 
 330   0.0000       0.981338        26.7036 
 331   0.0000       0.988247        26.8916 
 332   0.0000       0.989495        26.9255 
 333   0.0000       0.990736        26.9593 
 334   0.0000       0.995229        27.0816 
 335   0.0000       1.001530        27.2530 
 336   0.0000       1.007111        27.4049 
 337   0.0000       1.010232        27.4898 
 338   0.0000       1.017148        27.6780 
 339   0.0000       1.022232        27.8163 
 340   0.0000       1.024059        27.8660 
 341   0.0000       1.027801        27.9679 
 342   0.0000       1.030593        28.0439 
 343   0.0000       1.032941        28.1077 
 344   0.0000       1.038050        28.2468 
 345   0.0000       1.041432        28.3388 
 346   0.0000       1.042638        28.3716 
 347   0.0000       1.044780        28.4299 
 348   0.0000       1.050272        28.5793 
 349   0.0000       1.056004        28.7353 
 350   0.0000       1.057785        28.7838 
 351   0.0000       1.062754        28.9190 
 352   0.0000       1.064844        28.9759 
 353   0.0000       1.064997        28.9800 
 354   0.0000       1.074468        29.2378 
 355   0.0000       1.074595        29.2412 
 356   0.0000       1.078791        29.3554 
 357   0.0000       1.081106        29.4184 
 358   0.0000       1.086902        29.5761 
 359   0.0000       1.092291        29.7228 
 360   0.0000       1.096321        29.8324 
 361   0.0000       1.103611        30.0308 
 362   0.0000       1.108106        30.1531 
 363   0.0000       1.109746        30.1977 
 364   0.0000       1.116916        30.3928 
 365   0.0000       1.123144        30.5623 
 366   0.0000       1.127653        30.6850 
 367   0.0000       1.129337        30.7308 
 368   0.0000       1.129876        30.7455 
 369   0.0000       1.138269        30.9739 
 370   0.0000       1.144557        31.1450 
 371   0.0000       1.145176        31.1618 
 372   0.0000       1.150004        31.2932 
 373   0.0000       1.155322        31.4379 
 374   0.0000       1.158164        31.5152 
 375   0.0000       1.164760        31.6947 
 376   0.0000       1.168912        31.8077 
 377   0.0000       1.170585        31.8532 
 378   0.0000       1.178986        32.0818 
 379   0.0000       1.181001        32.1367 
 380   0.0000       1.184951        32.2442 
 381   0.0000       1.187573        32.3155 
 382   0.0000       1.190489        32.3949 
 383   0.0000       1.200264        32.6608 
 384   0.0000       1.201889        32.7051 
 385   0.0000       1.206797        32.8386 
 386   0.0000       1.209586        32.9145 
 387   0.0000       1.213452        33.0197 
 388   0.0000       1.216988        33.1159 
 389   0.0000       1.221861        33.2485 
 390   0.0000       1.227229        33.3946 
 391   0.0000       1.235523        33.6203 
 392   0.0000       1.237858        33.6838 
 393   0.0000       1.242243        33.8031 
 394   0.0000       1.245225        33.8843 
 395   0.0000       1.250720        34.0338 
 396   0.0000       1.254361        34.1329 
 397   0.0000       1.257981        34.2314 
 398   0.0000       1.265769        34.4433 
 399   0.0000       1.272609        34.6295 
 400   0.0000       1.278181        34.7811 
 401   0.0000       1.287259        35.0281 
 402   0.0000       1.291586        35.1458 
 403   0.0000       1.296281        35.2736 
 404   0.0000       1.303699        35.4755 
 405   0.0000       1.305381        35.5212 
 406   0.0000       1.314531        35.7702 
 407   0.0000       1.317142        35.8413 
 408   0.0000       1.318684        35.8832 
 409   0.0000       1.323699        36.0197 
 410   0.0000       1.329668        36.1821 
 411   0.0000       1.341148        36.4945 
 412   0.0000       1.344252        36.5790 
 413   0.0000       1.349515        36.7222 
 414   0.0000       1.350303        36.7436 
 415   0.0000       1.355052        36.8728 
 416   0.0000       1.371822        37.3292 
 417   0.0000       1.372992        37.3610 
 418   0.0000       1.377322        37.4788 
 419   0.0000       1.380856        37.5750 
 420   0.0000       1.389742        37.8168 
 421   0.0000       1.394028        37.9334 
 422   0.0000       1.403180        38.1825 
 423   0.0000       1.407232        38.2927 
 424   0.0000       1.409836        38.3636 
 425   0.0000       1.419820        38.6353 
 426   0.0000       1.423536        38.7364 
 427   0.0000       1.425639        38.7936 
 428   0.0000       1.434556        39.0363 
 429   0.0000       1.439908        39.1819 
 430   0.0000       1.444094        39.2958 
 431   0.0000       1.448581        39.4179 
 432   0.0000       1.452001        39.5110 
 433   0.0000       1.456258        39.6268 
 434   0.0000       1.462718        39.8026 
 435   0.0000       1.469364        39.9834 
 436   0.0000       1.476121        40.1673 
 437   0.0000       1.481778        40.3212 
 438   0.0000       1.483936        40.3800 
 439   0.0000       1.489062        40.5194 
 440   0.0000       1.494953        40.6797 
 441   0.0000       1.497867        40.7590 
 442   0.0000       1.503052        40.9001 
 443   0.0000       1.506521        40.9945 
 444   0.0000       1.514077        41.2001 
 445   0.0000       1.516608        41.2690 
 446   0.0000       1.520038        41.3623 
 447   0.0000       1.529514        41.6202 
 448   0.0000       1.532467        41.7006 
 449   0.0000       1.539426        41.8899 
 450   0.0000       1.546514        42.0828 
 451   0.0000       1.551505        42.2186 
 452   0.0000       1.556162        42.3453 
 453   0.0000       1.564083        42.5609 
 454   0.0000       1.565673        42.6041 
 455   0.0000       1.569667        42.7128 
 456   0.0000       1.570008        42.7221 
 457   0.0000       1.573985        42.8303 
 458   0.0000       1.582401        43.0593 
 459   0.0000       1.586004        43.1574 
 460   0.0000       1.586340        43.1665 
 461   0.0000       1.596255        43.4363 
 462   0.0000       1.598654        43.5016 
 463   0.0000       1.610879        43.8342 
 464   0.0000       1.614847        43.9422 
 465   0.0000       1.620773        44.1035 
 466   0.0000       1.626527        44.2600 
 467   0.0000       1.635191        44.4958 
 468   0.0000       1.643297        44.7164 
 469   0.0000       1.644616        44.7523 
 470   0.0000       1.649614        44.8883 
 471   0.0000       1.654367        45.0176 
 472   0.0000       1.663070        45.2544 
 473   0.0000       1.669896        45.4402 
 474   0.0000       1.671811        45.4923 
 475   0.0000       1.679592        45.7040 
 476   0.0000       1.687185        45.9106 
 477   0.0000       1.689629        45.9771 
 478   0.0000       1.694786        46.1175 
 479   0.0000       1.698708        46.2242 
 480   0.0000       1.706896        46.4470 
 481   0.0000       1.708344        46.4864 
 482   0.0000       1.718444        46.7612 
 483   0.0000       1.719470        46.7892 
 484   0.0000       1.726198        46.9722 
 485   0.0000       1.731929        47.1282 
 486   0.0000       1.734871        47.2082 
 487   0.0000       1.738244        47.3000 
 488   0.0000       1.742586        47.4182 
 489   0.0000       1.748262        47.5726 
 490   0.0000       1.749290        47.6006 
 491   0.0000       1.759269        47.8721 
 492   0.0000       1.764537        48.0155 
 493   0.0000       1.772482        48.2317 
 494   0.0000       1.775782        48.3215 
 495   0.0000       1.781673        48.4818 
 496   0.0000       1.784354        48.5547 
 497   0.0000       1.787370        48.6368 
 498   0.0000       1.792989        48.7897 
 499   0.0000       1.796259        48.8787 
 500   0.0000       1.798172        48.9307 
 501   0.0000       1.811625        49.2968 
 502   0.0000       1.820418        49.5361 
 503   0.0000       1.825121        49.6641 
 504   0.0000       1.828324        49.7512 
 505   0.0000       1.830701        49.8159 
 506   0.0000       1.838091        50.0170 
 507   0.0000       1.845715        50.2245 
 508   0.0000       1.849330        50.3228 
 509   0.0000       1.855292        50.4851 
 510   0.0000       1.858081        50.5609 
 511   0.0000       1.863534        50.7093 
 512   0.0000       1.870458        50.8977 
 513   0.0000       1.875468        51.0341 
 514   0.0000       1.876251        51.0554 
 515   0.0000       1.879713        51.1496 
 516   0.0000       1.884391        51.2769 
 517   0.0000       1.893080        51.5133 
 518   0.0000       1.896465        51.6054 
 519   0.0000       1.899259        51.6815 
 520   0.0000       1.907676        51.9105 
 521   0.0000       1.911100        52.0037 
 522   0.0000       1.919288        52.2265 
 523   0.0000       1.925854        52.4051 
 524   0.0000       1.928602        52.4799 
 525   0.0000       1.931349        52.5547 
 526   0.0000       1.939879        52.7868 
 527   0.0000       1.941852        52.8405 
 528   0.0000       1.950865        53.0857 
 529   0.0000       1.957252        53.2595 
 530   0.0000       1.967092        53.5273 
 531   0.0000       1.973894        53.7124 
 532   0.0000       1.978334        53.8332 
 533   0.0000       1.983468        53.9729 
 534   0.0000       1.984676        54.0058 
 535   0.0000       1.989575        54.1391 
 536   0.0000       2.005199        54.5642 
 537   0.0000       2.009169        54.6723 
 538   0.0000       2.012754        54.7698 
 539   0.0000       2.021395        55.0049 
 540   0.0000       2.031474        55.2792 
 541   0.0000       2.033323        55.3295 
 542   0.0000       2.036587        55.4183 
 543   0.0000       2.041914        55.5633 
 544   0.0000       2.049396        55.7669 
 545   0.0000       2.065511        56.2054 
 546   0.0000       2.072103        56.3848 
 547   0.0000       2.079044        56.5737 
 548   0.0000       2.086678        56.7814 
 549   0.0000       2.089742        56.8648 
 550   0.0000       2.094175        56.9854 
 551   0.0000       2.099720        57.1363 
 552   0.0000       2.107765        57.3552 
 553   0.0000       2.111324        57.4521 
 554   0.0000       2.113588        57.5137 
 555   0.0000       2.125725        57.8439 
 556   0.0000       2.140597        58.2486 
 557   0.0000       2.144024        58.3419 
 558   0.0000       2.156050        58.6691 
 559   0.0000       2.159604        58.7658 
 560   0.0000       2.174043        59.1587 
 561   0.0000       2.174863        59.1810 
 562   0.0000       2.178858        59.2897 
 563   0.0000       2.187571        59.5268 
 564   0.0000       2.196184        59.7612 
 565   0.0000       2.201048        59.8936 
 566   0.0000       2.208053        60.0842 
 567   0.0000       2.222505        60.4774 
 568   0.0000       2.223730        60.5108 
 569   0.0000       2.231111        60.7116 
 570   0.0000       2.243373        61.0453 
 571   0.0000       2.245819        61.1118 
 572   0.0000       2.255136        61.3654 
 573   0.0000       2.261479        61.5380 
 574   0.0000       2.268384        61.7259 
 575   0.0000       2.271882        61.8211 
 576   0.0000       2.280645        62.0595 
 577   0.0000       2.286169        62.2098 
 578   0.0000       2.291819        62.3636 
 579   0.0000       2.292278        62.3761 
 580   0.0000       2.298555        62.5469 
 581   0.0000       2.311341        62.8948 
 582   0.0000       2.315855        63.0176 
 583   0.0000       2.320325        63.1392 
 584   0.0000       2.324096        63.2419 
 585   0.0000       2.341053        63.7033 
 586   0.0000       2.347569        63.8806 
 587   0.0000       2.353861        64.0518 
 588   0.0000       2.362626        64.2903 
 589   0.0000       2.370049        64.4923 
 590   0.0000       2.381798        64.8120 
 591   0.0000       2.391831        65.0850 
 592   0.0000       2.400247        65.3140 
 593   0.0000       2.400668        65.3255 
 594   0.0000       2.404608        65.4327 
 595   0.0000       2.410174        65.5842 
 596   0.0000       2.415371        65.7256 
 597   0.0000       2.437399        66.3250 
 598   0.0000       2.438846        66.3644 
 599   0.0000       2.445508        66.5457 
 600   0.0000       2.452951        66.7482 
 601   0.0000       2.465389        67.0867 
 602   0.0000       2.471743        67.2595 
 603   0.0000       2.486502        67.6612 
 604   0.0000       2.490636        67.7737 
 605   0.0000       2.499322        68.0100 
 606   0.0000       2.505526        68.1788 
 607   0.0000       2.511900        68.3523 
 608   0.0000       2.518950        68.5441 
 609   0.0000       2.536696        69.0270 
 610   0.0000       2.543929        69.2238 
 611   0.0000       2.556040        69.5534 
 612   0.0000       2.562749        69.7359 
 613   0.0000       2.586969        70.3950 
 614   0.0000       2.598693        70.7140 
 615   0.0000       2.617263        71.2194 
 616   0.0000       2.636386        71.7397 
 617   0.0000       2.640769        71.8590 
 618   0.0000       2.654977        72.2456 
 619   0.0000       2.660749        72.4027 
 620   0.0000       2.672019        72.7093 
 621   0.0000       2.683360        73.0179 
 622   0.0000       2.693293        73.2882 
 623   0.0000       2.697725        73.4088 
 624   0.0000       2.708955        73.7144 
 625   0.0000       2.714686        73.8704 
 626   0.0000       2.722355        74.0790 
 627   0.0000       2.730381        74.2974 
 628   0.0000       2.733883        74.3927 
 629   0.0000       2.739277        74.5395 
 630   0.0000       2.751926        74.8837 
 631   0.0000       2.774317        75.4930 
 632   0.0000       2.776283        75.5465 
 633   0.0000       2.784578        75.7722 
 634   0.0000       2.792782        75.9955 
 635   0.0000       2.797748        76.1306 
 636   0.0000       2.811146        76.4952 
 637   0.0000       2.834955        77.1431 
 638   0.0000       2.843232        77.3683 
 639   0.0000       2.851480        77.5927 
 640   0.0000       2.865578        77.9764 
 641   0.0000       2.886364        78.5420 
 642   0.0000       2.887031        78.5601 
 643   0.0000       2.906321        79.0850 
 644   0.0000       2.920596        79.4735 
 645   0.0000       2.924408        79.5772 
 646   0.0000       2.939661        79.9922 
 647   0.0000       2.951816        80.3230 
 648   0.0000       2.970611        80.8344 
 649   0.0000       2.972297        80.8803 
 650   0.0000       2.988676        81.3260 
 651   0.0000       3.010948        81.9321 
 652   0.0000       3.019229        82.1574 
 653   0.0000       3.042261        82.7841 
 654   0.0000       3.057507        83.1990 
 655   0.0000       3.067677        83.4757 
 656   0.0000       3.078708        83.7759 
 657   0.0000       3.099738        84.3481 
 658   0.0000       3.107800        84.5675 
 659   0.0000       3.128220        85.1232 
 660   0.0000       3.140923        85.4688 
 661   0.0000       3.162509        86.0563 
 662   0.0000       3.171213        86.2931 
 663   0.0000       3.177674        86.4689 
 664   0.0000       3.190854        86.8276 
 665   0.0000       3.202192        87.1361 
 666   0.0000       3.205408        87.2236 
 667   0.0000       3.222106        87.6780 
 668   0.0000       3.222332        87.6841 
 669   0.0000       3.235781        88.0501 
 670   0.0000       3.239093        88.1402 
 671   0.0000       3.252237        88.4979 
 672   0.0000       3.260407        88.7202 
 673   0.0000       3.273874        89.0866 
 674   0.0000       3.282923        89.3329 
 675   0.0000       3.302977        89.8786 
 676   0.0000       3.309619        90.0593 
 677   0.0000       3.314367        90.1885 
 678   0.0000       3.320142        90.3457 
 679   0.0000       3.330131        90.6175 
 680   0.0000       3.333071        90.6975 
 681   0.0000       3.338151        90.8357 
 682   0.0000       3.354271        91.2743 
 683   0.0000       3.363321        91.5206 
 684   0.0000       3.377232        91.8992 
 685   0.0000       3.380913        91.9993 
 686   0.0000       3.405696        92.6737 
 687   0.0000       3.411413        92.8293 
 688   0.0000       3.412527        92.8596 
 689   0.0000       3.421217        93.0960 
 690   0.0000       3.429653        93.3256 
 691   0.0000       3.435422        93.4826 
 692   0.0000       3.449645        93.8696 
 693   0.0000       3.461131        94.1822 
 694   0.0000       3.471260        94.4578 
 695   0.0000       3.476452        94.5991 
 696   0.0000       3.486917        94.8838 
 697   0.0000       3.489375        94.9507 
 698   0.0000       3.508590        95.4736 
 699   0.0000       3.514360        95.6306 
 700   0.0000       3.524391        95.9036 
 701   0.0000       3.529503        96.0426 
 702   0.0000       3.537280        96.2543 
 703   0.0000       3.545271        96.4717 
 704   0.0000       3.552606        96.6713 
 705   0.0000       3.571477        97.1848 
 706   0.0000       3.579002        97.3896 
 707   0.0000       3.592040        97.7444 
 708   0.0000       3.593592        97.7866 
 709   0.0000       3.597542        97.8941 
 710   0.0000       3.603371        98.0527 
 711   0.0000       3.614400        98.3528 
 712   0.0000       3.620693        98.5241 
 713   0.0000       3.626560        98.6837 
 714   0.0000       3.634770        98.9071 
 715   0.0000       3.650600        99.3379 
 716   0.0000       3.661813        99.6430 
 717   0.0000       3.664584        99.7184 
 718   0.0000       3.671001        99.8930 
 719   0.0000       3.680386       100.1484 
 720   0.0000       3.684528       100.2611 
 721   0.0000       3.695893       100.5704 
 722   0.0000       3.702271       100.7439 
 723   0.0000       3.715847       101.1133 
 724   0.0000       3.719599       101.2154 
 725   0.0000       3.724263       101.3423 
 726   0.0000       3.733933       101.6055 
 727   0.0000       3.742137       101.8287 
 728   0.0000       3.753354       102.1340 
 729   0.0000       3.763572       102.4120 
 730   0.0000       3.764037       102.4247 
 731   0.0000       3.774862       102.7192 
 732   0.0000       3.777411       102.7886 
 733   0.0000       3.784614       102.9846 
 734   0.0000       3.794716       103.2595 
 735   0.0000       3.797454       103.3340 
 736   0.0000       3.800101       103.4060 
 737   0.0000       3.814670       103.8025 
 738   0.0000       3.821235       103.9811 
 739   0.0000       3.829159       104.1967 
 740   0.0000       3.844530       104.6150 
 741   0.0000       3.848187       104.7145 
 742   0.0000       3.854622       104.8896 
 743   0.0000       3.861458       105.0756 
 744   0.0000       3.868278       105.2612 
 745   0.0000       3.874736       105.4369 
 746   0.0000       3.887597       105.7869 
 747   0.0000       3.890935       105.8777 
 748   0.0000       3.892557       105.9219 
 749   0.0000       3.899306       106.1055 
 750   0.0000       3.908985       106.3689 
 751   0.0000       3.914332       106.5144 
 752   0.0000       3.921525       106.7101 
 753   0.0000       3.925159       106.8090 
 754   0.0000       3.931243       106.9746 
 755   0.0000       3.937967       107.1575 
 756   0.0000       3.938502       107.1721 
 757   0.0000       3.950012       107.4853 
 758   0.0000       3.952430       107.5511 
 759   0.0000       3.959695       107.7488 
 760   0.0000       3.974530       108.1525 
 761   0.0000       3.982822       108.3781 
 762   0.0000       3.992808       108.6498 
 763   0.0000       3.996409       108.7478 
 764   0.0000       4.009290       109.0983 
 765   0.0000       4.012941       109.1977 
 766   0.0000       4.028313       109.6160 
 767   0.0000       4.038347       109.8890 
 768   0.0000       4.040538       109.9486 
 769   0.0000       4.049466       110.1916 
 770   0.0000       4.059978       110.4776 
 771   0.0000       4.066259       110.6485 
 772   0.0000       4.070995       110.7774 
 773   0.0000       4.076069       110.9155 
 774   0.0000       4.085568       111.1739 
 775   0.0000       4.092413       111.3602 
 776   0.0000       4.103984       111.6751 
 777   0.0000       4.110342       111.8481 
 778   0.0000       4.112288       111.9011 
 779   0.0000       4.125945       112.2727 
 780   0.0000       4.129420       112.3672 
 781   0.0000       4.135997       112.5462 
 782   0.0000       4.146896       112.8428 
 783   0.0000       4.149538       112.9147 
 784   0.0000       4.157706       113.1369 
 785   0.0000       4.173548       113.5680 
 786   0.0000       4.177103       113.6648 
 787   0.0000       4.189928       114.0137 
 788   0.0000       4.191710       114.0622 
 789   0.0000       4.208529       114.5199 
 790   0.0000       4.217793       114.7720 
 791   0.0000       4.220688       114.8507 
 792   0.0000       4.228207       115.0554 
 793   0.0000       4.232155       115.1628 
 794   0.0000       4.241400       115.4144 
 795   0.0000       4.253891       115.7543 
 796   0.0000       4.260300       115.9287 
 797   0.0000       4.267419       116.1224 
 798   0.0000       4.278499       116.4239 
 799   0.0000       4.281552       116.5069 
 800   0.0000       4.293763       116.8392 
 801   0.0000       4.304974       117.1443 
 802   0.0000       4.313451       117.3750 
 803   0.0000       4.319486       117.5392 
 804   0.0000       4.331029       117.8533 
 805   0.0000       4.336082       117.9908 
 806   0.0000       4.342489       118.1651 
 807   0.0000       4.353877       118.4750 
 808   0.0000       4.363483       118.7364 
 809   0.0000       4.369633       118.9038 
 810   0.0000       4.375246       119.0565 
 811   0.0000       4.386790       119.3706 
 812   0.0000       4.400401       119.7410 
 813   0.0000       4.405909       119.8909 
 814   0.0000       4.422669       120.3469 
 815   0.0000       4.429503       120.5329 
 816   0.0000       4.442130       120.8765 
 817   0.0000       4.445237       120.9610 
 818   0.0000       4.450300       121.0988 
 819   0.0000       4.464549       121.4866 
 820   0.0000       4.468679       121.5989 
 821   0.0000       4.474969       121.7701 
 822   0.0000       4.485577       122.0588 
 823   0.0000       4.494196       122.2933 
 824   0.0000       4.501519       122.4926 
 825   0.0000       4.513854       122.8282 
 826   0.0000       4.522020       123.0504 
 827   0.0000       4.529440       123.2523 
 828   0.0000       4.547233       123.7365 
 829   0.0000       4.569990       124.3557 
 830   0.0000       4.580132       124.6317 
 831   0.0000       4.583717       124.7293 
 832   0.0000       4.588876       124.8697 
 833   0.0000       4.602120       125.2301 
 834   0.0000       4.607504       125.3766 
 835   0.0000       4.618777       125.6833 
 836   0.0000       4.631498       126.0295 
 837   0.0000       4.639532       126.2481 
 838   0.0000       4.646986       126.4509 
 839   0.0000       4.660824       126.8275 
 840   0.0000       4.680621       127.3662 
 841   0.0000       4.689993       127.6212 
 842   0.0000       4.703447       127.9873 
 843   0.0000       4.710895       128.1900 
 844   0.0000       4.713656       128.2651 
 845   0.0000       4.742131       129.0399 
 846   0.0000       4.758696       129.4907 
 847   0.0000       4.766971       129.7159 
 848   0.0000       4.780664       130.0885 
 849   0.0000       4.789398       130.3261 
 850   0.0000       4.795638       130.4959 
 851   0.0000       4.814638       131.0130 
 852   0.0000       4.817996       131.1043 
 853   0.0000       4.823206       131.2461 
 854   0.0000       4.837782       131.6428 
 855   0.0000       4.854419       132.0955 
 856   0.0000       4.856972       132.1649 
 857   0.0000       4.878097       132.7398 
 858   0.0000       4.894642       133.1900 
 859   0.0000       4.910987       133.6348 
 860   0.0000       4.918023       133.8262 
 861   0.0000       4.926371       134.0534 
 862   0.0000       4.931014       134.1797 
 863   0.0000       4.944039       134.5341 
 864   0.0000       4.946382       134.5979 
 865   0.0000       4.954349       134.8147 
 866   0.0000       4.969286       135.2211 
 867   0.0000       4.976237       135.4103 
 868   0.0000       4.998649       136.0201 
 869   0.0000       5.011415       136.3675 
 870   0.0000       5.018514       136.5607 
 871   0.0000       5.022796       136.6772 
 872   0.0000       5.030467       136.8860 
 873   0.0000       5.045684       137.3001 
 874   0.0000       5.051970       137.4711 
 875   0.0000       5.063173       137.7759 
 876   0.0000       5.084770       138.3636 
 877   0.0000       5.095535       138.6566 
 878   0.0000       5.118888       139.2920 
 879   0.0000       5.130098       139.5971 
 880   0.0000       5.135276       139.7380 
 881   0.0000       5.139397       139.8501 
 882   0.0000       5.152916       140.2180 
 883   0.0000       5.177166       140.8778 
 884   0.0000       5.184950       141.0897 
 885   0.0000       5.191019       141.2548 
 886   0.0000       5.212839       141.8485 
 887   0.0000       5.225147       142.1835 
 888   0.0000       5.236165       142.4833 
 889   0.0000       5.243840       142.6921 
 890   0.0000       5.259288       143.1125 
 891   0.0000       5.266166       143.2997 
 892   0.0000       5.285405       143.8232 
 893   0.0000       5.297771       144.1597 
 894   0.0000       5.312626       144.5639 
 895   0.0000       5.321757       144.8124 
 896   0.0000       5.345146       145.4488 
 897   0.0000       5.353911       145.6873 
 898   0.0000       5.371591       146.1684 
 899   0.0000       5.380398       146.4081 
 900   0.0000       5.388224       146.6210 
 901   0.0000       5.392540       146.7385 
 902   0.0000       5.398583       146.9029 
 903   0.0000       5.412088       147.2704 
 904   0.0000       5.438600       147.9918 
 905   0.0000       5.440272       148.0373 
 906   0.0000       5.447688       148.2391 
 907   0.0000       5.460952       148.6001 
 908   0.0000       5.468143       148.7957 
 909   0.0000       5.486512       149.2956 
 910   0.0000       5.509596       149.9237 
 911   0.0000       5.525284       150.3506 
 912   0.0000       5.535061       150.6167 
 913   0.0000       5.540964       150.7773 
 914   0.0000       5.560275       151.3028 
 915   0.0000       5.570235       151.5738 
 916   0.0000       5.580761       151.8602 
 917   0.0000       5.592013       152.1664 
 918   0.0000       5.599931       152.3819 
 919   0.0000       5.607903       152.5988 
 920   0.0000       5.624412       153.0480 
 921   0.0000       5.642141       153.5304 
 922   0.0000       5.653097       153.8286 
 923   0.0000       5.657682       153.9534 
 924   0.0000       5.662561       154.0861 
 925   0.0000       5.670911       154.3133 
 926   0.0000       5.690260       154.8398 
 927   0.0000       5.695515       154.9829 
 928   0.0000       5.705331       155.2499 
 929   0.0000       5.714782       155.5071 
 930   0.0000       5.721006       155.6765 
 931   0.0000       5.739491       156.1795 
 932   0.0000       5.752164       156.5243 
 933   0.0000       5.755466       156.6142 
 934   0.0000       5.765287       156.8814 
 935   0.0000       5.775554       157.1608 
 936   0.0000       5.793612       157.6522 
 937   0.0000       5.823838       158.4747 
 938   0.0000       5.837093       158.8354 
 939   0.0000       5.854569       159.3109 
 940   0.0000       5.860312       159.4672 
 941   0.0000       5.882481       160.0704 
 942   0.0000       5.891519       160.3164 
 943   0.0000       5.898018       160.4932 
 944   0.0000       5.934147       161.4763 
 945   0.0000       5.981762       162.7720 
 946   0.0000       6.024435       163.9332 
 947   0.0000       6.057230       164.8256 
 948   0.0000       6.121561       166.5762 
 949   0.0000       6.142169       167.1369 
 950   0.0000       6.164333       167.7400 
 951   0.0000       6.168668       167.8580 
 952   0.0000       6.183666       168.2661 
 953   0.0000       6.189842       168.4342 
 954   0.0000       6.216732       169.1659 
 955   0.0000       6.228584       169.4884 
 956   0.0000       6.240239       169.8055 
 957   0.0000       6.242545       169.8683 
 958   0.0000       6.250144       170.0751 
 959   0.0000       6.267016       170.5342 
 960   0.0000       6.274388       170.7348 
 961   0.0000       6.329096       172.2235 
 962   0.0000       6.352313       172.8552 
 963   0.0000       6.370983       173.3633 
 964   0.0000       6.391083       173.9102 
 965   0.0000       6.402920       174.2323 
 966   0.0000       6.423398       174.7895 
 967   0.0000       6.451231       175.5469 
 968   0.0000       6.500588       176.8900 
 969   0.0000       6.527690       177.6275 
 970   0.0000       6.598271       179.5481 
 971   0.0000       6.702780       182.3919 
 972   0.0000       6.828222       185.8054 
 973   0.0000       6.877297       187.1408 
 974   0.0000       6.886767       187.3985 
 975   0.0000       6.909189       188.0086 
 976   0.0000       6.935697       188.7299 
 977   0.0000       6.957145       189.3135 
 978   0.0000       6.962353       189.4553 
 979   0.0000       6.986550       190.1137 
 980   0.0000       7.004830       190.6111 
 981   0.0000       7.021208       191.0568 
 982   0.0000       7.075342       192.5298 
 983   0.0000       7.121848       193.7953 
 984   0.0000       7.168965       195.0774 
 985   0.0000       7.233380       196.8303 
 986   0.0000       7.379810       200.8148 
 987   0.0000       7.452597       202.7955 
 988   0.0000       7.512225       204.4180 
 989   0.0000       7.558540       205.6783 
 990   0.0000       7.580620       206.2791 
 991   0.0000       7.588671       206.4982 
 992   0.0000       7.743555       210.7128 
 993   0.0000       7.785810       211.8627 
 994   0.0000       7.826802       212.9781 
 995   0.0000       7.902956       215.0504 
 996   0.0000       8.069532       219.5831 
 997   0.0000       8.166568       222.2236 
 998   0.0000       8.332582       226.7411 
 999   0.0000       9.436042       256.7678 
 1000   0.0000       9.455132       257.2872 
 1001   0.0000       9.471564       257.7344 
 1002   0.0000       9.483755       258.0661 
 1003   0.0000       9.490641       258.2535 
 1004   0.0000       9.526161       259.2200 
 1005   0.0000       9.763414       265.6760 
 1006   0.0000      10.097943       274.7790 
 1007   0.0000      10.136334       275.8237 
 1008   0.0000      10.149391       276.1790 
 1009   0.0000      10.222806       278.1767 
 1010   0.0000      10.226008       278.2638 
 1011   0.0000      10.264256       279.3046 
 1012   0.0000      10.399677       282.9896 
 1013   0.0000      10.441568       284.1295 
 1014   0.0000      10.565104       287.4911 
 1015   0.0000      17.308024       470.9753 
 1016   0.0000      17.956683       488.6262 
 1017   0.0000      18.422058       501.2897 
 1018   0.0000      18.799175       511.5516 
 1019   0.0000      18.907064       514.4874 
 1020   0.0000      19.140202       520.8314 
 1021   0.0000      20.084360       546.5232 
 1022   0.0000      20.245738       550.9145 
 1023   0.0000      21.225043       577.5628 
 1024   0.0000      21.900664       595.9474 

                 SPIN DOWN ORBITALS
  NO   OCC          E(Eh)            E(eV) 
   0   1.0000    -261.546837     -7117.0513 
   1   1.0000    -104.775431     -2851.0844 
   2   1.0000    -104.774373     -2851.0556 
   3   1.0000    -104.773390     -2851.0289 
   4   1.0000     -32.056276      -872.2956 
   5   1.0000     -27.534329      -749.2472 
   6   1.0000     -27.534167      -749.2428 
   7   1.0000     -27.533717      -749.2305 
   8   1.0000     -20.547756      -559.1329 
   9   1.0000     -11.383146      -309.7512 
  10   1.0000     -11.377880      -309.6079 
  11   1.0000     -11.279131      -306.9208 
  12   1.0000     -11.273024      -306.7546 
  13   1.0000     -11.269474      -306.6580 
  14   1.0000     -11.261009      -306.4276 
  15   1.0000     -11.250617      -306.1449 
  16   1.0000     -11.246487      -306.0325 
  17   1.0000     -10.501839      -285.7696 
  18   1.0000     -10.500857      -285.7428 
  19   1.0000     -10.499829      -285.7149 
  20   1.0000      -7.967804      -216.8150 
  21   1.0000      -7.967170      -216.7977 
  22   1.0000      -7.967083      -216.7954 
  23   1.0000      -7.966738      -216.7860 
  24   1.0000      -7.966203      -216.7714 
  25   1.0000      -7.966130      -216.7694 
  26   1.0000      -7.965789      -216.7601 
  27   1.0000      -7.965071      -216.7406 
  28   1.0000      -7.965002      -216.7387 
  29   1.0000      -4.131591      -112.4263 
  30   1.0000      -2.653396       -72.2026 
  31   1.0000      -2.653303       -72.2000 
  32   1.0000      -2.652701       -72.1837 
  33   1.0000      -1.369309       -37.2608 
  34   1.0000      -1.172244       -31.8984 
  35   1.0000      -1.083200       -29.4754 
  36   1.0000      -1.039680       -28.2911 
  37   1.0000      -1.033718       -28.1289 
  38   1.0000      -1.022699       -27.8291 
  39   1.0000      -1.021187       -27.7879 
  40   1.0000      -1.005691       -27.3662 
  41   1.0000      -0.979084       -26.6422 
  42   1.0000      -0.928158       -25.2565 
  43   1.0000      -0.794038       -21.6069 
  44   1.0000      -0.765738       -20.8368 
  45   1.0000      -0.696575       -18.9548 
  46   1.0000      -0.692171       -18.8349 
  47   1.0000      -0.674749       -18.3608 
  48   1.0000      -0.649511       -17.6741 
  49   1.0000      -0.638488       -17.3741 
  50   1.0000      -0.625460       -17.0196 
  51   1.0000      -0.598678       -16.2909 
  52   1.0000      -0.592844       -16.1321 
  53   1.0000      -0.589836       -16.0503 
  54   1.0000      -0.583007       -15.8644 
  55   1.0000      -0.573692       -15.6110 
  56   1.0000      -0.563070       -15.3219 
  57   1.0000      -0.554062       -15.0768 
  58   1.0000      -0.544588       -14.8190 
  59   1.0000      -0.534501       -14.5445 
  60   1.0000      -0.528082       -14.3699 
  61   1.0000      -0.503866       -13.7109 
  62   1.0000      -0.475848       -12.9485 
  63   1.0000      -0.467324       -12.7165 
  64   1.0000      -0.462172       -12.5763 
  65   1.0000      -0.437936       -11.9168 
  66   1.0000      -0.435114       -11.8400 
  67   1.0000      -0.433428       -11.7942 
  68   1.0000      -0.422950       -11.5091 
  69   1.0000      -0.412678       -11.2295 
  70   1.0000      -0.401006       -10.9119 
  71   1.0000      -0.383266       -10.4292 
  72   0.0000       0.008726         0.2375 
  73   0.0000       0.019793         0.5386 
  74   0.0000       0.022174         0.6034 
  75   0.0000       0.030540         0.8310 
  76   0.0000       0.035980         0.9791 
  77   0.0000       0.037829         1.0294 
  78   0.0000       0.041516         1.1297 
  79   0.0000       0.043692         1.1889 
  80   0.0000       0.044553         1.2123 
  81   0.0000       0.047003         1.2790 
  82   0.0000       0.056304         1.5321 
  83   0.0000       0.060613         1.6494 
  84   0.0000       0.061247         1.6666 
  85   0.0000       0.064625         1.7585 
  86   0.0000       0.066708         1.8152 
  87   0.0000       0.071224         1.9381 
  88   0.0000       0.073131         1.9900 
  89   0.0000       0.080977         2.2035 
  90   0.0000       0.088198         2.4000 
  91   0.0000       0.089425         2.4334 
  92   0.0000       0.091282         2.4839 
  93   0.0000       0.094196         2.5632 
  94   0.0000       0.100024         2.7218 
  95   0.0000       0.102557         2.7907 
  96   0.0000       0.109990         2.9930 
  97   0.0000       0.115239         3.1358 
  98   0.0000       0.118706         3.2302 
  99   0.0000       0.120900         3.2899 
 100   0.0000       0.122542         3.3345 
 101   0.0000       0.124648         3.3918 
 102   0.0000       0.124957         3.4003 
 103   0.0000       0.125950         3.4273 
 104   0.0000       0.129155         3.5145 
 105   0.0000       0.130317         3.5461 
 106   0.0000       0.131647         3.5823 
 107   0.0000       0.133943         3.6448 
 108   0.0000       0.136606         3.7172 
 109   0.0000       0.138150         3.7593 
 110   0.0000       0.138856         3.7785 
 111   0.0000       0.141726         3.8565 
 112   0.0000       0.148351         4.0368 
 113   0.0000       0.148946         4.0530 
 114   0.0000       0.152248         4.1429 
 115   0.0000       0.154176         4.1953 
 116   0.0000       0.158008         4.2996 
 117   0.0000       0.162843         4.4312 
 118   0.0000       0.163633         4.4527 
 119   0.0000       0.167115         4.5474 
 120   0.0000       0.171407         4.6642 
 121   0.0000       0.175645         4.7796 
 122   0.0000       0.178099         4.8463 
 123   0.0000       0.181154         4.9294 
 124   0.0000       0.186234         5.0677 
 125   0.0000       0.188388         5.1263 
 126   0.0000       0.194113         5.2821 
 127   0.0000       0.195382         5.3166 
 128   0.0000       0.198973         5.4143 
 129   0.0000       0.202114         5.4998 
 130   0.0000       0.205892         5.6026 
 131   0.0000       0.208509         5.6738 
 132   0.0000       0.209207         5.6928 
 133   0.0000       0.212331         5.7778 
 134   0.0000       0.217347         5.9143 
 135   0.0000       0.220991         6.0135 
 136   0.0000       0.225770         6.1435 
 137   0.0000       0.227364         6.1869 
 138   0.0000       0.235491         6.4080 
 139   0.0000       0.236121         6.4252 
 140   0.0000       0.239358         6.5133 
 141   0.0000       0.242968         6.6115 
 142   0.0000       0.243275         6.6199 
 143   0.0000       0.247199         6.7266 
 144   0.0000       0.249164         6.7801 
 145   0.0000       0.253599         6.9008 
 146   0.0000       0.257670         7.0116 
 147   0.0000       0.259305         7.0561 
 148   0.0000       0.260438         7.0869 
 149   0.0000       0.267164         7.2699 
 150   0.0000       0.269164         7.3243 
 151   0.0000       0.280950         7.6450 
 152   0.0000       0.283410         7.7120 
 153   0.0000       0.285846         7.7783 
 154   0.0000       0.287929         7.8349 
 155   0.0000       0.294270         8.0075 
 156   0.0000       0.300086         8.1658 
 157   0.0000       0.303429         8.2567 
 158   0.0000       0.306294         8.3347 
 159   0.0000       0.308452         8.3934 
 160   0.0000       0.312268         8.4972 
 161   0.0000       0.315846         8.5946 
 162   0.0000       0.316568         8.6143 
 163   0.0000       0.321917         8.7598 
 164   0.0000       0.328832         8.9480 
 165   0.0000       0.331069         9.0088 
 166   0.0000       0.337511         9.1841 
 167   0.0000       0.344716         9.3802 
 168   0.0000       0.344836         9.3835 
 169   0.0000       0.351028         9.5520 
 170   0.0000       0.352757         9.5990 
 171   0.0000       0.356599         9.7036 
 172   0.0000       0.361938         9.8488 
 173   0.0000       0.364335         9.9141 
 174   0.0000       0.366132         9.9630 
 175   0.0000       0.371525        10.1097 
 176   0.0000       0.372663        10.1407 
 177   0.0000       0.377008        10.2589 
 178   0.0000       0.380450        10.3526 
 179   0.0000       0.385253        10.4833 
 180   0.0000       0.386390        10.5142 
 181   0.0000       0.386920        10.5286 
 182   0.0000       0.389766        10.6061 
 183   0.0000       0.392635        10.6841 
 184   0.0000       0.396362        10.7856 
 185   0.0000       0.400764        10.9054 
 186   0.0000       0.403785        10.9876 
 187   0.0000       0.405526        11.0349 
 188   0.0000       0.410863        11.1802 
 189   0.0000       0.412222        11.2171 
 190   0.0000       0.417922        11.3722 
 191   0.0000       0.420461        11.4413 
 192   0.0000       0.424050        11.5390 
 193   0.0000       0.426454        11.6044 
 194   0.0000       0.427056        11.6208 
 195   0.0000       0.435684        11.8556 
 196   0.0000       0.440155        11.9772 
 197   0.0000       0.447256        12.1705 
 198   0.0000       0.450336        12.2543 
 199   0.0000       0.454363        12.3638 
 200   0.0000       0.459983        12.5168 
 201   0.0000       0.461945        12.5702 
 202   0.0000       0.465277        12.6608 
 203   0.0000       0.468297        12.7430 
 204   0.0000       0.469720        12.7817 
 205   0.0000       0.473315        12.8796 
 206   0.0000       0.474699        12.9172 
 207   0.0000       0.476734        12.9726 
 208   0.0000       0.480100        13.0642 
 209   0.0000       0.481546        13.1035 
 210   0.0000       0.486983        13.2515 
 211   0.0000       0.491427        13.3724 
 212   0.0000       0.493548        13.4301 
 213   0.0000       0.495406        13.4807 
 214   0.0000       0.500573        13.6213 
 215   0.0000       0.502868        13.6837 
 216   0.0000       0.504526        13.7289 
 217   0.0000       0.506752        13.7894 
 218   0.0000       0.514074        13.9887 
 219   0.0000       0.514837        14.0094 
 220   0.0000       0.516974        14.0676 
 221   0.0000       0.518123        14.0988 
 222   0.0000       0.523889        14.2558 
 223   0.0000       0.529594        14.4110 
 224   0.0000       0.531383        14.4597 
 225   0.0000       0.535897        14.5825 
 226   0.0000       0.538915        14.6646 
 227   0.0000       0.544243        14.8096 
 228   0.0000       0.546062        14.8591 
 229   0.0000       0.551132        14.9971 
 230   0.0000       0.553028        15.0487 
 231   0.0000       0.555097        15.1049 
 232   0.0000       0.562609        15.3094 
 233   0.0000       0.566718        15.4212 
 234   0.0000       0.572365        15.5748 
 235   0.0000       0.573548        15.6070 
 236   0.0000       0.576147        15.6778 
 237   0.0000       0.579984        15.7822 
 238   0.0000       0.581757        15.8304 
 239   0.0000       0.586469        15.9586 
 240   0.0000       0.588097        16.0029 
 241   0.0000       0.592096        16.1117 
 242   0.0000       0.601603        16.3704 
 243   0.0000       0.602995        16.4083 
 244   0.0000       0.607387        16.5278 
 245   0.0000       0.609673        16.5901 
 246   0.0000       0.615421        16.7465 
 247   0.0000       0.615746        16.7553 
 248   0.0000       0.622287        16.9333 
 249   0.0000       0.623379        16.9630 
 250   0.0000       0.626930        17.0596 
 251   0.0000       0.631080        17.1726 
 252   0.0000       0.634482        17.2651 
 253   0.0000       0.639753        17.4086 
 254   0.0000       0.642298        17.4778 
 255   0.0000       0.648121        17.6363 
 256   0.0000       0.650187        17.6925 
 257   0.0000       0.653690        17.7878 
 258   0.0000       0.657869        17.9015 
 259   0.0000       0.660784        17.9809 
 260   0.0000       0.667316        18.1586 
 261   0.0000       0.671431        18.2706 
 262   0.0000       0.675281        18.3753 
 263   0.0000       0.676767        18.4158 
 264   0.0000       0.682718        18.5777 
 265   0.0000       0.689497        18.7622 
 266   0.0000       0.691593        18.8192 
 267   0.0000       0.699402        19.0317 
 268   0.0000       0.700440        19.0599 
 269   0.0000       0.707405        19.2495 
 270   0.0000       0.712011        19.3748 
 271   0.0000       0.713837        19.4245 
 272   0.0000       0.719114        19.5681 
 273   0.0000       0.727563        19.7980 
 274   0.0000       0.732703        19.9379 
 275   0.0000       0.733821        19.9683 
 276   0.0000       0.737751        20.0752 
 277   0.0000       0.743113        20.2211 
 278   0.0000       0.746534        20.3142 
 279   0.0000       0.752950        20.4888 
 280   0.0000       0.763657        20.7802 
 281   0.0000       0.765497        20.8302 
 282   0.0000       0.769853        20.9488 
 283   0.0000       0.777174        21.1480 
 284   0.0000       0.783637        21.3239 
[...]
  | sigma^2 in % of trace(Dij) retained ...   8.36e+00
  | sigma^2 in % of trace(Dip) retained ...   1.47e+01
  | sigma^2 in % of trace(Dpq) retained ...   1.33e-01
  | Av. % of trace(Di) retained         ...  99.998487243520
  | Av. % of trace(Dp) retained         ...  99.999998393154
  | sigma^2 in % of trace(Di) retained  ...   8.24e-07
  | sigma^2 in % of trace(Dp) retained  ...   1.50e-12
 Distributions of % trace(Dij) recovered:
  |       >= 99.9  ...   105 ( 20.1 % of all IJ-pairs)
  |   [80.0, 90.0) ...    34 (  6.5 % of all IJ-pairs)
  |   [90.0, 99.0) ...   293 ( 56.0 % of all IJ-pairs)
  |   [99.0, 99.9) ...    91 ( 17.4 % of all IJ-pairs)
 Distributions of % trace(Dip) recovered:
  |   [70.0, 80.0) ...     1 (  0.9 % of all IP-pairs)
  |   [80.0, 90.0) ...     8 (  6.9 % of all IP-pairs)
  |   [90.0, 99.0) ...    63 ( 54.3 % of all IP-pairs)
  |   [99.0, 99.9) ...    44 ( 37.9 % of all IP-pairs)
 Distributions of % trace(Dpq) recovered:
  |       >= 99.9  ...     5 ( 33.3 % of all PQ-pairs)
  |   [99.0, 99.9) ...    10 ( 66.7 % of all PQ-pairs)
 Distributions of % trace(Di) recovered :
  |       >= 99.9  ...    43 (100.0 % of all I-pairs )
 Distributions of % trace(Dp) recovered :
  |       >= 99.9  ...     5 (100.0 % of all P-pairs )

                       ===========================
                       1144 OF 1729 PAIRS ARE KEPT
                       ===========================

 Initial PAO correlation energy (all pairs)    ...  -2.6936500060 Eh
 Energy constituents in PAO basis (Eh):
  | Vijab(+0) ...  -2.2631977266
  | Viab (-1) ...  -0.1758342652
  | Vab  (-2) ...  -0.0573607996
  | Va   (-1) ...  -0.0000421167
  | Vija (+1) ...  -0.0732315985
  | Vij  (+2) ...  -0.0155107472
  | Via  (+0) ...  -0.1083128647
  | Vi   (+1) ...  -0.0001598875
 Initial PNO correlation energy                ...  -2.6591486592 Eh
 Energy constituents in PNO basis (Eh):
  | Vijab(+0) ...  -2.2448950147 (err=  0.0183027119)
  | Viab (-1) ...  -0.1613237042 (err=  0.0145105610)
  | Vab  (-2) ...  -0.0568916990 (err=  0.0004691006)
  | Va   (-1) ...  -0.0000241825 (err=  0.0000179341)
  | Vija (+1) ...  -0.0722095683 (err=  0.0010220303)
  | Vij  (+2) ...  -0.0154551705 (err=  0.0000555767)
  | Via  (+0) ...  -0.1081899311 (err=  0.0001229337)
  | Vi   (+1) ...  -0.0001593890 (err=  0.0000004985)
 Sum of total truncation errors ...   0.0345013468 Eh
  | Pair screening ...   0.0112686966 Eh
  | PNO truncation ...   0.0232326502 Eh

 UMP2 correlation energy (PAO) ...  -2.6887495322
  | alpha-alpha ...  -0.3863915045 (NP_aa=  941)
  | alpha-beta  ...  -1.9954824859 (NP_ab= 1704)
  | beta -beta  ...  -0.3068755418 (NP_bb=  730)
 UMP2 correlation energy (PNO) ...  -2.6538851173
  | alpha-alpha ...  -0.3742958166 (err=  0.0120956880, NP_aa=  606)
  | alpha-beta  ...  -1.9766836077 (err=  0.0187988782, NP_ab= 1119)
  | beta -beta  ...  -0.3029056931 (err=  0.0039698487, NP_bb=  480)
 Sum of total UMP2 truncation errors ...   0.0348644149 Eh
  | Pair screening ...   0.0112786005 Eh
  | PNO truncation ...   0.0235858144 Eh
 Timing for NEV-PNO construction (sec.)
  | Intermediate construction  ..           58.804
  | Amplitude construction     ..           77.971
  | Total time                 ..          136.775
 Making pair pair interaction lists ...      ok
 Total size for 2-ext PNO integrals ...     11.0 MB
Checking the number of SOMO/SOMO doubles PNOs ... 
 #Truncate: (72, 72)[169] -> [84] .. 
 #Truncate: (73, 73)[172] -> [84] .. 
 #Truncate: (74, 74)[171] -> [84] .. 
 #Truncate: (75, 75)[170] -> [84] .. 
 #Truncate: (76, 76)[170] -> [84] .. 

--------------------------------
LOCAL RI TRANSFORMATION (VABPAO)
--------------------------------

Number of PAOs:    1030
Basis functions:   1025 (343 shells)
Aux. functions:    2424 (644 shells)

Processing maps (0.0 sec)
Average map sizes:
   Aux shells -> PAOs           1030.0
   PAOs       -> AO shells       343.0

Calculating integrals (197.4 sec, 37370.165 MB)
Finished
-----------------------------
LOCAL RI TRANSFORMATION (IJV)
-----------------------------

Orbital window:      29 to 76
Basis functions:   1025 (343 shells)
Aux. functions:    2424 (644 shells)

Processing maps (0.0 sec)
Average map sizes:
   Aux shells -> MOs(i)           46.4
   Aux shells -> MOs(j)           48.0
   MOs        -> AO shells       341.6

Calculating integrals (23.2 sec, 41.341 MB)
Sorting integrals (0.3 sec, 41.314 MB)
Total time for the integral transformation: 23.7 sec


-------------------------------------
Pair Pair Term precalculation with     
RI-(ij|mn) and (im|jn) transformation  
ON THE FLY                             
-------------------------------------

   IBatch   1 (of   2)              ... done ( 1046.000 sec)
   IBatch   2 (of   2)              ... done ( 1481.090 sec)
Total EXT                           ...        2527.089 sec

---------------------
RI-PNO TRANSFORMATION
---------------------

Total Number of PNOs                   ... 35220
Total Number of IJ-PNOs                ... 31057
Total Number of IP-PNOs                ...  3219
Total Number of PQ-PNOs                ...   944
Total Number of IJ-pairs               ...  1003
Total Number of PI-pairs               ...   116
Total Number of PQ-pairs               ...    25
Average number of PNOs per pair        ...    30
Maximal number of PNOs per pair        ...    84
>> Statistics for ij-pairs..
   #pairs with  1 -  5 PNOs   :    0
   #pairs with  6 - 10 PNOs   :    0
   #pairs with 11 - 15 PNOs   :   68
   #pairs with 16 - 20 PNOs   :  246
   #pairs with 21 - 25 PNOs   :  184
   #pairs with 26 - 30 PNOs   :  146
   #pairs with 31 - 35 PNOs   :   60
   #pairs with 36 - 40 PNOs   :   62
   #pairs with 41 - 45 PNOs   :   44
   #pairs with 46 - 50 PNOs   :   21
   #pairs with 51 - 55 PNOs   :   38
   #pairs with 56 - 60 PNOs   :   51
   #pairs with 61 - 65 PNOs   :   76
   #pairs with 66 - 70 PNOs   :    4
   #pairs with 71 - 75 PNOs   :    3
>> Statistics for ip-pairs..
   #pairs with  1 -  5 PNOs   :    0
   #pairs with  6 - 10 PNOs   :    1
   #pairs with 11 - 15 PNOs   :   12
   #pairs with 16 - 20 PNOs   :    7
   #pairs with 21 - 25 PNOs   :   24
   #pairs with 26 - 30 PNOs   :   11
   #pairs with 31 - 35 PNOs   :   49
   #pairs with 36 - 40 PNOs   :   12
   #pairs with 41 - 45 PNOs   :    0
   #pairs with 46 - 50 PNOs   :    0
>> Statistics for pq-pairs..
   #pairs with  1 -  5 PNOs   :    0
   #pairs with  6 - 10 PNOs   :    0
   #pairs with 11 - 15 PNOs   :    0
   #pairs with 16 - 20 PNOs   :    0
   #pairs with 21 - 25 PNOs   :   10
   #pairs with 26 - 30 PNOs   :   10
   #pairs with 31 - 35 PNOs   :    0
   #pairs with 36 - 40 PNOs   :    0
   #pairs with 41 - 45 PNOs   :    0
   #pairs with 46 - 50 PNOs   :    0
   #pairs with 81 - 85 PNOs   :    5

Generation of (ij|ab)[P] integrals            ... on
Generation of (ia|bc)[P],(ja|bc)[P] integrals ... on
Storage of 3 and 4 external integrals         ... on
Generation of ALL (ka|bc)[P] integrals        ... on
Keep RI integrals in memory                   ... off

Ibatch:  1 (of  1)
Starting 2-4 index PNO integral generation ... done

Timings:
Total PNO integral transformation time     ...       2322.471 sec
Size of the 3-external file                ...       286 MB
Size of the 4-external file                ...      1925 MB
Size of the IKJL file                      ...        19 MB
Size of the all 3-external file            ...      6874 MB
Size of the 1-external file                ...        22 MB

Size of the PAO/PNO coefficient matrices   ...     233.1 MB

Making pair/pair overlap matrices          ... done (  390.339 sec)
Size of the pair overlap file              ...    2513.0 MB
Total # unrestricted pairs ...       2205
  # of alpha-alpha pairs   ...        606
  # of alpha-beta pairs    ...       1119
  # of beta-beta pairs     ...        480
Constructing the guess amplitudes          ... done (    0.633 sec)

-------------------------
FINAL STARTUP INFORMATION
-------------------------

E(0)                                       ...  -3028.418190927
E(SL-UMP2 in NEV-PNO space)                ...     -2.689700112
Initial E(tot)                             ...  -3031.107891040
<T|T>                                      ...      0.535605907
Number of unrestricted pairs included      ... 2205
Total number of pairs                      ... 4095
----------------------------------------------------------
                     OPEN-SHELL COUPLED CLUSTER ITERATIONS
----------------------------------------------------------

Number of PNO amplitudes to be optimized        ...          2137699
Number of canonical amplitudes for strong pairs ...       1991595263
Untruncated number of canonical amplitudes      ...       3698645738

Iter       E(tot)           E(Corr)          Delta-E          Residual     Time
  0  -3031.115058647     -2.661052725      0.028647387      0.022624368 2265.94
                           *** Turning on DIIS ***
  1  -3031.227645350     -2.773639428     -0.112586702      0.009485403 2251.79
  2  -3031.292030689     -2.838024766     -0.064385339      0.008953548 2253.85
  3  -3031.313016644     -2.859010721     -0.020985955      0.003450434 2249.18
  4  -3031.320013743     -2.866007820     -0.006997099      0.002832567 2263.47
  5  -3031.323604826     -2.869598903     -0.003591083      0.002118258 2276.61
  6  -3031.324905719     -2.870899797     -0.001300894      0.000931719 2285.23
  7  -3031.325678297     -2.871672375     -0.000772578      0.000536902 2266.35
  8  -3031.325836146     -2.871830224     -0.000157849      0.000195730 2264.29
  9  -3031.325879926     -2.871874003     -0.000043780      0.000077587 2288.39
 10  -3031.325875293     -2.871869370      0.000004633      0.000062116 2219.30
 11  -3031.325884328     -2.871878405     -0.000009035      0.000032732 2050.25
 12  -3031.325889110     -2.871883188     -0.000004783      0.000018229 1920.52
 13  -3031.325891285     -2.871885362     -0.000002174      0.000010156 1918.53
 14  -3031.325891906     -2.871885983     -0.000000621      0.000006112 1916.16
               --- The CCSD iterations have converged ---

E(0)                                       ...  -3028.418190927
E(CORR)(strong-pairs)                      ...     -2.871885983
E(CORR)(weak-pairs)                        ...     -0.035814995
E(CORR)(corrected)                         ...     -2.907700978
E(TOT)                                     ...  -3031.325891906
Singles norm <S|S>**1/2                    ...      0.185841123 ( 0.061101622, 0.124739501)  
T1 diagnostic                              ...      0.019481443                              
<S**2>(linearized)                         ...      8.7507414 (ideal value:      8.7500000)

----------------------
LARGEST PNO AMPLITUDES
----------------------
  45a-> 78a  45b-> 78b       0.062225
  51b-> 76b  -1b-> -1b       0.058549
  45a-> 77a  45b-> 77b       0.052304
  49b-> 72b  -1b-> -1b       0.047108
  52b-> 76b  -1b-> -1b       0.045607
  30b-> 76b  -1b-> -1b       0.045354
  56a-> 77a  56b-> 77b       0.044927
  44a-> 78a  44b-> 78b       0.044806
  49b-> 74b  -1b-> -1b       0.044788
  67a-> 77a  67b-> 77b       0.043965
  49b-> 75b  -1b-> -1b       0.043469
  63a-> 77a  63b-> 77b       0.043181
  59a-> 77a  59b-> 77b       0.043065
  39b-> 73b  -1b-> -1b       0.042651
  71a-> 77a  71b-> 77b       0.042498
  65a-> 77a  65b-> 77b       0.042325

Total # unrestricted pairs ...       1170
  # of alpha-alpha pairs   ...        335
  # of alpha-beta pairs    ...        585
  # of beta-beta pairs     ...        250

-------------------------------------------
DLPNO BASED TRIPLES CORRECTION
-------------------------------------------

Singles multiplier          ...  1.000000
Fragment selection                          .... not used
TCutTNO                     ... 1.000e-09
TCutMP2Pairs                ... 1.000e-05
TCutDOStrong                ... 2.000e-02
TCutMKNStrong               ... 1.000e-02
TCutDOWeak                  ... 4.000e-02
TCutMKNWeak                 ... 1.000e-01
NTCutTNO                    ... 1

Number of Triples that are to be computed         ...     36240

 . . . . . . . . .
10% done  
20% done  
30% done  
40% done  
50% done  
60% done  
70% done  
80% done  
90% done  
          Batch   1   done (  17441.338 sec)

Triples-Correction TCutTNO=   1.000e-09 (NWeakPairs = 0  1  2  3)  -0.117442821592   -0.001788669101    0.000000000000    0.000000000000
Triples-Correction  -0.119231490693

Triples timings:
Total time                      ... 18143.602 sec

Triples List generation         ...     0.000 sec
TNO generation                  ...   702.019 sec
Pair density generation         ...     0.087 sec
Look up tables                  ...     0.119 sec
Generating 3-index integrals    ... 11065.096 sec
Make 4-ind.int. from 3-ind.int  ...     3.917 sec
Projecting amplitudes (D + S)   ...  6103.860 sec
Sorting integrals for spin cases...    55.668 sec
Calculate W0/W1                 ...   172.433 sec
Energy contr. (sum over a,b,c)  ...    40.204 sec

Everything after 3-index        ...  6517.359 sec

Energy contribution AAA         ...    25.749 sec
Energy contribution AAB         ...   118.507 sec
Energy contribution ABB         ...   109.272 sec
Energy contribution BBB         ...    14.831 sec
prep                ...     3.353 sec
makeTTNO            ...  6042.900 sec
copyij              ...     0.132 sec
copyil              ...     4.307 sec
transposeij         ...     0.081 sec
newMatInDoubleProj  ...    56.556 sec
BlasInDoubleProj    ...  3268.647 sec
ProjSingles         ...    50.412 sec
ProjDoubles         ...  6053.447 sec
overall Doubles for projection      ... 3325428
used Doubles for projection         ... 3325428


Number of Triples   (0, 1, 2, 3 weak pairs; overall):  17879   12176       0       0  ( 30055)
Number of Atoms     (0, 1, 2, 3 weak pairs; overall):   20.4    14.9     0.0     0.0  (    29)
Number of PAOs      (0, 1, 2, 3 weak pairs; overall):  783.5   599.2     0.0     0.0  (  1025)
Number of AuxFcns   (0, 1, 2, 3 weak pairs; overall):  974.6   574.0     0.0     0.0  (  2424)
Number of TNOs (0, 1, 2, 3 weak pairs         ):   78.4    55.8     0.0     0.0
Aver. Number of NTNO, Atoms, PAOs, AuxFcns / Triples:  30055    69.2    18.1   708.8   812.3

Triples Correction (T)                     ...     -0.119231491
    alpha-alpha-alpha ... -0.003912927 (  3.3%)
    alpha-alpha-beta  ... -0.055971721 ( 46.9%)
    alpha-beta -beta  ... -0.055215762 ( 46.3%)
    beta -beta -beta  ... -0.004131081 (  3.5%)
Final correlation energy                   ...     -3.026932469
E(CCSD)                                    ...  -3031.325891906
E(CCSD(T))                                 ...  -3031.445123396

----------------------------
STATISTICS FOR PAIR-ENERGIES
----------------------------
Minimum, maximum and average ratios of UMP and CCSD pair-energies ... 0.51, 1.43, 1.02


------------------------------------------------------------------------------- 
                                     TIMINGS                                   
------------------------------------------------------------------------------- 


Total execution time                   ...    59678.364 sec

Localization of occupied MO's          ...       11.132 sec (  0.0%)
Fock Matrix Formation                  ...     1510.893 sec (  2.5%)
Differential overlap integrals         ...        1.502 sec (  0.0%)
Organizing maps                        ...        1.731 sec (  0.0%)
RI 3-index integral generations        ...      284.352 sec (  0.5%)
RI-PNO integral transformation         ...     5264.760 sec (  8.8%)
Initial Guess                          ...     1894.171 sec (  3.2%)
DIIS Solver                            ...       16.019 sec (  0.0%)
State Vector Update                    ...        0.824 sec (  0.0%)
Sigma-vector construction              ...    32689.866 sec ( 54.8%)
  <0|H|D>                              ...        0.031 sec (  0.0% of sigma)
  <D|H|D>(0-ext)                       ...     5793.002 sec ( 17.7% of sigma)
  <D|H|D>(2-ext Fock)                  ...        1.755 sec (  0.0% of sigma)
  <D|H|D>(2-ext)                       ...     4627.796 sec ( 14.2% of sigma)
  <D|H|D>(4-ext)                       ...      178.708 sec (  0.5% of sigma)
  <D|H|D>(4-ext-corr)                  ...     1097.015 sec (  3.4% of sigma)
  CCSD doubles correction              ...      560.040 sec (  1.7% of sigma)
  <S|H|S>                              ...      816.486 sec (  2.5% of sigma)
  <S|H|D>(1-ext)                       ...      281.702 sec (  0.9% of sigma)
  <D|H|S>(1-ext)                       ...        0.929 sec (  0.0% of sigma)
  <S|H|D>(3-ext)                       ...       24.020 sec (  0.1% of sigma)
  CCSD singles correction              ...        0.004 sec (  0.0% of sigma)
  Fock-dressing                        ...     9944.869 sec ( 30.4% of sigma)
  Singles amplitudes                   ...      117.906 sec (  0.4% of sigma)
  (ik|jl)-dressing                     ...     7484.088 sec ( 22.9% of sigma)
  (ij|ab),(ia|jb)-dressing             ...     1623.678 sec (  5.0% of sigma)
  Pair energies                        ...        0.166 sec (  0.0% of sigma)
Total Time for computing (T)           ...    18352.024 sec ( 30.8% of ALL)


-------------------------   --------------------
FINAL SINGLE POINT ENERGY     -3031.445123396210
-------------------------   --------------------


                            ***************************************
                            *     ORCA property calculations      *
                            ***************************************

                                    ---------------------
                                    Active property flags
                                    ---------------------
   (+) Dipole Moment


------------------------------------------------------------------------------
                       ORCA ELECTRIC PROPERTIES CALCULATION
------------------------------------------------------------------------------

Dipole Moment Calculation                       ... on
Quadrupole Moment Calculation                   ... off
Polarizability Calculation                      ... off
GBWName                                         ... simple-grid-195-215-b3lyp_d3bj-631gd-gas-singlepoint-DLPNO_CCSD_T1-NormalPNO-augtz-gas.gbw
Electron density file                           ... simple-grid-195-215-b3lyp_d3bj-631gd-gas-singlepoint-DLPNO_CCSD_T1-NormalPNO-augtz-gas.scfp.tmp
The origin for moment calculation is the CENTER OF MASS  = ( 0.303975,  0.022319  0.017855)

-------------
DIPOLE MOMENT
-------------
                                X             Y             Z
Electronic contribution:     40.72377       3.47252       2.17577
Nuclear contribution   :    -45.29227      -3.32546      -2.66043
                        -----------------------------------------
Total Dipole Moment    :     -4.56850       0.14706      -0.48466
                        -----------------------------------------
Magnitude (a.u.)       :      4.59649
Magnitude (Debye)      :     11.68334



--------------------
Rotational spectrum 
--------------------
 
Rotational constants in cm-1:     0.019227     0.011658     0.010691 
Rotational constants in MHz :   576.415452   349.508960   320.500026 

 Dipole components along the rotational axes: 
x,y,z [a.u.] :     4.570194     0.118404    -0.476447 
x,y,z [Debye]:    11.616510     0.300958    -1.211031 

 

Timings for individual modules:

Sum of individual times         ...    76158.155 sec (=1269.303 min)
GTO integral calculation        ...       11.976 sec (=   0.200 min)   0.0 %
SCF iterations                  ...    16450.355 sec (= 274.173 min)  21.6 %
MDCI module                     ...    59695.825 sec (= 994.930 min)  78.4 %
                             ****ORCA TERMINATED NORMALLY****
TOTAL RUN TIME: 0 days 21 hours 9 minutes 20 seconds 603 msec
