
                                 *****************
                                 * O   R   C   A *
                                 *****************

           --- An Ab Initio, DFT and Semiempirical electronic structure package ---

                  #######################################################
                  #                        -***-                        #
                  #          Department of theory and spectroscopy      #
                  #               Directorship: Frank Neese             #
                  #        Max Planck Institute fuer Kohlenforschung    #
                  #                Kaiser Wilhelm Platz 1               #
                  #                 D-45470 Muelheim/Ruhr               #
                  #                      Germany                        #
                  #                                                     #
                  #                  All rights reserved                #
                  #                        -***-                        #
                  #######################################################


                         Program Version 4.1.2  - RELEASE  -


 With contributions from (in alphabetic order):
   Daniel Aravena         : Magnetic Properties
   Michael Atanasov       : Ab Initio Ligand Field Theory
   Alexander A. Auer      : GIAO ZORA
   Ute Becker             : Parallelization
   Giovanni Bistoni       : ED, Open-shell LED
   Martin Brehm           : Molecular dynamics
   Dmytro Bykov           : SCF Hessian
   Vijay G. Chilkuri      : MRCI spin determinant printing
   Dipayan Datta          : RHF DLPNO-CCSD density
   Achintya Kumar Dutta   : EOM-CC, STEOM-CC
   Dmitry Ganyushin       : Spin-Orbit,Spin-Spin,Magnetic field MRCI
   Miquel Garcia          : C-PCM Hessian
   Yang Guo               : DLPNO-NEVPT2, CIM, IAO-localization
   Andreas Hansen         : Spin unrestricted coupled pair/coupled cluster methods
   Benjamin Helmich-Paris : CASSCF linear response (MC-RPA)
   Lee Huntington         : MR-EOM, pCC
   Robert Izsak           : Overlap fitted RIJCOSX, COSX-SCS-MP3, EOM
   Christian Kollmar      : KDIIS, OOCD, Brueckner-CCSD(T), CCSD density
   Simone Kossmann        : Meta GGA functionals, TD-DFT gradient, OOMP2, MP2 Hessian
   Martin Krupicka        : AUTO-CI
   Lucas Lang             : DCDCAS
   Dagmar Lenk            : GEPOL surface, SMD
   Dimitrios Liakos       : Extrapolation schemes; parallel MDCI
   Dimitrios Manganas     : ROCIS; embedding schemes
   Dimitrios Pantazis     : SARC Basis sets
   Taras Petrenko         : DFT Hessian,TD-DFT gradient, ASA, ECA, R-Raman, ABS, FL, XAS/XES, NRVS
   Peter Pinski           : DLPNO-MP2, DLPNO-MP2 Gradient
   Christoph Reimann      : Effective Core Potentials
   Marius Retegan         : Local ZFS, SOC
   Christoph Riplinger    : Optimizer, TS searches, QM/MM, DLPNO-CCSD(T), (RO)-DLPNO pert. Triples
   Tobias Risthaus        : Range-separated hybrids, TD-DFT gradient, RPA, STAB
   Michael Roemelt        : Restricted open shell CIS
   Masaaki Saitow         : Open-shell DLPNO
   Barbara Sandhoefer     : DKH picture change effects
   Avijit Sen             : IP-ROCIS
   Kantharuban Sivalingam : CASSCF convergence, NEVPT2, FIC-MRCI
   Bernardo de Souza      : ESD, SOC TD-DFT
   Georgi Stoychev        : AutoAux, RI-MP2 NMR
   Willem Van den Heuvel  : Paramagnetic NMR
   Boris Wezisla          : Elementary symmetry handling
   Frank Wennmohs         : Technical directorship


 We gratefully acknowledge several colleagues who have allowed us to
 interface, adapt or use parts of their codes:
   Stefan Grimme, W. Hujo, H. Kruse,             : VdW corrections, initial TS optimization,
                  C. Bannwarth                     DFT functionals, gCP, sTDA/sTD-DF
   Ed Valeev                                     : LibInt (2-el integral package), F12 methods
   Garnet Chan, S. Sharma, J. Yang, R. Olivares  : DMRG
   Ulf Ekstrom                                   : XCFun DFT Library
   Mihaly Kallay                                 : mrcc  (arbitrary order and MRCC methods)
   Andreas Klamt, Michael Diedenhofen            : otool_cosmo (COSMO solvation model)
   Jiri Pittner, Ondrej Demel                    : Mk-CCSD
   Frank Weinhold                                : gennbo (NPA and NBO analysis)
   Christopher J. Cramer and Donald G. Truhlar   : smd solvation model
   Lars Goerigk                                  : TD-DFT with DH, B97 family of functionals
   V. Asgeirsson, H. Jonsson                     : NEB implementation
   FAccTs GmbH                                   : IRC, NEB, NEB-TS, Multilevel


 Your calculation uses the libint2 library for the computation of 2-el integrals
 For citations please refer to: http://libint.valeyev.net

 This ORCA versions uses:
   CBLAS   interface :  Fast vector & matrix operations
   LAPACKE interface :  Fast linear algebra routines
   SCALAPACK package :  Parallel linear algebra routines


----- Orbital basis set information -----
Your calculation utilizes the basis: aug-cc-pVTZ 
    H, B-Ne : Obtained from the ccRepo (grant-hill.group.shef.ac.uk/ccrepo) Feb. 2017
              R. A. Kendall, T. H. Dunning, Jr., R. J. Harrison, J. Chem. Phys. 96, 6796 (1992)
         He : Obtained from the ccRepo (grant-hill.group.shef.ac.uk/ccrepo) Feb. 2017
              D. E. Woon, T. H. Dunning, Jr., J. Chem. Phys. 100, 2975 (1994)
  Li-Be, Na : Obtained from the ccRepo (grant-hill.group.shef.ac.uk/ccrepo) Feb. 2017
              B. P. Prascher, D. E. Woon, K. A. Peterson, T. H. Dunning, Jr., A. K. Wilson, Theor. Chem. Acc. 128, 69 (2011)
         Mg : Obtained from the Peterson Research Group Website (tyr0.chem.wsu.edu/~kipeters) Feb. 2017
              B. P. Prascher, D. E. Woon, K. A. Peterson, T. H. Dunning, Jr., A. K. Wilson, Theor. Chem. Acc. 128, 69 (2011)
      Al-Ar : Obtained from the ccRepo (grant-hill.group.shef.ac.uk/ccrepo) Feb. 2017
              D. E. Woon, T. H. Dunning, Jr., J. Chem. Phys. 98, 1358 (1993)
      Sc-Zn : Obtained from the ccRepo (grant-hill.group.shef.ac.uk/ccrepo) Feb. 2017
              N. B. Balabanov, K. A. Peterson, J. Chem. Phys. 123, 064107 (2005)
              N. B. Balabanov, K. A. Peterson, J. Chem. Phys. 125, 074110 (2006)
      Ga-Kr : Obtained from the ccRepo (grant-hill.group.shef.ac.uk/ccrepo) Feb. 2017
              A. K. Wilson, D. E. Woon, K. A. Peterson, T. H. Dunning, Jr., J. Chem. Phys. 110, 7667 (1999)
     Ag, Au : Obtained from the Peterson Research Group Website (tyr0.chem.wsu.edu/~kipeters) Feb. 2017
              K. A. Peterson, C. Puzzarini, Theor. Chem. Acc. 114, 283 (2005)

----- AuxJ basis set information -----
Your calculation utilizes the AutoAux generation procedure.
  G. L. Stoychev, A. A. Auer, F. Neese, J. Chem. Theory Comput. 13, 554 (2017)

----- AuxC basis set information -----
Your calculation utilizes the auxiliary basis: aug-cc-pVTZ/C 
  H-He, B-F, Al-Ar, Ga-Kr : Obtained from the EMSL Basis Set Exchange (bse.pnl.gov) Feb. 2017
                            F. Weigend, A. Kohn, C. Hattig, J. Chem. Phys. 116, 3175 (2002)
                   Be, Mg : Obtained from the TURBOMOLE 7.0 basis set library
                            C. Haettig, Phys. Chem. Chem. Phys. 7, 59 (2005)
                       Ne : Obtained from the EMSL Basis Set Exchange (bse.pnl.gov) Feb. 2017
                            C. Haettig, Phys. Chem. Chem. Phys. 7, 59 (2005)
                            F. Weigend, A. Kohn, C. Hattig, J. Chem. Phys. 116, 3175 (2002)
                    Sc-Zn : Obtained from the EMSL Basis Set Exchange (bse.pnl.gov) Feb. 2017
                            J. G. Hill, J. A. Platts, J. Chem. Phys. 128, 044104 (2008)

----- AuxJK basis set information -----
Your calculation utilizes the AutoAux generation procedure.
  G. L. Stoychev, A. A. Auer, F. Neese, J. Chem. Theory Comput. 13, 554 (2017)

================================================================================
                                        WARNINGS
                       Please study these warnings very carefully!
================================================================================


WARNING: your system is open-shell and RHF/RKS was chosen
  ===> : WILL SWITCH to UHF/UKS


WARNING: MDCI localization with Augmented Hessian Foster-Boys
  ===> : Switching off randomization!

WARNING: Post HF methods need fully converged wavefunctions
  ===> : Setting SCFConvForced true
         You can overwrite this default with %scf ConvForced false 


INFO   : the flag for use of LIBINT has been found!

================================================================================
                                       INPUT FILE
================================================================================
NAME = simple-grid-225-260-b3lyp_d3bj-631gd-gas-singlepoint-DLPNO_CCSD_T1-NormalPNO-augtz-gas.inp
|  1> ! aug-cc-pVTZ aug-cc-pVTZ/C DLPNO-CCSD(T1) TightSCF NormalPNO UNO MiniPrint AutoAux
|  2> %pal nproc 10 end
|  3> %maxcore 20000
|  4> %mdci
|  5>      density none
|  6> end
|  7> 
|  8> * xyz 0 6
|  9>  O     -0.29285000     -0.20839500     -0.78051600
| 10>  C     -1.16226900     -1.13472900     -0.62999200
| 11>  C     -2.90220000     -0.20118800      0.44873000
| 12>  C     -2.51282200      0.97374900     -0.12152300
| 13>  C     -2.96549300      1.38362700     -1.48897700
| 14> Fe      1.43634400      0.12256100      0.00297900
| 15> Cl      2.04607100      2.04624700     -0.83637700
| 16>  C     -1.61326800      1.95628700      0.55335700
| 17> Cl      2.61228700     -1.61418400     -0.63596700
| 18> Cl      1.17145200      0.17571400      2.19564800
| 19>  H     -3.65185500     -0.78136500     -0.08610500
| 20>  H     -2.19351800      2.85858600      0.79244200
| 21>  H     -1.16403000      1.58620700      1.47337800
| 22>  H     -0.81316200      2.27200100     -0.12622900
| 23>  H     -3.41478400      2.38332800     -1.43610300
| 24>  H     -2.10235800      1.46916600     -2.16216200
| 25>  H     -3.70143700      0.70081500     -1.91911400
| 26>  C     -2.78265500     -0.50629900      1.92358100
| 27>  H     -3.56621700      0.03316300      2.47113200
| 28>  H     -2.92750100     -1.57037900      2.12448700
| 29>  H     -1.82102500     -0.20870800      2.34774500
| 30>  C     -0.91092000     -2.21031100      0.39484600
| 31>  H     -1.77910000     -2.85317500      0.54656100
| 32>  H     -0.09649600     -2.81906700     -0.02394400
| 33>  H     -0.55821000     -1.80781100      1.34350500
| 34>  C     -1.86864900     -1.58622500     -1.88647200
| 35>  H     -1.15521600     -2.24733300     -2.39751100
| 36>  H     -2.77399900     -2.15970100     -1.68058200
| 37>  H     -2.08037300     -0.75683600     -2.55830200
| 38> *
| 39> 
| 40> 
| 41>                          ****END OF INPUT****
================================================================================

                       ****************************
                       * Single Point Calculation *
                       ****************************

---------------------------------
CARTESIAN COORDINATES (ANGSTROEM)
---------------------------------
  O     -0.292850   -0.208395   -0.780516
  C     -1.162269   -1.134729   -0.629992
  C     -2.902200   -0.201188    0.448730
  C     -2.512822    0.973749   -0.121523
  C     -2.965493    1.383627   -1.488977
  Fe     1.436344    0.122561    0.002979
  Cl     2.046071    2.046247   -0.836377
  C     -1.613268    1.956287    0.553357
  Cl     2.612287   -1.614184   -0.635967
  Cl     1.171452    0.175714    2.195648
  H     -3.651855   -0.781365   -0.086105
  H     -2.193518    2.858586    0.792442
  H     -1.164030    1.586207    1.473378
  H     -0.813162    2.272001   -0.126229
  H     -3.414784    2.383328   -1.436103
  H     -2.102358    1.469166   -2.162162
  H     -3.701437    0.700815   -1.919114
  C     -2.782655   -0.506299    1.923581
  H     -3.566217    0.033163    2.471132
  H     -2.927501   -1.570379    2.124487
  H     -1.821025   -0.208708    2.347745
  C     -0.910920   -2.210311    0.394846
  H     -1.779100   -2.853175    0.546561
  H     -0.096496   -2.819067   -0.023944
  H     -0.558210   -1.807811    1.343505
  C     -1.868649   -1.586225   -1.886472
  H     -1.155216   -2.247333   -2.397511
  H     -2.773999   -2.159701   -1.680582
  H     -2.080373   -0.756836   -2.558302

----------------------------
CARTESIAN COORDINATES (A.U.)
----------------------------
  NO LB      ZA    FRAG     MASS         X           Y           Z
   0 O     8.0000    0    15.999   -0.553406   -0.393809   -1.474961
   1 C     6.0000    0    12.011   -2.196370   -2.144327   -1.190512
   2 C     6.0000    0    12.011   -5.484363   -0.380190    0.847977
   3 C     6.0000    0    12.011   -4.748545    1.840119   -0.229645
   4 C     6.0000    0    12.011   -5.603970    2.614676   -2.813759
   5 Fe   26.0000    0    55.850    2.714297    0.231607    0.005629
   6 Cl   17.0000    0    35.453    3.866514    3.866846   -1.580523
   7 C     6.0000    0    12.011   -3.048635    3.696847    1.045693
   8 Cl   17.0000    0    35.453    4.936507   -3.050366   -1.201803
   9 Cl   17.0000    0    35.453    2.213723    0.332051    4.149173
  10 H     1.0000    0     1.008   -6.901006   -1.476566   -0.162715
  11 H     1.0000    0     1.008   -4.145148    5.401945    1.497498
  12 H     1.0000    0     1.008   -2.199698    2.997497    2.784281
  13 H     1.0000    0     1.008   -1.536653    4.293460   -0.238538
  14 H     1.0000    0     1.008   -6.453007    4.503837   -2.713841
  15 H     1.0000    0     1.008   -3.972881    2.776321   -4.085894
  16 H     1.0000    0     1.008   -6.994702    1.324348   -3.626600
  17 C     6.0000    0    12.011   -5.258456   -0.956766    3.635041
  18 H     1.0000    0     1.008   -6.739173    0.062669    4.669763
  19 H     1.0000    0     1.008   -5.532175   -2.967586    4.014699
  20 H     1.0000    0     1.008   -3.441239   -0.394401    4.436595
  21 C     6.0000    0    12.011   -1.721389   -4.176882    0.746151
  22 H     1.0000    0     1.008   -3.362012   -5.391719    1.032851
  23 H     1.0000    0     1.008   -0.182351   -5.327265   -0.045248
  24 H     1.0000    0     1.008   -1.054864   -3.416268    2.538857
  25 C     6.0000    0    12.011   -3.531235   -2.997531   -3.564915
  26 H     1.0000    0     1.008   -2.183042   -4.246844   -4.530639
  27 H     1.0000    0     1.008   -5.242098   -4.081243   -3.175840
  28 H     1.0000    0     1.008   -3.931335   -1.430213   -4.834490



           ************************************************************
           *        Program running with 10 parallel MPI-processes    *
           *              working on a common directory               *
           ************************************************************


           ************************************************************
           *        Program running with 10 parallel MPI-processes    *
           *              working on a common directory               *
           ************************************************************

Diagonalization of the overlap matrix:
Smallest eigenvalue                        ... 7.488e-07
Time for diagonalization                   ...    0.340 sec
Threshold for overlap eigenvalues          ... 1.000e-08
Number of eigenvalues below threshold      ... 0
Time for construction of square roots      ...    0.280 sec
Total time needed                          ...    0.624 sec

-------------------
DFT GRID GENERATION
-------------------

General Integration Accuracy     IntAcc      ...  4.340
Radial Grid Type                 RadialGrid  ... Gauss-Chebyshev
Angular Grid (max. acc.)         AngularGrid ... Lebedev-110
Angular grid pruning method      GridPruning ... 3 (G Style)
Weight generation scheme         WeightScheme... Becke
Basis function cutoff            BFCut       ...    1.0000e-11
Integration weight cutoff        WCut        ...    1.0000e-14
Grids for H and He will be reduced by one unit

# of grid points (after initial pruning)     ...  36112 (   0.0 sec)
# of grid points (after weights+screening)   ...  32358 (   0.1 sec)
nearest neighbour list constructed           ...    0.0 sec
Grid point re-assignment to atoms done       ...    0.0 sec
Grid point division into batches done        ...    0.0 sec
Reduced shell lists constructed in    0.3 sec

Total number of grid points                  ...    32358
Total number of batches                      ...      523
Average number of points per batch           ...       61
Average number of grid points per atom       ...     1116
Average number of shells per batch           ...   291.63 (85.02%)
Average number of basis functions per batch  ...   866.22 (84.51%)
Average number of large shells per batch     ...   238.85 (81.90%)
Average number of large basis fcns per batch ...   709.59 (81.92%)
Maximum spatial batch extension              ...   3.84,  4.21,  4.02 au
Average spatial batch extension              ...   0.18,  0.18,  0.18 au

Time for grid setup =    0.405 sec

Loading Hartree-Fock densities                     ... done
Calculating cut-offs                               ... done
Setting up the integral package                    ... done
Initializing the effective Hamiltonian             ... done
Starting the Coulomb interaction                   ... done (   1.1 sec)
Reading the grid                                   ... done
Mapping shells                                     ... done
Starting the XC term evaluation                    ... done (   0.9 sec)
Transforming the Hamiltonian                       ... done (   0.2 sec)
Diagonalizing the Hamiltonian                      ... done (   0.4 sec)
Back transforming the eigenvectors                 ... done (   0.1 sec)
Now organizing SCF variables                       ... done
--------------
SCF ITERATIONS
--------------
ITER       Energy         Delta-E        Max-DP      RMS-DP      [F,P]     Damp
               ***  Starting incremental Fock matrix formation  ***
  0  -3027.5796255014   0.000000000000 0.23279863  0.00106204  0.2625066 0.7000
  1  -3027.8294851613  -0.249859659906 0.17212864  0.00082823  0.1581376 0.7000
                               ***Turning on DIIS***
  2  -3027.9972178680  -0.167732706710 0.12018066  0.00061007  0.1094059 0.7000
  3  -3029.6152462796  -1.618028411598 0.26664347  0.00153219  0.0819390 0.0000
  4  -3028.2975382389   1.317708040640 0.04471448  0.00021929  0.0199292 0.0000
  5  -3028.4162052597  -0.118667020717 0.03929604  0.00017299  0.0115412 0.0000
  6  -3028.4569124559  -0.040707196244 0.02023104  0.00007065  0.0052683 0.0000
  7  -3028.4706768233  -0.013764367453 0.00894527  0.00003252  0.0033961 0.0000
  8  -3028.4620333453   0.008643478088 0.00584932  0.00001859  0.0014850 0.0000
  9  -3028.4560698870   0.005963458250 0.00246169  0.00001086  0.0007350 0.0000
 10  -3028.4443128083   0.011757078752 0.00091969  0.00000321  0.0004137 0.0000
 11  -3028.4501666523  -0.005853844059 0.00027349  0.00000179  0.0000651 0.0000
 12  -3028.4480836645   0.002082987799 0.00038219  0.00000154  0.0000223 0.0000
 13  -3028.4481195194  -0.000035854849 0.00090709  0.00000217  0.0000091 0.0000
 14  -3028.4481536317  -0.000034112316 0.00063816  0.00000211  0.0000052 0.0000
 15  -3028.4480957432   0.000057888468 0.00071153  0.00000178  0.0000029 0.0000
 16  -3028.4481138643  -0.000018121120 0.00079565  0.00000235  0.0000018 0.0000
 17  -3028.4481312223  -0.000017357981 0.00072196  0.00000179  0.0000011 0.0000
                            ***DIIS convergence achieved***

               *****************************************************
               *                     SUCCESS                       *
               *           SCF CONVERGED AFTER  18 CYCLES          *
               *****************************************************

Total Energy       :        -3028.44811415 Eh          -82408.26274 eV
  Last Energy change         ...    1.7076e-05  Tolerance :   1.0000e-08
  Last MAX-Density change    ...    1.9163e-03  Tolerance :   1.0000e-07
             **** THE GBW FILE WAS UPDATED (simple-grid-225-260-b3lyp_d3bj-631gd-gas-singlepoint-DLPNO_CCSD_T1-NormalPNO-augtz-gas.gbw) ****
             **** DENSITY FILE WAS UPDATED (simple-grid-225-260-b3lyp_d3bj-631gd-gas-singlepoint-DLPNO_CCSD_T1-NormalPNO-augtz-gas.scfp.tmp) ****
             **** ENERGY FILE WAS UPDATED (simple-grid-225-260-b3lyp_d3bj-631gd-gas-singlepoint-DLPNO_CCSD_T1-NormalPNO-augtz-gas.en.tmp) ****
----------------------
UHF SPIN CONTAMINATION
----------------------

Expectation value of <S**2>     :     8.764591
Ideal value S*(S+1) for S=2.5   :     8.750000
Deviation                       :     0.014591

----------------
ORBITAL ENERGIES
----------------
                 SPIN UP ORBITALS
  NO   OCC          E(Eh)            E(eV) 
   0   1.0000    -261.565758     -7117.5661 
   1   1.0000    -104.787239     -2851.4057 
   2   1.0000    -104.783340     -2851.2996 
   3   1.0000    -104.782428     -2851.2748 
   4   1.0000     -32.233569      -877.1200 
   5   1.0000     -27.709815      -754.0224 
   6   1.0000     -27.709047      -754.0015 
   7   1.0000     -27.708867      -753.9966 
   8   1.0000     -20.590309      -560.2908 
   9   1.0000     -11.413375      -310.5737 
  10   1.0000     -11.303723      -307.5899 
  11   1.0000     -11.269641      -306.6625 
  12   1.0000     -11.263329      -306.4908 
  13   1.0000     -11.259237      -306.3794 
  14   1.0000     -11.257629      -306.3357 
  15   1.0000     -11.245167      -305.9965 
  16   1.0000     -11.241786      -305.9045 
  17   1.0000     -10.513908      -286.0980 
  18   1.0000     -10.509999      -285.9916 
  19   1.0000     -10.509044      -285.9656 
  20   1.0000      -7.980770      -217.1678 
  21   1.0000      -7.979955      -217.1456 
  22   1.0000      -7.979920      -217.1447 
  23   1.0000      -7.976866      -217.0615 
  24   1.0000      -7.976095      -217.0406 
  25   1.0000      -7.976031      -217.0388 
  26   1.0000      -7.975846      -217.0338 
  27   1.0000      -7.975160      -217.0151 
  28   1.0000      -7.975100      -217.0135 
  29   1.0000      -4.588658      -124.8637 
  30   1.0000      -3.201564       -87.1190 
  31   1.0000      -3.200325       -87.0853 
  32   1.0000      -3.200067       -87.0783 
  33   1.0000      -1.436790       -39.0970 
  34   1.0000      -1.149224       -31.2720 
  35   1.0000      -1.092350       -29.7243 
  36   1.0000      -1.059188       -28.8220 
  37   1.0000      -1.053439       -28.6655 
  38   1.0000      -1.050802       -28.5938 
  39   1.0000      -1.031560       -28.0702 
  40   1.0000      -1.000994       -27.2384 
  41   1.0000      -0.974541       -26.5186 
  42   1.0000      -0.933735       -25.4082 
  43   1.0000      -0.917773       -24.9739 
  44   1.0000      -0.917704       -24.9720 
  45   1.0000      -0.911787       -24.8110 
  46   1.0000      -0.907840       -24.7036 
  47   1.0000      -0.907110       -24.6837 
  48   1.0000      -0.800746       -21.7894 
  49   1.0000      -0.746535       -20.3142 
  50   1.0000      -0.697395       -18.9771 
  51   1.0000      -0.690233       -18.7822 
  52   1.0000      -0.684096       -18.6152 
  53   1.0000      -0.667339       -18.1592 
  54   1.0000      -0.635869       -17.3029 
  55   1.0000      -0.622288       -16.9333 
  56   1.0000      -0.604601       -16.4520 
  57   1.0000      -0.596419       -16.2294 
  58   1.0000      -0.582817       -15.8593 
  59   1.0000      -0.573994       -15.6192 
  60   1.0000      -0.565120       -15.3777 
  61   1.0000      -0.557851       -15.1799 
  62   1.0000      -0.553045       -15.0491 
  63   1.0000      -0.548251       -14.9187 
  64   1.0000      -0.539289       -14.6748 
  65   1.0000      -0.526488       -14.3265 
  66   1.0000      -0.509526       -13.8649 
  67   1.0000      -0.491061       -13.3625 
  68   1.0000      -0.470676       -12.8077 
  69   1.0000      -0.467194       -12.7130 
  70   1.0000      -0.438975       -11.9451 
  71   1.0000      -0.434400       -11.8206 
  72   1.0000      -0.432720       -11.7749 
  73   1.0000      -0.423894       -11.5347 
  74   1.0000      -0.422722       -11.5029 
  75   1.0000      -0.421748       -11.4763 
  76   1.0000      -0.371463       -10.1080 
  77   0.0000       0.011674         0.3177 
  78   0.0000       0.021920         0.5965 
  79   0.0000       0.023055         0.6273 
  80   0.0000       0.030033         0.8173 
  81   0.0000       0.038148         1.0381 
  82   0.0000       0.040094         1.0910 
  83   0.0000       0.042509         1.1567 
  84   0.0000       0.044368         1.2073 
  85   0.0000       0.044697         1.2163 
  86   0.0000       0.052772         1.4360 
  87   0.0000       0.056881         1.5478 
  88   0.0000       0.060450         1.6449 
  89   0.0000       0.063305         1.7226 
  90   0.0000       0.064301         1.7497 
  91   0.0000       0.065759         1.7894 
  92   0.0000       0.072914         1.9841 
  93   0.0000       0.076480         2.0811 
  94   0.0000       0.081067         2.2059 
  95   0.0000       0.090431         2.4608 
  96   0.0000       0.091862         2.4997 
  97   0.0000       0.093619         2.5475 
  98   0.0000       0.097697         2.6585 
  99   0.0000       0.100556         2.7363 
 100   0.0000       0.103299         2.8109 
 101   0.0000       0.108229         2.9451 
 102   0.0000       0.115307         3.1377 
 103   0.0000       0.122264         3.3270 
 104   0.0000       0.123742         3.3672 
 105   0.0000       0.124953         3.4001 
 106   0.0000       0.127182         3.4608 
 107   0.0000       0.128107         3.4860 
 108   0.0000       0.130861         3.5609 
 109   0.0000       0.133320         3.6278 
 110   0.0000       0.135915         3.6984 
 111   0.0000       0.138430         3.7669 
 112   0.0000       0.143727         3.9110 
 113   0.0000       0.144376         3.9287 
 114   0.0000       0.151438         4.1208 
 115   0.0000       0.152340         4.1454 
 116   0.0000       0.156590         4.2610 
 117   0.0000       0.160954         4.3798 
 118   0.0000       0.163108         4.4384 
 119   0.0000       0.166082         4.5193 
 120   0.0000       0.169612         4.6154 
 121   0.0000       0.170821         4.6483 
 122   0.0000       0.175283         4.7697 
 123   0.0000       0.179604         4.8873 
 124   0.0000       0.182014         4.9529 
 125   0.0000       0.187707         5.1078 
 126   0.0000       0.188087         5.1181 
 127   0.0000       0.191843         5.2203 
 128   0.0000       0.197578         5.3764 
 129   0.0000       0.198604         5.4043 
 130   0.0000       0.200280         5.4499 
 131   0.0000       0.201138         5.4732 
 132   0.0000       0.203118         5.5271 
 133   0.0000       0.207843         5.6557 
 134   0.0000       0.213253         5.8029 
 135   0.0000       0.216177         5.8825 
 136   0.0000       0.220314         5.9951 
 137   0.0000       0.225405         6.1336 
 138   0.0000       0.227029         6.1778 
 139   0.0000       0.232284         6.3208 
 140   0.0000       0.235675         6.4130 
 141   0.0000       0.237853         6.4723 
 142   0.0000       0.240907         6.5554 
 143   0.0000       0.243165         6.6169 
 144   0.0000       0.245713         6.6862 
 145   0.0000       0.247319         6.7299 
 146   0.0000       0.251053         6.8315 
 147   0.0000       0.255536         6.9535 
 148   0.0000       0.258884         7.0446 
 149   0.0000       0.261673         7.1205 
 150   0.0000       0.263314         7.1651 
 151   0.0000       0.268278         7.3002 
 152   0.0000       0.277428         7.5492 
 153   0.0000       0.279898         7.6164 
 154   0.0000       0.281941         7.6720 
 155   0.0000       0.286614         7.7992 
 156   0.0000       0.288877         7.8608 
 157   0.0000       0.292277         7.9533 
 158   0.0000       0.296559         8.0698 
 159   0.0000       0.304804         8.2941 
 160   0.0000       0.307961         8.3800 
 161   0.0000       0.314482         8.5575 
 162   0.0000       0.318479         8.6663 
 163   0.0000       0.319628         8.6975 
 164   0.0000       0.325680         8.8622 
 165   0.0000       0.328105         8.9282 
 166   0.0000       0.331832         9.0296 
 167   0.0000       0.338278         9.2050 
 168   0.0000       0.339972         9.2511 
 169   0.0000       0.343824         9.3559 
 170   0.0000       0.346180         9.4200 
 171   0.0000       0.352544         9.5932 
 172   0.0000       0.355992         9.6870 
 173   0.0000       0.360899         9.8206 
 174   0.0000       0.362226         9.8567 
 175   0.0000       0.365520         9.9463 
 176   0.0000       0.369802        10.0628 
 177   0.0000       0.372856        10.1459 
 178   0.0000       0.377748        10.2790 
 179   0.0000       0.379925        10.3383 
 180   0.0000       0.381807        10.3895 
 181   0.0000       0.383328        10.4309 
 182   0.0000       0.384425        10.4607 
 183   0.0000       0.388205        10.5636 
 184   0.0000       0.390840        10.6353 
 185   0.0000       0.395804        10.7704 
 186   0.0000       0.397518        10.8170 
 187   0.0000       0.399633        10.8746 
 188   0.0000       0.404778        11.0146 
 189   0.0000       0.409086        11.1318 
 190   0.0000       0.411271        11.1913 
 191   0.0000       0.415185        11.2978 
 192   0.0000       0.419794        11.4232 
 193   0.0000       0.423758        11.5310 
 194   0.0000       0.427634        11.6365 
 195   0.0000       0.434532        11.8242 
 196   0.0000       0.437552        11.9064 
 197   0.0000       0.440036        11.9740 
 198   0.0000       0.443177        12.0595 
 199   0.0000       0.448362        12.2005 
 200   0.0000       0.451204        12.2779 
 201   0.0000       0.457445        12.4477 
 202   0.0000       0.457798        12.4573 
 203   0.0000       0.459317        12.4986 
 204   0.0000       0.465237        12.6597 
 205   0.0000       0.467496        12.7212 
 206   0.0000       0.471172        12.8212 
 207   0.0000       0.473576        12.8867 
 208   0.0000       0.478767        13.0279 
 209   0.0000       0.479865        13.0578 
 210   0.0000       0.485350        13.2070 
 211   0.0000       0.489863        13.3299 
 212   0.0000       0.494035        13.4434 
 213   0.0000       0.496394        13.5076 
 214   0.0000       0.498902        13.5758 
 215   0.0000       0.503506        13.7011 
 216   0.0000       0.504559        13.7297 
 217   0.0000       0.507908        13.8209 
 218   0.0000       0.510178        13.8827 
 219   0.0000       0.514527        14.0010 
 220   0.0000       0.515777        14.0350 
 221   0.0000       0.517022        14.0689 
 222   0.0000       0.523709        14.2508 
 223   0.0000       0.526470        14.3260 
 224   0.0000       0.529525        14.4091 
 225   0.0000       0.533447        14.5158 
 226   0.0000       0.535759        14.5788 
 227   0.0000       0.536922        14.6104 
 228   0.0000       0.541156        14.7256 
 229   0.0000       0.547074        14.8866 
 230   0.0000       0.548346        14.9212 
 231   0.0000       0.552201        15.0262 
 232   0.0000       0.559289        15.2190 
 233   0.0000       0.561642        15.2831 
 234   0.0000       0.564730        15.3671 
 235   0.0000       0.569144        15.4872 
 236   0.0000       0.572918        15.5899 
 237   0.0000       0.574019        15.6199 
 238   0.0000       0.581774        15.8309 
 239   0.0000       0.584789        15.9129 
 240   0.0000       0.585665        15.9368 
 241   0.0000       0.588059        16.0019 
 242   0.0000       0.593379        16.1467 
 243   0.0000       0.598704        16.2916 
 244   0.0000       0.602446        16.3934 
 245   0.0000       0.604687        16.4544 
 246   0.0000       0.606447        16.5023 
 247   0.0000       0.612224        16.6595 
 248   0.0000       0.619411        16.8550 
 249   0.0000       0.621534        16.9128 
 250   0.0000       0.624407        16.9910 
 251   0.0000       0.628284        17.0965 
 252   0.0000       0.634943        17.2777 
 253   0.0000       0.638728        17.3807 
 254   0.0000       0.641801        17.4643 
 255   0.0000       0.642544        17.4845 
 256   0.0000       0.650568        17.7029 
 257   0.0000       0.651597        17.7309 
 258   0.0000       0.654441        17.8082 
 259   0.0000       0.661025        17.9874 
 260   0.0000       0.662621        18.0308 
 261   0.0000       0.665054        18.0970 
 262   0.0000       0.669267        18.2117 
 263   0.0000       0.676194        18.4002 
 264   0.0000       0.678453        18.4616 
 265   0.0000       0.684951        18.6385 
 266   0.0000       0.687617        18.7110 
 267   0.0000       0.690405        18.7869 
 268   0.0000       0.697021        18.9669 
 269   0.0000       0.700628        19.0651 
 270   0.0000       0.707390        19.2491 
 271   0.0000       0.710810        19.3421 
 272   0.0000       0.714531        19.4434 
 273   0.0000       0.719280        19.5726 
 274   0.0000       0.724049        19.7024 
 275   0.0000       0.729159        19.8414 
 276   0.0000       0.730176        19.8691 
 277   0.0000       0.734546        19.9880 
 278   0.0000       0.741095        20.1662 
 279   0.0000       0.745827        20.2950 
 280   0.0000       0.749130        20.3849 
 281   0.0000       0.754013        20.5177 
 282   0.0000       0.757114        20.6021 
 283   0.0000       0.764856        20.8128 
 284   0.0000       0.768423        20.9099 
 285   0.0000       0.782561        21.2946 
 286   0.0000       0.787996        21.4425 
 287   0.0000       0.789256        21.4767 
 288   0.0000       0.801301        21.8045 
 289   0.0000       0.809935        22.0394 
 290   0.0000       0.811754        22.0890 
 291   0.0000       0.817415        22.2430 
 292   0.0000       0.826877        22.5005 
 293   0.0000       0.832204        22.6454 
 294   0.0000       0.837558        22.7911 
 295   0.0000       0.839347        22.8398 
 296   0.0000       0.843626        22.9562 
 297   0.0000       0.844780        22.9876 
 298   0.0000       0.853942        23.2369 
 299   0.0000       0.854811        23.2606 
 300   0.0000       0.860514        23.4158 
 301   0.0000       0.863827        23.5059 
 302   0.0000       0.867725        23.6120 
 303   0.0000       0.873856        23.7788 
 304   0.0000       0.880855        23.9693 
 305   0.0000       0.890093        24.2206 
 306   0.0000       0.892097        24.2752 
 307   0.0000       0.894832        24.3496 
 308   0.0000       0.904182        24.6040 
 309   0.0000       0.906288        24.6614 
 310   0.0000       0.906714        24.6730 
 311   0.0000       0.915057        24.9000 
 312   0.0000       0.921096        25.0643 
 313   0.0000       0.921962        25.0879 
 314   0.0000       0.927221        25.2310 
 315   0.0000       0.929718        25.2989 
 316   0.0000       0.934212        25.4212 
 317   0.0000       0.938511        25.5382 
 318   0.0000       0.939591        25.5676 
 319   0.0000       0.943210        25.6660 
 320   0.0000       0.945509        25.7286 
 321   0.0000       0.952873        25.9290 
 322   0.0000       0.956642        26.0316 
 323   0.0000       0.960529        26.1373 
 324   0.0000       0.963329        26.2135 
 325   0.0000       0.965216        26.2649 
 326   0.0000       0.968162        26.3450 
 327   0.0000       0.972501        26.4631 
 328   0.0000       0.976517        26.5724 
 329   0.0000       0.979915        26.6648 
 330   0.0000       0.983817        26.7710 
 331   0.0000       0.986360        26.8402 
 332   0.0000       0.987369        26.8677 
 333   0.0000       0.994892        27.0724 
 334   0.0000       0.995549        27.0903 
 335   0.0000       1.000646        27.2290 
 336   0.0000       1.006357        27.3844 
 337   0.0000       1.012375        27.5481 
 338   0.0000       1.015647        27.6372 
 339   0.0000       1.022598        27.8263 
 340   0.0000       1.024146        27.8684 
 341   0.0000       1.029194        28.0058 
 342   0.0000       1.029881        28.0245 
 343   0.0000       1.032771        28.1031 
 344   0.0000       1.037031        28.2190 
 345   0.0000       1.037659        28.2361 
 346   0.0000       1.041023        28.3277 
 347   0.0000       1.045805        28.4578 
 348   0.0000       1.049097        28.5474 
 349   0.0000       1.055852        28.7312 
 350   0.0000       1.056739        28.7553 
 351   0.0000       1.059915        28.8418 
 352   0.0000       1.061420        28.8827 
 353   0.0000       1.066654        29.0251 
 354   0.0000       1.068493        29.0752 
 355   0.0000       1.070534        29.1307 
 356   0.0000       1.082987        29.4696 
 357   0.0000       1.085604        29.5408 
 358   0.0000       1.088752        29.6265 
 359   0.0000       1.090636        29.6777 
 360   0.0000       1.094195        29.7746 
 361   0.0000       1.096809        29.8457 
 362   0.0000       1.102420        29.9984 
 363   0.0000       1.107359        30.1328 
 364   0.0000       1.113164        30.2907 
 365   0.0000       1.118479        30.4354 
 366   0.0000       1.121257        30.5110 
 367   0.0000       1.124876        30.6094 
 368   0.0000       1.129832        30.7443 
 369   0.0000       1.132970        30.8297 
 370   0.0000       1.138431        30.9783 
 371   0.0000       1.141266        31.0554 
 372   0.0000       1.146748        31.2046 
 373   0.0000       1.154095        31.4045 
 374   0.0000       1.155044        31.4304 
 375   0.0000       1.159277        31.5455 
 376   0.0000       1.166206        31.7341 
 377   0.0000       1.171083        31.8668 
 378   0.0000       1.173432        31.9307 
 379   0.0000       1.176775        32.0217 
 380   0.0000       1.186716        32.2922 
 381   0.0000       1.188744        32.3474 
 382   0.0000       1.191593        32.4249 
 383   0.0000       1.195465        32.5303 
 384   0.0000       1.199051        32.6278 
 385   0.0000       1.207719        32.8637 
 386   0.0000       1.212021        32.9808 
 387   0.0000       1.216315        33.0976 
 388   0.0000       1.218300        33.1516 
 389   0.0000       1.223584        33.2954 
 390   0.0000       1.234050        33.5802 
 391   0.0000       1.235869        33.6297 
 392   0.0000       1.239988        33.7418 
 393   0.0000       1.245402        33.8891 
 394   0.0000       1.250567        34.0297 
 395   0.0000       1.258263        34.2391 
 396   0.0000       1.259362        34.2690 
 397   0.0000       1.264186        34.4003 
 398   0.0000       1.269896        34.5556 
 399   0.0000       1.276688        34.7404 
 400   0.0000       1.280552        34.8456 
 401   0.0000       1.281518        34.8719 
 402   0.0000       1.283210        34.9179 
 403   0.0000       1.295105        35.2416 
 404   0.0000       1.297324        35.3020 
 405   0.0000       1.306590        35.5541 
 406   0.0000       1.309658        35.6376 
 407   0.0000       1.311294        35.6821 
 408   0.0000       1.317144        35.8413 
 409   0.0000       1.320633        35.9362 
 410   0.0000       1.325560        36.0703 
 411   0.0000       1.334308        36.3084 
 412   0.0000       1.334598        36.3163 
 413   0.0000       1.339572        36.4516 
 414   0.0000       1.341266        36.4977 
 415   0.0000       1.355694        36.8903 
 416   0.0000       1.356729        36.9185 
 417   0.0000       1.362510        37.0758 
 418   0.0000       1.369456        37.2648 
 419   0.0000       1.375970        37.4420 
 420   0.0000       1.378543        37.5121 
 421   0.0000       1.389520        37.8108 
 422   0.0000       1.392611        37.8949 
 423   0.0000       1.399414        38.0800 
 424   0.0000       1.401887        38.1473 
 425   0.0000       1.404415        38.2161 
 426   0.0000       1.414042        38.4780 
 427   0.0000       1.416444        38.5434 
 428   0.0000       1.423453        38.7341 
 429   0.0000       1.425467        38.7889 
 430   0.0000       1.436121        39.0788 
 431   0.0000       1.437701        39.1218 
 432   0.0000       1.451159        39.4880 
 433   0.0000       1.455105        39.5954 
 434   0.0000       1.460598        39.7449 
 435   0.0000       1.466378        39.9022 
 436   0.0000       1.469452        39.9858 
 437   0.0000       1.474397        40.1204 
 438   0.0000       1.478689        40.2372 
 439   0.0000       1.481877        40.3239 
 440   0.0000       1.492637        40.6167 
 441   0.0000       1.493400        40.6375 
 442   0.0000       1.496169        40.7128 
 443   0.0000       1.504590        40.9420 
 444   0.0000       1.507532        41.0220 
 445   0.0000       1.515494        41.2387 
 446   0.0000       1.519243        41.3407 
 447   0.0000       1.523123        41.4463 
 448   0.0000       1.526620        41.5414 
 449   0.0000       1.528078        41.5811 
 450   0.0000       1.530006        41.6336 
 451   0.0000       1.538620        41.8680 
 452   0.0000       1.550338        42.1868 
 453   0.0000       1.551539        42.2195 
 454   0.0000       1.555235        42.3201 
 455   0.0000       1.559537        42.4372 
 456   0.0000       1.567776        42.6614 
 457   0.0000       1.571998        42.7762 
 458   0.0000       1.576327        42.8940 
 459   0.0000       1.582671        43.0667 
 460   0.0000       1.595793        43.4237 
 461   0.0000       1.597922        43.4817 
 462   0.0000       1.602395        43.6034 
 463   0.0000       1.607718        43.7482 
 464   0.0000       1.609662        43.8011 
 465   0.0000       1.615995        43.9734 
 466   0.0000       1.620200        44.0879 
 467   0.0000       1.624845        44.2143 
 468   0.0000       1.634899        44.4879 
 469   0.0000       1.638443        44.5843 
 470   0.0000       1.644376        44.7457 
 471   0.0000       1.648839        44.8672 
 472   0.0000       1.656056        45.0636 
 473   0.0000       1.662074        45.2273 
 474   0.0000       1.665165        45.3114 
 475   0.0000       1.670781        45.4643 
 476   0.0000       1.676696        45.6252 
 477   0.0000       1.682840        45.7924 
 478   0.0000       1.688100        45.9355 
 479   0.0000       1.695684        46.1419 
 480   0.0000       1.699429        46.2438 
 481   0.0000       1.706310        46.4311 
 482   0.0000       1.708404        46.4880 
 483   0.0000       1.715934        46.6929 
 484   0.0000       1.719027        46.7771 
 485   0.0000       1.723540        46.8999 
 486   0.0000       1.729709        47.0678 
 487   0.0000       1.738791        47.3149 
 488   0.0000       1.744686        47.4753 
 489   0.0000       1.747972        47.5647 
 490   0.0000       1.749359        47.6025 
 491   0.0000       1.751569        47.6626 
 492   0.0000       1.757669        47.8286 
 493   0.0000       1.764723        48.0205 
 494   0.0000       1.768663        48.1278 
 495   0.0000       1.771467        48.2041 
 496   0.0000       1.774023        48.2736 
 497   0.0000       1.780922        48.4614 
 498   0.0000       1.789125        48.6846 
 499   0.0000       1.796076        48.8737 
 500   0.0000       1.804740        49.1095 
 501   0.0000       1.808979        49.2248 
 502   0.0000       1.812376        49.3173 
 503   0.0000       1.816493        49.4293 
 504   0.0000       1.819512        49.5114 
 505   0.0000       1.829983        49.7964 
 506   0.0000       1.836995        49.9872 
 507   0.0000       1.840677        50.0874 
 508   0.0000       1.841759        50.1168 
 509   0.0000       1.853098        50.4254 
 510   0.0000       1.855838        50.4999 
 511   0.0000       1.859965        50.6122 
 512   0.0000       1.866095        50.7790 
 513   0.0000       1.870420        50.8967 
 514   0.0000       1.871931        50.9378 
 515   0.0000       1.881178        51.1895 
 516   0.0000       1.883532        51.2535 
 517   0.0000       1.888913        51.3999 
 518   0.0000       1.895344        51.5749 
 519   0.0000       1.899983        51.7012 
 520   0.0000       1.904135        51.8142 
 521   0.0000       1.907098        51.8948 
 522   0.0000       1.913874        52.0792 
 523   0.0000       1.917197        52.1696 
 524   0.0000       1.927325        52.4452 
 525   0.0000       1.931911        52.5700 
 526   0.0000       1.937459        52.7209 
 527   0.0000       1.946496        52.9668 
 528   0.0000       1.951883        53.1134 
 529   0.0000       1.954468        53.1838 
 530   0.0000       1.960080        53.3365 
 531   0.0000       1.963830        53.4385 
 532   0.0000       1.966762        53.5183 
 533   0.0000       1.973401        53.6990 
 534   0.0000       1.983671        53.9784 
 535   0.0000       1.988392        54.1069 
 536   0.0000       1.993511        54.2462 
 537   0.0000       2.002861        54.5006 
 538   0.0000       2.007922        54.6383 
 539   0.0000       2.012010        54.7496 
 540   0.0000       2.024152        55.0800 
 541   0.0000       2.033206        55.3263 
 542   0.0000       2.035287        55.3830 
 543   0.0000       2.043755        55.6134 
 544   0.0000       2.049102        55.7589 
 545   0.0000       2.056693        55.9655 
 546   0.0000       2.059048        56.0296 
 547   0.0000       2.065275        56.1990 
 548   0.0000       2.075217        56.4695 
 549   0.0000       2.079919        56.5975 
 550   0.0000       2.084863        56.7320 
 551   0.0000       2.092205        56.9318 
 552   0.0000       2.099151        57.1208 
 553   0.0000       2.108596        57.3778 
 554   0.0000       2.116454        57.5916 
 555   0.0000       2.120244        57.6948 
 556   0.0000       2.127993        57.9056 
 557   0.0000       2.133129        58.0454 
 558   0.0000       2.140838        58.2552 
 559   0.0000       2.144074        58.3432 
 560   0.0000       2.151083        58.5339 
 561   0.0000       2.155118        58.6437 
 562   0.0000       2.165399        58.9235 
 563   0.0000       2.170725        59.0684 
 564   0.0000       2.181548        59.3629 
 565   0.0000       2.188113        59.5416 
 566   0.0000       2.193249        59.6814 
 567   0.0000       2.198274        59.8181 
 568   0.0000       2.212665        60.2097 
 569   0.0000       2.218018        60.3553 
 570   0.0000       2.224250        60.5249 
 571   0.0000       2.230801        60.7032 
 572   0.0000       2.235891        60.8417 
 573   0.0000       2.239157        60.9306 
 574   0.0000       2.244352        61.0719 
 575   0.0000       2.260285        61.5055 
 576   0.0000       2.265557        61.6489 
 577   0.0000       2.272786        61.8457 
 578   0.0000       2.283755        62.1441 
 579   0.0000       2.289319        62.2955 
 580   0.0000       2.296402        62.4883 
 581   0.0000       2.301743        62.6336 
 582   0.0000       2.309335        62.8402 
 583   0.0000       2.314542        62.9819 
 584   0.0000       2.321032        63.1585 
 585   0.0000       2.329182        63.3803 
 586   0.0000       2.337173        63.5977 
 587   0.0000       2.348588        63.9083 
 588   0.0000       2.358822        64.1868 
 589   0.0000       2.366066        64.3839 
 590   0.0000       2.371424        64.5297 
 591   0.0000       2.380197        64.7685 
 592   0.0000       2.385574        64.9148 
 593   0.0000       2.396900        65.2230 
 594   0.0000       2.406087        65.4730 
 595   0.0000       2.419252        65.8312 
 596   0.0000       2.421443        65.8908 
 597   0.0000       2.427879        66.0660 
 598   0.0000       2.433858        66.2287 
 599   0.0000       2.442717        66.4697 
 600   0.0000       2.444809        66.5266 
 601   0.0000       2.452703        66.7414 
 602   0.0000       2.470140        67.2159 
 603   0.0000       2.477962        67.4288 
 604   0.0000       2.484330        67.6021 
 605   0.0000       2.486246        67.6542 
 606   0.0000       2.501432        68.0674 
 607   0.0000       2.518092        68.5208 
 608   0.0000       2.524746        68.7018 
 609   0.0000       2.536951        69.0340 
 610   0.0000       2.538883        69.0865 
 611   0.0000       2.556644        69.5698 
 612   0.0000       2.571927        69.9857 
 613   0.0000       2.583563        70.3023 
 614   0.0000       2.585317        70.3500 
 615   0.0000       2.592866        70.5555 
 616   0.0000       2.614726        71.1503 
 617   0.0000       2.626296        71.4652 
 618   0.0000       2.634107        71.6777 
 619   0.0000       2.637844        71.7794 
 620   0.0000       2.653174        72.1965 
 621   0.0000       2.669704        72.6463 
 622   0.0000       2.671574        72.6972 
 623   0.0000       2.682377        72.9912 
 624   0.0000       2.686952        73.1157 
 625   0.0000       2.698119        73.4195 
 626   0.0000       2.712713        73.8167 
 627   0.0000       2.721903        74.0667 
 628   0.0000       2.728963        74.2589 
 629   0.0000       2.741282        74.5941 
 630   0.0000       2.746283        74.7301 
 631   0.0000       2.762901        75.1824 
 632   0.0000       2.770873        75.3993 
 633   0.0000       2.779765        75.6413 
 634   0.0000       2.782064        75.7038 
 635   0.0000       2.792055        75.9757 
 636   0.0000       2.808912        76.4344 
 637   0.0000       2.813680        76.5641 
 638   0.0000       2.823690        76.8365 
 639   0.0000       2.835831        77.1669 
 640   0.0000       2.860697        77.8435 
 641   0.0000       2.865601        77.9770 
 642   0.0000       2.868865        78.0658 
 643   0.0000       2.887871        78.5830 
 644   0.0000       2.897149        78.8354 
 645   0.0000       2.914744        79.3142 
 646   0.0000       2.923742        79.5591 
 647   0.0000       2.927090        79.6502 
 648   0.0000       2.941636        80.0460 
 649   0.0000       2.942331        80.0649 
 650   0.0000       2.963128        80.6308 
 651   0.0000       2.974159        80.9310 
 652   0.0000       2.985171        81.2306 
 653   0.0000       3.023823        82.2824 
 654   0.0000       3.033993        82.5591 
 655   0.0000       3.054972        83.1300 
 656   0.0000       3.075141        83.6788 
 657   0.0000       3.085369        83.9572 
 658   0.0000       3.089074        84.0580 
 659   0.0000       3.105579        84.5071 
 660   0.0000       3.113995        84.7361 
 661   0.0000       3.117616        84.8346 
 662   0.0000       3.139124        85.4199 
 663   0.0000       3.170043        86.2613 
 664   0.0000       3.177724        86.4703 
 665   0.0000       3.187833        86.7453 
 666   0.0000       3.195115        86.9435 
 667   0.0000       3.207489        87.2802 
 668   0.0000       3.214536        87.4720 
 669   0.0000       3.232821        87.9695 
 670   0.0000       3.236497        88.0696 
 671   0.0000       3.240434        88.1767 
 672   0.0000       3.253847        88.5417 
 673   0.0000       3.266887        88.8965 
 674   0.0000       3.275453        89.1296 
 675   0.0000       3.284824        89.3846 
 676   0.0000       3.284939        89.3877 
 677   0.0000       3.300643        89.8151 
 678   0.0000       3.307866        90.0116 
 679   0.0000       3.310363        90.0796 
 680   0.0000       3.330482        90.6270 
 681   0.0000       3.332433        90.6801 
 682   0.0000       3.344061        90.9965 
 683   0.0000       3.350899        91.1826 
 684   0.0000       3.358690        91.3946 
 685   0.0000       3.367132        91.6243 
 686   0.0000       3.377008        91.8931 
 687   0.0000       3.397034        92.4380 
 688   0.0000       3.404136        92.6313 
 689   0.0000       3.413355        92.8821 
 690   0.0000       3.425364        93.2089 
 691   0.0000       3.438971        93.5792 
 692   0.0000       3.451548        93.9214 
 693   0.0000       3.456317        94.0512 
 694   0.0000       3.470168        94.4281 
 695   0.0000       3.472544        94.4927 
 696   0.0000       3.486595        94.8751 
 697   0.0000       3.492586        95.0381 
 698   0.0000       3.498661        95.2034 
 699   0.0000       3.503804        95.3434 
 700   0.0000       3.517076        95.7045 
 701   0.0000       3.522733        95.8584 
 702   0.0000       3.532016        96.1110 
 703   0.0000       3.536425        96.2310 
 704   0.0000       3.549115        96.5763 
 705   0.0000       3.558249        96.8249 
 706   0.0000       3.563857        96.9775 
 707   0.0000       3.570740        97.1648 
 708   0.0000       3.574939        97.2790 
 709   0.0000       3.581716        97.4634 
 710   0.0000       3.590974        97.7154 
 711   0.0000       3.595323        97.8337 
 712   0.0000       3.616837        98.4192 
 713   0.0000       3.624783        98.6354 
 714   0.0000       3.634399        98.8970 
 715   0.0000       3.645771        99.2065 
 716   0.0000       3.654406        99.4415 
 717   0.0000       3.663741        99.6955 
 718   0.0000       3.670281        99.8734 
 719   0.0000       3.678822       100.1058 
 720   0.0000       3.687289       100.3362 
 721   0.0000       3.691691       100.4560 
 722   0.0000       3.697592       100.6166 
 723   0.0000       3.704023       100.7916 
 724   0.0000       3.708477       100.9128 
 725   0.0000       3.716775       101.1386 
 726   0.0000       3.720177       101.2312 
 727   0.0000       3.726908       101.4143 
 728   0.0000       3.729525       101.4855 
 729   0.0000       3.739016       101.7438 
 730   0.0000       3.756408       102.2171 
 731   0.0000       3.762325       102.3781 
 732   0.0000       3.770641       102.6043 
 733   0.0000       3.774834       102.7185 
 734   0.0000       3.782896       102.9378 
 735   0.0000       3.790472       103.1440 
 736   0.0000       3.795622       103.2841 
 737   0.0000       3.809255       103.6551 
 738   0.0000       3.811022       103.7032 
 739   0.0000       3.821599       103.9910 
 740   0.0000       3.829451       104.2047 
 741   0.0000       3.832688       104.2927 
 742   0.0000       3.844839       104.6234 
 743   0.0000       3.848501       104.7230 
 744   0.0000       3.861190       105.0683 
 745   0.0000       3.865714       105.1914 
 746   0.0000       3.873745       105.4100 
 747   0.0000       3.887138       105.7744 
 748   0.0000       3.889945       105.8508 
 749   0.0000       3.898919       106.0950 
 750   0.0000       3.908150       106.3462 
 751   0.0000       3.912241       106.4575 
 752   0.0000       3.917284       106.5947 
 753   0.0000       3.924959       106.8036 
 754   0.0000       3.931859       106.9913 
 755   0.0000       3.933645       107.0399 
 756   0.0000       3.939832       107.2083 
 757   0.0000       3.947363       107.4132 
 758   0.0000       3.953013       107.5669 
 759   0.0000       3.960894       107.7814 
 760   0.0000       3.972688       108.1023 
 761   0.0000       3.976774       108.2135 
 762   0.0000       3.984787       108.4316 
 763   0.0000       3.987217       108.4977 
 764   0.0000       3.992158       108.6321 
 765   0.0000       4.001551       108.8877 
 766   0.0000       4.009493       109.1038 
 767   0.0000       4.017869       109.3318 
 768   0.0000       4.030131       109.6654 
 769   0.0000       4.032800       109.7381 
 770   0.0000       4.040633       109.9512 
 771   0.0000       4.044519       110.0570 
 772   0.0000       4.045462       110.0826 
 773   0.0000       4.050864       110.2296 
 774   0.0000       4.072420       110.8162 
 775   0.0000       4.078640       110.9854 
 776   0.0000       4.083217       111.1100 
 777   0.0000       4.090042       111.2957 
 778   0.0000       4.107198       111.7625 
 779   0.0000       4.110916       111.8637 
 780   0.0000       4.116926       112.0273 
 781   0.0000       4.125428       112.2586 
 782   0.0000       4.134529       112.5062 
 783   0.0000       4.139519       112.6420 
 784   0.0000       4.143748       112.7571 
 785   0.0000       4.146168       112.8230 
 786   0.0000       4.155718       113.0828 
 787   0.0000       4.170783       113.4928 
 788   0.0000       4.178452       113.7015 
 789   0.0000       4.184032       113.8533 
 790   0.0000       4.194775       114.1456 
 791   0.0000       4.202774       114.3633 
 792   0.0000       4.216643       114.7407 
 793   0.0000       4.220799       114.8538 
 794   0.0000       4.232092       115.1611 
 795   0.0000       4.241881       115.4275 
 796   0.0000       4.251725       115.6953 
 797   0.0000       4.256028       115.8124 
 798   0.0000       4.265247       116.0633 
 799   0.0000       4.288738       116.7025 
 800   0.0000       4.294805       116.8676 
 801   0.0000       4.299869       117.0054 
 802   0.0000       4.306802       117.1940 
 803   0.0000       4.312892       117.3598 
 804   0.0000       4.317097       117.4742 
 805   0.0000       4.328228       117.7771 
 806   0.0000       4.335620       117.9782 
 807   0.0000       4.345754       118.2540 
 808   0.0000       4.358475       118.6001 
 809   0.0000       4.366252       118.8118 
 810   0.0000       4.374752       119.0431 
 811   0.0000       4.383984       119.2943 
 812   0.0000       4.394380       119.5772 
 813   0.0000       4.396176       119.6260 
 814   0.0000       4.409426       119.9866 
 815   0.0000       4.417926       120.2179 
 816   0.0000       4.424885       120.4072 
 817   0.0000       4.444192       120.9326 
 818   0.0000       4.448878       121.0601 
 819   0.0000       4.462147       121.4212 
 820   0.0000       4.477886       121.8495 
 821   0.0000       4.484865       122.0394 
 822   0.0000       4.486407       122.0813 
 823   0.0000       4.498836       122.4196 
 824   0.0000       4.507487       122.6549 
 825   0.0000       4.516466       122.8993 
 826   0.0000       4.526565       123.1741 
 827   0.0000       4.537544       123.4728 
 828   0.0000       4.538830       123.5078 
 829   0.0000       4.546854       123.7262 
 830   0.0000       4.554589       123.9367 
 831   0.0000       4.569692       124.3477 
 832   0.0000       4.581816       124.6776 
 833   0.0000       4.594394       125.0198 
 834   0.0000       4.607464       125.3755 
 835   0.0000       4.614392       125.5640 
 836   0.0000       4.622535       125.7856 
 837   0.0000       4.632950       126.0690 
 838   0.0000       4.652953       126.6133 
 839   0.0000       4.669546       127.0648 
 840   0.0000       4.673366       127.1688 
 841   0.0000       4.685073       127.4873 
 842   0.0000       4.687955       127.5657 
 843   0.0000       4.694559       127.7454 
 844   0.0000       4.716593       128.3450 
 845   0.0000       4.723859       128.5427 
 846   0.0000       4.736994       128.9002 
 847   0.0000       4.740017       128.9824 
 848   0.0000       4.744788       129.1123 
 849   0.0000       4.760080       129.5283 
 850   0.0000       4.774936       129.9326 
 851   0.0000       4.789668       130.3335 
 852   0.0000       4.803834       130.7190 
 853   0.0000       4.808415       130.8436 
 854   0.0000       4.830581       131.4468 
 855   0.0000       4.838360       131.6585 
 856   0.0000       4.846696       131.8853 
 857   0.0000       4.859459       132.2326 
 858   0.0000       4.879197       132.7697 
 859   0.0000       4.886053       132.9563 
 860   0.0000       4.899640       133.3260 
 861   0.0000       4.904172       133.4493 
 862   0.0000       4.911875       133.6589 
 863   0.0000       4.921240       133.9137 
 864   0.0000       4.932777       134.2277 
 865   0.0000       4.948426       134.6535 
 866   0.0000       4.964869       135.1010 
 867   0.0000       4.972951       135.3209 
 868   0.0000       4.983677       135.6127 
 869   0.0000       4.991204       135.8176 
 870   0.0000       4.995880       135.9448 
 871   0.0000       5.008129       136.2781 
 872   0.0000       5.038547       137.1058 
 873   0.0000       5.040230       137.1516 
 874   0.0000       5.047754       137.3564 
 875   0.0000       5.052489       137.4852 
 876   0.0000       5.068465       137.9199 
 877   0.0000       5.084180       138.3476 
 878   0.0000       5.100574       138.7937 
 879   0.0000       5.118879       139.2918 
 880   0.0000       5.127034       139.5137 
 881   0.0000       5.137925       139.8101 
 882   0.0000       5.142285       139.9287 
 883   0.0000       5.150665       140.1567 
 884   0.0000       5.163917       140.5173 
 885   0.0000       5.174313       140.8002 
 886   0.0000       5.179425       140.9393 
 887   0.0000       5.202373       141.5638 
 888   0.0000       5.212736       141.8458 
 889   0.0000       5.225667       142.1976 
 890   0.0000       5.240494       142.6011 
 891   0.0000       5.245750       142.7441 
 892   0.0000       5.261588       143.1751 
 893   0.0000       5.288692       143.9126 
 894   0.0000       5.293488       144.0431 
 895   0.0000       5.302355       144.2844 
 896   0.0000       5.314914       144.6262 
 897   0.0000       5.321822       144.8141 
 898   0.0000       5.342739       145.3833 
 899   0.0000       5.363107       145.9376 
 900   0.0000       5.367200       146.0489 
 901   0.0000       5.372318       146.1882 
 902   0.0000       5.383546       146.4937 
 903   0.0000       5.404242       147.0569 
 904   0.0000       5.413995       147.3223 
 905   0.0000       5.420649       147.5033 
 906   0.0000       5.431480       147.7981 
 907   0.0000       5.449420       148.2862 
 908   0.0000       5.467197       148.7700 
 909   0.0000       5.471536       148.8881 
 910   0.0000       5.480058       149.1200 
 911   0.0000       5.481229       149.1518 
 912   0.0000       5.496079       149.5559 
 913   0.0000       5.502617       149.7338 
 914   0.0000       5.524434       150.3275 
 915   0.0000       5.539169       150.7284 
 916   0.0000       5.556663       151.2045 
 917   0.0000       5.576813       151.7528 
 918   0.0000       5.586042       152.0039 
 919   0.0000       5.595078       152.2498 
 920   0.0000       5.609805       152.6506 
 921   0.0000       5.611406       152.6941 
 922   0.0000       5.624577       153.0525 
 923   0.0000       5.635067       153.3380 
 924   0.0000       5.642852       153.5498 
 925   0.0000       5.662925       154.0960 
 926   0.0000       5.672775       154.3641 
 927   0.0000       5.681511       154.6018 
 928   0.0000       5.686130       154.7275 
 929   0.0000       5.706321       155.2769 
 930   0.0000       5.715450       155.5253 
 931   0.0000       5.718917       155.6196 
 932   0.0000       5.736492       156.0979 
 933   0.0000       5.750296       156.4735 
 934   0.0000       5.767056       156.9296 
 935   0.0000       5.789605       157.5432 
 936   0.0000       5.795427       157.7016 
 937   0.0000       5.810624       158.1151 
 938   0.0000       5.812411       158.1637 
 939   0.0000       5.835731       158.7983 
 940   0.0000       5.850418       159.1980 
 941   0.0000       5.873379       159.8228 
 942   0.0000       5.888125       160.2240 
 943   0.0000       5.913476       160.9139 
 944   0.0000       5.921699       161.1376 
 945   0.0000       6.014686       163.6679 
 946   0.0000       6.038955       164.3283 
 947   0.0000       6.093875       165.8228 
 948   0.0000       6.113077       166.3453 
 949   0.0000       6.138019       167.0240 
 950   0.0000       6.139611       167.0673 
 951   0.0000       6.168807       167.8618 
 952   0.0000       6.184845       168.2982 
 953   0.0000       6.201740       168.7579 
 954   0.0000       6.228702       169.4916 
 955   0.0000       6.230464       169.5396 
 956   0.0000       6.244003       169.9080 
 957   0.0000       6.269715       170.6076 
 958   0.0000       6.275556       170.7666 
 959   0.0000       6.295600       171.3120 
 960   0.0000       6.323711       172.0769 
 961   0.0000       6.336072       172.4133 
 962   0.0000       6.337760       172.4592 
 963   0.0000       6.371386       173.3742 
 964   0.0000       6.374337       173.4545 
 965   0.0000       6.395225       174.0229 
 966   0.0000       6.418772       174.6637 
 967   0.0000       6.429603       174.9584 
 968   0.0000       6.501196       176.9065 
 969   0.0000       6.528547       177.6508 
 970   0.0000       6.585111       179.1900 
 971   0.0000       6.675749       181.6564 
 972   0.0000       6.839378       186.1089 
 973   0.0000       6.863182       186.7567 
 974   0.0000       6.880453       187.2267 
 975   0.0000       6.904892       187.8917 
 976   0.0000       6.923693       188.4033 
 977   0.0000       6.963957       189.4989 
 978   0.0000       6.992702       190.2811 
 979   0.0000       6.995637       190.3610 
 980   0.0000       7.013755       190.8540 
 981   0.0000       7.039053       191.5424 
 982   0.0000       7.041598       191.6116 
 983   0.0000       7.067852       192.3260 
 984   0.0000       7.116866       193.6598 
 985   0.0000       7.162530       194.9024 
 986   0.0000       7.295128       198.5105 
 987   0.0000       7.349264       199.9836 
 988   0.0000       7.401430       201.4031 
 989   0.0000       7.447256       202.6502 
 990   0.0000       7.530784       204.9231 
 991   0.0000       7.621294       207.3859 
 992   0.0000       7.685978       209.1461 
 993   0.0000       7.700599       209.5439 
 994   0.0000       7.795656       212.1306 
 995   0.0000       7.902078       215.0265 
 996   0.0000       7.971560       216.9172 
 997   0.0000       8.048018       218.9977 
 998   0.0000       8.294138       225.6950 
 999   0.0000       9.417422       256.2611 
 1000   0.0000       9.438413       256.8323 
 1001   0.0000       9.441840       256.9255 
 1002   0.0000       9.457019       257.3386 
 1003   0.0000       9.471828       257.7415 
 1004   0.0000       9.499592       258.4970 
 1005   0.0000       9.694649       263.8048 
 1006   0.0000      10.093788       274.6659 
 1007   0.0000      10.105726       274.9908 
 1008   0.0000      10.117896       275.3219 
 1009   0.0000      10.209292       277.8090 
 1010   0.0000      10.218358       278.0557 
 1011   0.0000      10.242559       278.7142 
 1012   0.0000      10.360005       281.9101 
 1013   0.0000      10.404024       283.1079 
 1014   0.0000      10.497066       285.6397 
 1015   0.0000      12.996868       353.6628 
 1016   0.0000      17.243142       469.2098 
 1017   0.0000      17.922348       487.6919 
 1018   0.0000      18.296732       497.8794 
 1019   0.0000      18.523813       504.0586 
 1020   0.0000      18.742337       510.0049 
 1021   0.0000      18.905424       514.4428 
 1022   0.0000      20.450136       556.4765 
 1023   0.0000      20.902015       568.7727 
 1024   0.0000      21.828858       593.9934 

                 SPIN DOWN ORBITALS
  NO   OCC          E(Eh)            E(eV) 
   0   1.0000    -261.562197     -7117.4692 
   1   1.0000    -104.785818     -2851.3671 
   2   1.0000    -104.781829     -2851.2585 
   3   1.0000    -104.780941     -2851.2343 
   4   1.0000     -32.071523      -872.7105 
   5   1.0000     -27.549463      -749.6590 
   6   1.0000     -27.549405      -749.6574 
   7   1.0000     -27.549162      -749.6508 
   8   1.0000     -20.586182      -560.1785 
   9   1.0000     -11.413296      -310.5716 
  10   1.0000     -11.303600      -307.5866 
  11   1.0000     -11.269528      -306.6594 
  12   1.0000     -11.263315      -306.4904 
  13   1.0000     -11.259217      -306.3789 
  14   1.0000     -11.257645      -306.3361 
  15   1.0000     -11.245168      -305.9966 
  16   1.0000     -11.241824      -305.9056 
  17   1.0000     -10.512385      -286.0565 
  18   1.0000     -10.508384      -285.9477 
  19   1.0000     -10.507460      -285.9225 
  20   1.0000      -7.978274      -217.0999 
  21   1.0000      -7.977657      -217.0831 
  22   1.0000      -7.977602      -217.0816 
  23   1.0000      -7.974282      -216.9913 
  24   1.0000      -7.973604      -216.9728 
  25   1.0000      -7.973516      -216.9704 
  26   1.0000      -7.973442      -216.9684 
  27   1.0000      -7.972633      -216.9464 
  28   1.0000      -7.972547      -216.9440 
  29   1.0000      -4.146397      -112.8292 
  30   1.0000      -2.668034       -72.6009 
  31   1.0000      -2.668018       -72.6005 
  32   1.0000      -2.667327       -72.5816 
  33   1.0000      -1.426391       -38.8141 
  34   1.0000      -1.148626       -31.2557 
  35   1.0000      -1.089702       -29.6523 
  36   1.0000      -1.044297       -28.4168 
  37   1.0000      -1.032353       -28.0918 
  38   1.0000      -1.030898       -28.0522 
  39   1.0000      -1.028862       -27.9968 
  40   1.0000      -1.000186       -27.2164 
  41   1.0000      -0.974426       -26.5155 
  42   1.0000      -0.912346       -24.8262 
  43   1.0000      -0.814009       -22.1503 
  44   1.0000      -0.746655       -20.3175 
  45   1.0000      -0.700176       -19.0528 
  46   1.0000      -0.689749       -18.7690 
  47   1.0000      -0.682992       -18.5852 
  48   1.0000      -0.667035       -18.1510 
  49   1.0000      -0.635782       -17.3005 
  50   1.0000      -0.621784       -16.9196 
  51   1.0000      -0.604048       -16.4370 
  52   1.0000      -0.596380       -16.2283 
  53   1.0000      -0.582608       -15.8536 
  54   1.0000      -0.573086       -15.5945 
  55   1.0000      -0.564889       -15.3714 
  56   1.0000      -0.557728       -15.1765 
  57   1.0000      -0.552761       -15.0414 
  58   1.0000      -0.545719       -14.8498 
  59   1.0000      -0.538038       -14.6408 
  60   1.0000      -0.515904       -14.0385 
  61   1.0000      -0.509287       -13.8584 
  62   1.0000      -0.491010       -13.3611 
  63   1.0000      -0.477473       -12.9927 
  64   1.0000      -0.475550       -12.9404 
  65   1.0000      -0.447232       -12.1698 
  66   1.0000      -0.444333       -12.0909 
  67   1.0000      -0.441836       -12.0230 
  68   1.0000      -0.426405       -11.6031 
  69   1.0000      -0.422515       -11.4972 
  70   1.0000      -0.407776       -11.0962 
  71   1.0000      -0.369849       -10.0641 
  72   0.0000       0.011662         0.3173 
  73   0.0000       0.021896         0.5958 
  74   0.0000       0.023038         0.6269 
  75   0.0000       0.029945         0.8148 
  76   0.0000       0.037856         1.0301 
  77   0.0000       0.039954         1.0872 
  78   0.0000       0.042363         1.1528 
  79   0.0000       0.044363         1.2072 
  80   0.0000       0.044648         1.2149 
  81   0.0000       0.050614         1.3773 
  82   0.0000       0.056860         1.5472 
  83   0.0000       0.060359         1.6425 
  84   0.0000       0.062907         1.7118 
  85   0.0000       0.064241         1.7481 
  86   0.0000       0.065095         1.7713 
  87   0.0000       0.072440         1.9712 
  88   0.0000       0.076371         2.0782 
  89   0.0000       0.080934         2.2023 
  90   0.0000       0.089916         2.4467 
  91   0.0000       0.091597         2.4925 
  92   0.0000       0.093523         2.5449 
  93   0.0000       0.097647         2.6571 
  94   0.0000       0.100509         2.7350 
  95   0.0000       0.103111         2.8058 
  96   0.0000       0.106459         2.8969 
  97   0.0000       0.111978         3.0471 
  98   0.0000       0.112805         3.0696 
  99   0.0000       0.114745         3.1224 
 100   0.0000       0.116154         3.1607 
 101   0.0000       0.118019         3.2115 
 102   0.0000       0.121008         3.2928 
 103   0.0000       0.123143         3.3509 
 104   0.0000       0.124288         3.3820 
 105   0.0000       0.126104         3.4315 
 106   0.0000       0.129227         3.5165 
 107   0.0000       0.130438         3.5494 
 108   0.0000       0.132635         3.6092 
 109   0.0000       0.135976         3.7001 
 110   0.0000       0.136935         3.7262 
 111   0.0000       0.139678         3.8008 
 112   0.0000       0.144422         3.9299 
 113   0.0000       0.147088         4.0025 
 114   0.0000       0.152430         4.1478 
 115   0.0000       0.153897         4.1878 
 116   0.0000       0.159061         4.3283 
 117   0.0000       0.161550         4.3960 
 118   0.0000       0.163238         4.4419 
 119   0.0000       0.167003         4.5444 
 120   0.0000       0.171080         4.6553 
 121   0.0000       0.174149         4.7388 
 122   0.0000       0.179068         4.8727 
 123   0.0000       0.180086         4.9004 
 124   0.0000       0.183339         4.9889 
 125   0.0000       0.188609         5.1323 
 126   0.0000       0.191324         5.2062 
 127   0.0000       0.193626         5.2688 
 128   0.0000       0.198479         5.4009 
 129   0.0000       0.200643         5.4598 
 130   0.0000       0.202347         5.5061 
 131   0.0000       0.203436         5.5358 
 132   0.0000       0.205898         5.6028 
 133   0.0000       0.209163         5.6916 
 134   0.0000       0.217724         5.9246 
 135   0.0000       0.220749         6.0069 
 136   0.0000       0.224787         6.1168 
 137   0.0000       0.227874         6.2008 
 138   0.0000       0.230023         6.2592 
 139   0.0000       0.234893         6.3918 
 140   0.0000       0.237768         6.4700 
 141   0.0000       0.240587         6.5467 
 142   0.0000       0.243383         6.6228 
 143   0.0000       0.248503         6.7621 
 144   0.0000       0.250249         6.8096 
 145   0.0000       0.250737         6.8229 
 146   0.0000       0.253886         6.9086 
 147   0.0000       0.259626         7.0648 
 148   0.0000       0.262844         7.1523 
 149   0.0000       0.268816         7.3148 
 150   0.0000       0.273901         7.4532 
 151   0.0000       0.277845         7.5605 
 152   0.0000       0.281214         7.6522 
 153   0.0000       0.282766         7.6945 
 154   0.0000       0.287823         7.8321 
 155   0.0000       0.291795         7.9402 
 156   0.0000       0.294563         8.0155 
 157   0.0000       0.299311         8.1447 
 158   0.0000       0.300735         8.1834 
 159   0.0000       0.307292         8.3618 
 160   0.0000       0.309403         8.4193 
 161   0.0000       0.319962         8.7066 
 162   0.0000       0.322789         8.7835 
 163   0.0000       0.324308         8.8249 
 164   0.0000       0.329627         8.9696 
 165   0.0000       0.331371         9.0171 
 166   0.0000       0.337805         9.1922 
 167   0.0000       0.341813         9.3012 
 168   0.0000       0.344678         9.3792 
 169   0.0000       0.346249         9.4219 
 170   0.0000       0.351164         9.5557 
 171   0.0000       0.356439         9.6992 
 172   0.0000       0.360117         9.7993 
 173   0.0000       0.363287         9.8856 
 174   0.0000       0.365047         9.9334 
 175   0.0000       0.367522        10.0008 
 176   0.0000       0.371040        10.0965 
 177   0.0000       0.373763        10.1706 
 178   0.0000       0.382240        10.4013 
 179   0.0000       0.385243        10.4830 
 180   0.0000       0.387401        10.5417 
 181   0.0000       0.389787        10.6066 
 182   0.0000       0.392477        10.6798 
 183   0.0000       0.395870        10.7722 
 184   0.0000       0.397169        10.8075 
 185   0.0000       0.398432        10.8419 
 186   0.0000       0.399078        10.8595 
 187   0.0000       0.401572        10.9273 
 188   0.0000       0.406284        11.0555 
 189   0.0000       0.412777        11.2322 
 190   0.0000       0.417879        11.3711 
 191   0.0000       0.418887        11.3985 
 192   0.0000       0.421940        11.4816 
 193   0.0000       0.427870        11.6429 
 194   0.0000       0.432322        11.7641 
 195   0.0000       0.437166        11.8959 
 196   0.0000       0.440066        11.9748 
 197   0.0000       0.441572        12.0158 
 198   0.0000       0.446684        12.1549 
 199   0.0000       0.451782        12.2936 
 200   0.0000       0.457534        12.4501 
 201   0.0000       0.459961        12.5162 
 202   0.0000       0.464446        12.6382 
 203   0.0000       0.465741        12.6734 
 204   0.0000       0.468334        12.7440 
 205   0.0000       0.470729        12.8092 
 206   0.0000       0.477458        12.9923 
 207   0.0000       0.480284        13.0692 
 208   0.0000       0.482383        13.1263 
 209   0.0000       0.485357        13.2072 
 210   0.0000       0.488180        13.2841 
 211   0.0000       0.495989        13.4965 
 212   0.0000       0.496449        13.5091 
 213   0.0000       0.498541        13.5660 
 214   0.0000       0.503362        13.6972 
 215   0.0000       0.504831        13.7372 
 216   0.0000       0.507455        13.8085 
 217   0.0000       0.510693        13.8967 
 218   0.0000       0.514676        14.0050 
 219   0.0000       0.516023        14.0417 
 220   0.0000       0.520741        14.1701 
 221   0.0000       0.523130        14.2351 
 222   0.0000       0.527022        14.3410 
 223   0.0000       0.531021        14.4498 
 224   0.0000       0.531795        14.4709 
 225   0.0000       0.535805        14.5800 
 226   0.0000       0.539635        14.6842 
 227   0.0000       0.540178        14.6990 
 228   0.0000       0.542167        14.7531 
 229   0.0000       0.549442        14.9511 
 230   0.0000       0.550629        14.9834 
 231   0.0000       0.555513        15.1163 
 232   0.0000       0.560923        15.2635 
 233   0.0000       0.564363        15.3571 
 234   0.0000       0.566923        15.4268 
 235   0.0000       0.571594        15.5539 
 236   0.0000       0.573773        15.6132 
 237   0.0000       0.574982        15.6461 
 238   0.0000       0.584236        15.8979 
 239   0.0000       0.586367        15.9559 
 240   0.0000       0.587732        15.9930 
 241   0.0000       0.589961        16.0536 
 242   0.0000       0.595280        16.1984 
 243   0.0000       0.600901        16.3513 
 244   0.0000       0.603495        16.4219 
 245   0.0000       0.605682        16.4814 
 246   0.0000       0.607715        16.5368 
 247   0.0000       0.616784        16.7835 
 248   0.0000       0.622073        16.9275 
 249   0.0000       0.623434        16.9645 
 250   0.0000       0.627301        17.0697 
 251   0.0000       0.630194        17.1484 
 252   0.0000       0.638078        17.3630 
 253   0.0000       0.640936        17.4408 
 254   0.0000       0.644209        17.5298 
 255   0.0000       0.644291        17.5320 
 256   0.0000       0.652115        17.7450 
 257   0.0000       0.656393        17.8613 
 258   0.0000       0.657603        17.8943 
 259   0.0000       0.663959        18.0672 
 260   0.0000       0.664331        18.0774 
 261   0.0000       0.668288        18.1850 
 262   0.0000       0.673421        18.3247 
 263   0.0000       0.679236        18.4829 
 264   0.0000       0.680488        18.5170 
 265   0.0000       0.688694        18.7403 
 266   0.0000       0.689255        18.7556 
 267   0.0000       0.692450        18.8425 
 268   0.0000       0.700044        19.0492 
 269   0.0000       0.704494        19.1703 
 270   0.0000       0.710475        19.3330 
 271   0.0000       0.715486        19.4694 
 272   0.0000       0.719222        19.5710 
 273   0.0000       0.724572        19.7166 
 274   0.0000       0.726760        19.7761 
 275   0.0000       0.732296        19.9268 
 276   0.0000       0.736746        20.0479 
 277   0.0000       0.741147        20.1676 
 278   0.0000       0.742754        20.2114 
 279   0.0000       0.750296        20.4166 
 280   0.0000       0.752613        20.4796 
 281   0.0000       0.757150        20.6031 
 282   0.0000       0.762140        20.7389 
 283   0.0000       0.766196        20.8493 
 284   0.0000       0.771017        20.9804 
[...]
  | sigma^2 in % of trace(Dip) retained ...   1.89e+01
  | sigma^2 in % of trace(Dpq) retained ...   1.34e-01
  | Av. % of trace(Di) retained         ...  99.998513039171
  | Av. % of trace(Dp) retained         ...  99.999998863767
  | sigma^2 in % of trace(Di) retained  ...   7.02e-07
  | sigma^2 in % of trace(Dp) retained  ...   3.79e-13
 Distributions of % trace(Dij) recovered:
  |       >= 99.9  ...   105 ( 20.9 % of all IJ-pairs)
  |   [80.0, 90.0) ...    31 (  6.2 % of all IJ-pairs)
  |   [90.0, 99.0) ...   275 ( 54.7 % of all IJ-pairs)
  |   [99.0, 99.9) ...    92 ( 18.3 % of all IJ-pairs)
 Distributions of % trace(Dip) recovered:
  |   [80.0, 90.0) ...    18 ( 15.1 % of all IP-pairs)
  |   [90.0, 99.0) ...    57 ( 47.9 % of all IP-pairs)
  |   [99.0, 99.9) ...    44 ( 37.0 % of all IP-pairs)
 Distributions of % trace(Dpq) recovered:
  |       >= 99.9  ...     5 ( 33.3 % of all PQ-pairs)
  |   [99.0, 99.9) ...    10 ( 66.7 % of all PQ-pairs)
 Distributions of % trace(Di) recovered :
  |       >= 99.9  ...    43 (100.0 % of all I-pairs )
 Distributions of % trace(Dp) recovered :
  |       >= 99.9  ...     5 (100.0 % of all P-pairs )

                       ===========================
                       1107 OF 1688 PAIRS ARE KEPT
                       ===========================

 Initial PAO correlation energy (all pairs)    ...  -2.6935606468 Eh
 Energy constituents in PAO basis (Eh):
  | Vijab(+0) ...  -2.2657877675
  | Viab (-1) ...  -0.1745616440
  | Vab  (-2) ...  -0.0573532412
  | Va   (-1) ...  -0.0000430677
  | Vija (+1) ...  -0.0718181819
  | Vij  (+2) ...  -0.0155051234
  | Via  (+0) ...  -0.1083319304
  | Vi   (+1) ...  -0.0001596906
 Initial PNO correlation energy                ...  -2.6589563700 Eh
 Energy constituents in PNO basis (Eh):
  | Vijab(+0) ...  -2.2469995337 (err=  0.0187882338)
  | Viab (-1) ...  -0.1604030332 (err=  0.0141586109)
  | Vab  (-2) ...  -0.0569016586 (err=  0.0004515827)
  | Va   (-1) ...  -0.0000249883 (err=  0.0000180794)
  | Vija (+1) ...  -0.0707906703 (err=  0.0010275116)
  | Vij  (+2) ...  -0.0154449227 (err=  0.0000602008)
  | Via  (+0) ...  -0.1082322533 (err=  0.0000996771)
  | Vi   (+1) ...  -0.0001593099 (err=  0.0000003807)
 Sum of total truncation errors ...   0.0346042768 Eh
  | Pair screening ...   0.0116403020 Eh
  | PNO truncation ...   0.0229639748 Eh

 UMP2 correlation energy (PAO) ...  -2.6886264563
  | alpha-alpha ...  -0.3866006372 (NP_aa=  909)
  | alpha-beta  ...  -1.9950783102 (NP_ab= 1663)
  | beta -beta  ...  -0.3069475089 (NP_bb=  721)
 UMP2 correlation energy (PNO) ...  -2.6536368033
  | alpha-alpha ...  -0.3745295675 (err=  0.0120710697, NP_aa=  589)
  | alpha-beta  ...  -1.9762810829 (err=  0.0187972272, NP_ab= 1082)
  | beta -beta  ...  -0.3028261528 (err=  0.0041213561, NP_bb=  460)
 Sum of total UMP2 truncation errors ...   0.0349896530 Eh
  | Pair screening ...   0.0116585989 Eh
  | PNO truncation ...   0.0233310541 Eh
 Timing for NEV-PNO construction (sec.)
  | Intermediate construction  ..           49.605
  | Amplitude construction     ..           66.401
  | Total time                 ..          116.006
 Making pair pair interaction lists ...      ok
 Total size for 2-ext PNO integrals ...     11.0 MB
Checking the number of SOMO/SOMO doubles PNOs ... 
 #Truncate: (72, 72)[176] -> [85] .. 
 #Truncate: (73, 73)[179] -> [85] .. 
 #Truncate: (74, 74)[177] -> [85] .. 
 #Truncate: (75, 75)[178] -> [85] .. 
 #Truncate: (76, 76)[178] -> [85] .. 

--------------------------------
LOCAL RI TRANSFORMATION (VABPAO)
--------------------------------

Number of PAOs:    1030
Basis functions:   1025 (343 shells)
Aux. functions:    2424 (644 shells)

Processing maps (0.0 sec)
Average map sizes:
   Aux shells -> PAOs           1030.0
   PAOs       -> AO shells       343.0

Calculating integrals (187.7 sec, 37370.165 MB)
Finished
-----------------------------
LOCAL RI TRANSFORMATION (IJV)
-----------------------------

Orbital window:      29 to 76
Basis functions:   1025 (343 shells)
Aux. functions:    2424 (644 shells)

Processing maps (0.0 sec)
Average map sizes:
   Aux shells -> MOs(i)           46.6
   Aux shells -> MOs(j)           48.0
   MOs        -> AO shells       338.6

Calculating integrals (22.9 sec, 41.515 MB)
Sorting integrals (0.3 sec, 41.488 MB)
Total time for the integral transformation: 23.3 sec


-------------------------------------
Pair Pair Term precalculation with     
RI-(ij|mn) and (im|jn) transformation  
ON THE FLY                             
-------------------------------------

   IBatch   1 (of   3)              ... done (  988.205 sec)
   IBatch   2 (of   3)              ... done ( 1464.839 sec)
   IBatch   3 (of   3)              ... done (  129.323 sec)
Total EXT                           ...        2582.367 sec

---------------------
RI-PNO TRANSFORMATION
---------------------

Total Number of PNOs                   ... 34397
Total Number of IJ-PNOs                ... 30225
Total Number of IP-PNOs                ...  3219
Total Number of PQ-PNOs                ...   953
Total Number of IJ-pairs               ...   963
Total Number of PI-pairs               ...   119
Total Number of PQ-pairs               ...    25
Average number of PNOs per pair        ...    31
Maximal number of PNOs per pair        ...    85
>> Statistics for ij-pairs..
   #pairs with  1 -  5 PNOs   :    0
   #pairs with  6 - 10 PNOs   :    0
   #pairs with 11 - 15 PNOs   :   72
   #pairs with 16 - 20 PNOs   :  232
   #pairs with 21 - 25 PNOs   :  162
   #pairs with 26 - 30 PNOs   :  142
   #pairs with 31 - 35 PNOs   :   58
   #pairs with 36 - 40 PNOs   :   52
   #pairs with 41 - 45 PNOs   :   50
   #pairs with 46 - 50 PNOs   :   22
   #pairs with 51 - 55 PNOs   :   39
   #pairs with 56 - 60 PNOs   :   52
   #pairs with 61 - 65 PNOs   :   77
   #pairs with 66 - 70 PNOs   :    2
   #pairs with 76 - 80 PNOs   :    1
   #pairs with 81 - 85 PNOs   :    2
>> Statistics for ip-pairs..
   #pairs with  1 -  5 PNOs   :    0
   #pairs with  6 - 10 PNOs   :    1
   #pairs with 11 - 15 PNOs   :   17
   #pairs with 16 - 20 PNOs   :    3
   #pairs with 21 - 25 PNOs   :   28
   #pairs with 26 - 30 PNOs   :   12
   #pairs with 31 - 35 PNOs   :   44
   #pairs with 36 - 40 PNOs   :   14
   #pairs with 41 - 45 PNOs   :    0
   #pairs with 46 - 50 PNOs   :    0
>> Statistics for pq-pairs..
   #pairs with  1 -  5 PNOs   :    0
   #pairs with  6 - 10 PNOs   :    0
   #pairs with 11 - 15 PNOs   :    0
   #pairs with 16 - 20 PNOs   :    0
   #pairs with 21 - 25 PNOs   :   10
   #pairs with 26 - 30 PNOs   :   10
   #pairs with 31 - 35 PNOs   :    0
   #pairs with 36 - 40 PNOs   :    0
   #pairs with 41 - 45 PNOs   :    0
   #pairs with 46 - 50 PNOs   :    0
   #pairs with 81 - 85 PNOs   :    5

Generation of (ij|ab)[P] integrals            ... on
Generation of (ia|bc)[P],(ja|bc)[P] integrals ... on
Storage of 3 and 4 external integrals         ... on
Generation of ALL (ka|bc)[P] integrals        ... on
Keep RI integrals in memory                   ... off

Ibatch:  1 (of  1)
Starting 2-4 index PNO integral generation ... done

Timings:
Total PNO integral transformation time     ...       2417.249 sec
Size of the 3-external file                ...       287 MB
Size of the 4-external file                ...      1955 MB
Size of the IKJL file                      ...        18 MB
Size of the all 3-external file            ...      6903 MB
Size of the 1-external file                ...        22 MB

Size of the PAO/PNO coefficient matrices   ...     221.5 MB

Making pair/pair overlap matrices          ... done (  401.063 sec)
Size of the pair overlap file              ...    2439.0 MB
Total # unrestricted pairs ...       2131
  # of alpha-alpha pairs   ...        589
  # of alpha-beta pairs    ...       1082
  # of beta-beta pairs     ...        460
Constructing the guess amplitudes          ... done (    0.666 sec)

-------------------------
FINAL STARTUP INFORMATION
-------------------------

E(0)                                       ...  -3028.440114572
E(SL-UMP2 in NEV-PNO space)                ...     -2.689650345
Initial E(tot)                             ...  -3031.129764917
<T|T>                                      ...      0.535208755
Number of unrestricted pairs included      ... 2131
Total number of pairs                      ... 4095
----------------------------------------------------------
                     OPEN-SHELL COUPLED CLUSTER ITERATIONS
----------------------------------------------------------

Number of PNO amplitudes to be optimized        ...          2115098
Number of canonical amplitudes for strong pairs ...       1924725687
Untruncated number of canonical amplitudes      ...       3698645738

Iter       E(tot)           E(Corr)          Delta-E          Residual     Time
  0  -3031.136930941     -2.660802827      0.028847518      0.020670181 1980.00
                           *** Turning on DIIS ***
  1  -3031.249790311     -2.773662197     -0.112859370      0.008824899 1981.73
  2  -3031.314357362     -2.838229248     -0.064567051      0.008300657 1987.27
  3  -3031.335733109     -2.859604995     -0.021375747      0.002916235 1977.16
  4  -3031.343029170     -2.866901056     -0.007296061      0.002668685 1984.07
  5  -3031.346966364     -2.870838250     -0.003937194      0.001597388 1985.60
  6  -3031.348394427     -2.872266313     -0.001428063      0.000929902 1990.44
  7  -3031.349107659     -2.872979545     -0.000713232      0.000657646 1986.20
  8  -3031.349270882     -2.873142767     -0.000163223      0.000299796 1988.75
  9  -3031.349329882     -2.873201768     -0.000059001      0.000209731 1981.18
 10  -3031.349326631     -2.873198516      0.000003252      0.000125385 1990.06
 11  -3031.349338981     -2.873210866     -0.000012350      0.000084428 1991.09
 12  -3031.349345102     -2.873216988     -0.000006121      0.000040550 1888.93
 13  -3031.349347734     -2.873219619     -0.000002632      0.000017910 1682.47
 14  -3031.349349302     -2.873221188     -0.000001568      0.000006046 1691.98
               --- The CCSD iterations have converged ---

E(0)                                       ...  -3028.440114572
E(CORR)(strong-pairs)                      ...     -2.873221188
E(CORR)(weak-pairs)                        ...     -0.036013542
E(CORR)(corrected)                         ...     -2.909234730
E(TOT)                                     ...  -3031.349349302
Singles norm <S|S>**1/2                    ...      0.193439836 ( 0.064987725, 0.128452111)  
T1 diagnostic                              ...      0.020278005                              
<S**2>(linearized)                         ...      8.7507989 (ideal value:      8.7500000)

----------------------
LARGEST PNO AMPLITUDES
----------------------
  50b-> 76b  -1b-> -1b       0.054975
  71a-> 78a  71b-> 78b       0.054305
  48b-> 72b  -1b-> -1b       0.053331
  51b-> 76b  -1b-> -1b       0.053220
  71a-> 77a  71b-> 77b       0.052751
  44a-> 77a  -1a-> -1a       0.047061
  48b-> 74b  -1b-> -1b       0.046634
  44b-> 77b  -1b-> -1b       0.046010
  48b-> 75b  -1b-> -1b       0.045908
  65a-> 77a  65b-> 77b       0.045102
  54a-> 77a  54b-> 77b       0.044726
  61a-> 77a  61b-> 77b       0.044327
  69a-> 77a  69b-> 77b       0.043812
  55a-> 78a  55b-> 78b       0.043303
  38b-> 73b  -1b-> -1b       0.043094
  63a-> 77a  63b-> 77b       0.042856

Total # unrestricted pairs ...       1162
  # of alpha-alpha pairs   ...        320
  # of alpha-beta pairs    ...        581
  # of beta-beta pairs     ...        261

-------------------------------------------
DLPNO BASED TRIPLES CORRECTION
-------------------------------------------

Singles multiplier          ...  1.000000
Fragment selection                          .... not used
TCutTNO                     ... 1.000e-09
TCutMP2Pairs                ... 1.000e-05
TCutDOStrong                ... 2.000e-02
TCutMKNStrong               ... 1.000e-02
TCutDOWeak                  ... 4.000e-02
TCutMKNWeak                 ... 1.000e-01
NTCutTNO                    ... 1

Number of Triples that are to be computed         ...     34360

 . . . . . . . . .
10% done  
20% done  
30% done  
40% done  
50% done  
60% done  
70% done  
80% done  
90% done  
          Batch   1   done (  14905.214 sec)

Triples-Correction TCutTNO=   1.000e-09 (NWeakPairs = 0  1  2  3)  -0.117647375811   -0.001915706197    0.000000000000    0.000000000000
Triples-Correction  -0.119563082007

Triples timings:
Total time                      ... 15522.868 sec

Triples List generation         ...     0.000 sec
TNO generation                  ...   617.418 sec
Pair density generation         ...     0.087 sec
Look up tables                  ...     0.109 sec
Generating 3-index integrals    ...  9174.129 sec
Make 4-ind.int. from 3-ind.int  ...     3.434 sec
Projecting amplitudes (D + S)   ...  5457.216 sec
Sorting integrals for spin cases...    55.197 sec
Calculate W0/W1                 ...   174.093 sec
Energy contr. (sum over a,b,c)  ...    41.008 sec

Everything after 3-index        ...  5858.314 sec

Energy contribution AAA         ...    26.417 sec
Energy contribution AAB         ...   118.940 sec
Energy contribution ABB         ...   109.739 sec
Energy contribution BBB         ...    15.246 sec
prep                ...     3.185 sec
makeTTNO            ...  5401.734 sec
copyij              ...     0.125 sec
copyil              ...     4.048 sec
transposeij         ...     0.077 sec
newMatInDoubleProj  ...    51.859 sec
BlasInDoubleProj    ...  2929.777 sec
ProjSingles         ...    45.617 sec
ProjDoubles         ...  5411.598 sec
overall Doubles for projection      ... 3081538
used Doubles for projection         ... 3081538


Number of Triples   (0, 1, 2, 3 weak pairs; overall):  16148   12309       0       0  ( 28457)
Number of Atoms     (0, 1, 2, 3 weak pairs; overall):   19.7    14.3     0.0     0.0  (    29)
Number of PAOs      (0, 1, 2, 3 weak pairs; overall):  767.2   579.1     0.0     0.0  (  1025)
Number of AuxFcns   (0, 1, 2, 3 weak pairs; overall):  887.0   573.9     0.0     0.0  (  2424)
Number of TNOs (0, 1, 2, 3 weak pairs         ):   79.0    55.9     0.0     0.0
Aver. Number of NTNO, Atoms, PAOs, AuxFcns / Triples:  28457    69.0    17.3   685.8   751.5

Triples Correction (T)                     ...     -0.119563082
    alpha-alpha-alpha ... -0.003887255 (  3.3%)
    alpha-alpha-beta  ... -0.056135688 ( 47.0%)
    alpha-beta -beta  ... -0.055421493 ( 46.4%)
    beta -beta -beta  ... -0.004118646 (  3.4%)
Final correlation energy                   ...     -3.028797812
E(CCSD)                                    ...  -3031.349349302
E(CCSD(T))                                 ...  -3031.468912384

----------------------------
STATISTICS FOR PAIR-ENERGIES
----------------------------
Minimum, maximum and average ratios of UMP and CCSD pair-energies ... 0.54, 1.44, 1.02


------------------------------------------------------------------------------- 
                                     TIMINGS                                   
------------------------------------------------------------------------------- 


Total execution time                   ...    53340.811 sec

Localization of occupied MO's          ...       10.000 sec (  0.0%)
Fock Matrix Formation                  ...     1427.024 sec (  2.7%)
Differential overlap integrals         ...        1.514 sec (  0.0%)
Organizing maps                        ...        1.691 sec (  0.0%)
RI 3-index integral generations        ...      275.425 sec (  0.5%)
RI-PNO integral transformation         ...     5426.297 sec ( 10.2%)
Initial Guess                          ...     1852.516 sec (  3.5%)
DIIS Solver                            ...       15.336 sec (  0.0%)
State Vector Update                    ...        0.703 sec (  0.0%)
Sigma-vector construction              ...    29086.934 sec ( 54.5%)
  <0|H|D>                              ...        0.029 sec (  0.0% of sigma)
  <D|H|D>(0-ext)                       ...     5461.587 sec ( 18.8% of sigma)
  <D|H|D>(2-ext Fock)                  ...        1.565 sec (  0.0% of sigma)
  <D|H|D>(2-ext)                       ...     4355.606 sec ( 15.0% of sigma)
  <D|H|D>(4-ext)                       ...      164.580 sec (  0.6% of sigma)
  <D|H|D>(4-ext-corr)                  ...     1003.513 sec (  3.5% of sigma)
  CCSD doubles correction              ...      529.393 sec (  1.8% of sigma)
  <S|H|S>                              ...      652.224 sec (  2.2% of sigma)
  <S|H|D>(1-ext)                       ...      236.826 sec (  0.8% of sigma)
  <D|H|S>(1-ext)                       ...        0.848 sec (  0.0% of sigma)
  <S|H|D>(3-ext)                       ...       20.603 sec (  0.1% of sigma)
  CCSD singles correction              ...        0.004 sec (  0.0% of sigma)
  Fock-dressing                        ...     7865.452 sec ( 27.0% of sigma)
  Singles amplitudes                   ...      105.737 sec (  0.4% of sigma)
  (ik|jl)-dressing                     ...     7025.728 sec ( 24.2% of sigma)
  (ij|ab),(ia|jb)-dressing             ...     1451.861 sec (  5.0% of sigma)
  Pair energies                        ...        0.144 sec (  0.0% of sigma)
Total Time for computing (T)           ...    15592.705 sec ( 29.2% of ALL)


-------------------------   --------------------
FINAL SINGLE POINT ENERGY     -3031.468912383742
-------------------------   --------------------


                            ***************************************
                            *     ORCA property calculations      *
                            ***************************************

                                    ---------------------
                                    Active property flags
                                    ---------------------
   (+) Dipole Moment


------------------------------------------------------------------------------
                       ORCA ELECTRIC PROPERTIES CALCULATION
------------------------------------------------------------------------------

Dipole Moment Calculation                       ... on
Quadrupole Moment Calculation                   ... off
Polarizability Calculation                      ... off
GBWName                                         ... simple-grid-225-260-b3lyp_d3bj-631gd-gas-singlepoint-DLPNO_CCSD_T1-NormalPNO-augtz-gas.gbw
Electron density file                           ... simple-grid-225-260-b3lyp_d3bj-631gd-gas-singlepoint-DLPNO_CCSD_T1-NormalPNO-augtz-gas.scfp.tmp
The origin for moment calculation is the CENTER OF MASS  = ( 0.308069,  0.033903  0.015192)

-------------
DIPOLE MOMENT
-------------
                                X             Y             Z
Electronic contribution:     41.94579       4.21112       1.68037
Nuclear contribution   :    -45.90237      -5.05163      -2.26363
                        -----------------------------------------
Total Dipole Moment    :     -3.95658      -0.84051      -0.58326
                        -----------------------------------------
Magnitude (a.u.)       :      4.08671
Magnitude (Debye)      :     10.38759



--------------------
Rotational spectrum 
--------------------
 
Rotational constants in cm-1:     0.019103     0.011175     0.010509 
Rotational constants in MHz :   572.697159   335.017731   315.047801 

 Dipole components along the rotational axes: 
x,y,z [a.u.] :    -3.950484     0.841553    -0.621829 
x,y,z [Debye]:   -10.041332     2.139058    -1.580563 

 

Timings for individual modules:

Sum of individual times         ...    69319.281 sec (=1155.321 min)
GTO integral calculation        ...       12.145 sec (=   0.202 min)   0.0 %
SCF iterations                  ...    15949.153 sec (= 265.819 min)  23.0 %
MDCI module                     ...    53357.982 sec (= 889.300 min)  77.0 %
                             ****ORCA TERMINATED NORMALLY****
TOTAL RUN TIME: 0 days 19 hours 15 minutes 21 seconds 662 msec
