
                                 *****************
                                 * O   R   C   A *
                                 *****************

           --- An Ab Initio, DFT and Semiempirical electronic structure package ---

                  #######################################################
                  #                        -***-                        #
                  #          Department of theory and spectroscopy      #
                  #               Directorship: Frank Neese             #
                  #        Max Planck Institute fuer Kohlenforschung    #
                  #                Kaiser Wilhelm Platz 1               #
                  #                 D-45470 Muelheim/Ruhr               #
                  #                      Germany                        #
                  #                                                     #
                  #                  All rights reserved                #
                  #                        -***-                        #
                  #######################################################


                         Program Version 4.1.2  - RELEASE  -


 With contributions from (in alphabetic order):
   Daniel Aravena         : Magnetic Properties
   Michael Atanasov       : Ab Initio Ligand Field Theory
   Alexander A. Auer      : GIAO ZORA
   Ute Becker             : Parallelization
   Giovanni Bistoni       : ED, Open-shell LED
   Martin Brehm           : Molecular dynamics
   Dmytro Bykov           : SCF Hessian
   Vijay G. Chilkuri      : MRCI spin determinant printing
   Dipayan Datta          : RHF DLPNO-CCSD density
   Achintya Kumar Dutta   : EOM-CC, STEOM-CC
   Dmitry Ganyushin       : Spin-Orbit,Spin-Spin,Magnetic field MRCI
   Miquel Garcia          : C-PCM Hessian
   Yang Guo               : DLPNO-NEVPT2, CIM, IAO-localization
   Andreas Hansen         : Spin unrestricted coupled pair/coupled cluster methods
   Benjamin Helmich-Paris : CASSCF linear response (MC-RPA)
   Lee Huntington         : MR-EOM, pCC
   Robert Izsak           : Overlap fitted RIJCOSX, COSX-SCS-MP3, EOM
   Christian Kollmar      : KDIIS, OOCD, Brueckner-CCSD(T), CCSD density
   Simone Kossmann        : Meta GGA functionals, TD-DFT gradient, OOMP2, MP2 Hessian
   Martin Krupicka        : AUTO-CI
   Lucas Lang             : DCDCAS
   Dagmar Lenk            : GEPOL surface, SMD
   Dimitrios Liakos       : Extrapolation schemes; parallel MDCI
   Dimitrios Manganas     : ROCIS; embedding schemes
   Dimitrios Pantazis     : SARC Basis sets
   Taras Petrenko         : DFT Hessian,TD-DFT gradient, ASA, ECA, R-Raman, ABS, FL, XAS/XES, NRVS
   Peter Pinski           : DLPNO-MP2, DLPNO-MP2 Gradient
   Christoph Reimann      : Effective Core Potentials
   Marius Retegan         : Local ZFS, SOC
   Christoph Riplinger    : Optimizer, TS searches, QM/MM, DLPNO-CCSD(T), (RO)-DLPNO pert. Triples
   Tobias Risthaus        : Range-separated hybrids, TD-DFT gradient, RPA, STAB
   Michael Roemelt        : Restricted open shell CIS
   Masaaki Saitow         : Open-shell DLPNO
   Barbara Sandhoefer     : DKH picture change effects
   Avijit Sen             : IP-ROCIS
   Kantharuban Sivalingam : CASSCF convergence, NEVPT2, FIC-MRCI
   Bernardo de Souza      : ESD, SOC TD-DFT
   Georgi Stoychev        : AutoAux, RI-MP2 NMR
   Willem Van den Heuvel  : Paramagnetic NMR
   Boris Wezisla          : Elementary symmetry handling
   Frank Wennmohs         : Technical directorship


 We gratefully acknowledge several colleagues who have allowed us to
 interface, adapt or use parts of their codes:
   Stefan Grimme, W. Hujo, H. Kruse,             : VdW corrections, initial TS optimization,
                  C. Bannwarth                     DFT functionals, gCP, sTDA/sTD-DF
   Ed Valeev                                     : LibInt (2-el integral package), F12 methods
   Garnet Chan, S. Sharma, J. Yang, R. Olivares  : DMRG
   Ulf Ekstrom                                   : XCFun DFT Library
   Mihaly Kallay                                 : mrcc  (arbitrary order and MRCC methods)
   Andreas Klamt, Michael Diedenhofen            : otool_cosmo (COSMO solvation model)
   Jiri Pittner, Ondrej Demel                    : Mk-CCSD
   Frank Weinhold                                : gennbo (NPA and NBO analysis)
   Christopher J. Cramer and Donald G. Truhlar   : smd solvation model
   Lars Goerigk                                  : TD-DFT with DH, B97 family of functionals
   V. Asgeirsson, H. Jonsson                     : NEB implementation
   FAccTs GmbH                                   : IRC, NEB, NEB-TS, Multilevel


 Your calculation uses the libint2 library for the computation of 2-el integrals
 For citations please refer to: http://libint.valeyev.net

 This ORCA versions uses:
   CBLAS   interface :  Fast vector & matrix operations
   LAPACKE interface :  Fast linear algebra routines
   SCALAPACK package :  Parallel linear algebra routines


----- Orbital basis set information -----
Your calculation utilizes the basis: aug-cc-pVTZ 
    H, B-Ne : Obtained from the ccRepo (grant-hill.group.shef.ac.uk/ccrepo) Feb. 2017
              R. A. Kendall, T. H. Dunning, Jr., R. J. Harrison, J. Chem. Phys. 96, 6796 (1992)
         He : Obtained from the ccRepo (grant-hill.group.shef.ac.uk/ccrepo) Feb. 2017
              D. E. Woon, T. H. Dunning, Jr., J. Chem. Phys. 100, 2975 (1994)
  Li-Be, Na : Obtained from the ccRepo (grant-hill.group.shef.ac.uk/ccrepo) Feb. 2017
              B. P. Prascher, D. E. Woon, K. A. Peterson, T. H. Dunning, Jr., A. K. Wilson, Theor. Chem. Acc. 128, 69 (2011)
         Mg : Obtained from the Peterson Research Group Website (tyr0.chem.wsu.edu/~kipeters) Feb. 2017
              B. P. Prascher, D. E. Woon, K. A. Peterson, T. H. Dunning, Jr., A. K. Wilson, Theor. Chem. Acc. 128, 69 (2011)
      Al-Ar : Obtained from the ccRepo (grant-hill.group.shef.ac.uk/ccrepo) Feb. 2017
              D. E. Woon, T. H. Dunning, Jr., J. Chem. Phys. 98, 1358 (1993)
      Sc-Zn : Obtained from the ccRepo (grant-hill.group.shef.ac.uk/ccrepo) Feb. 2017
              N. B. Balabanov, K. A. Peterson, J. Chem. Phys. 123, 064107 (2005)
              N. B. Balabanov, K. A. Peterson, J. Chem. Phys. 125, 074110 (2006)
      Ga-Kr : Obtained from the ccRepo (grant-hill.group.shef.ac.uk/ccrepo) Feb. 2017
              A. K. Wilson, D. E. Woon, K. A. Peterson, T. H. Dunning, Jr., J. Chem. Phys. 110, 7667 (1999)
     Ag, Au : Obtained from the Peterson Research Group Website (tyr0.chem.wsu.edu/~kipeters) Feb. 2017
              K. A. Peterson, C. Puzzarini, Theor. Chem. Acc. 114, 283 (2005)

----- AuxJ basis set information -----
Your calculation utilizes the AutoAux generation procedure.
  G. L. Stoychev, A. A. Auer, F. Neese, J. Chem. Theory Comput. 13, 554 (2017)

----- AuxC basis set information -----
Your calculation utilizes the auxiliary basis: aug-cc-pVTZ/C 
  H-He, B-F, Al-Ar, Ga-Kr : Obtained from the EMSL Basis Set Exchange (bse.pnl.gov) Feb. 2017
                            F. Weigend, A. Kohn, C. Hattig, J. Chem. Phys. 116, 3175 (2002)
                   Be, Mg : Obtained from the TURBOMOLE 7.0 basis set library
                            C. Haettig, Phys. Chem. Chem. Phys. 7, 59 (2005)
                       Ne : Obtained from the EMSL Basis Set Exchange (bse.pnl.gov) Feb. 2017
                            C. Haettig, Phys. Chem. Chem. Phys. 7, 59 (2005)
                            F. Weigend, A. Kohn, C. Hattig, J. Chem. Phys. 116, 3175 (2002)
                    Sc-Zn : Obtained from the EMSL Basis Set Exchange (bse.pnl.gov) Feb. 2017
                            J. G. Hill, J. A. Platts, J. Chem. Phys. 128, 044104 (2008)

----- AuxJK basis set information -----
Your calculation utilizes the AutoAux generation procedure.
  G. L. Stoychev, A. A. Auer, F. Neese, J. Chem. Theory Comput. 13, 554 (2017)

================================================================================
                                        WARNINGS
                       Please study these warnings very carefully!
================================================================================


WARNING: your system is open-shell and RHF/RKS was chosen
  ===> : WILL SWITCH to UHF/UKS


WARNING: MDCI localization with Augmented Hessian Foster-Boys
  ===> : Switching off randomization!

WARNING: Post HF methods need fully converged wavefunctions
  ===> : Setting SCFConvForced true
         You can overwrite this default with %scf ConvForced false 


INFO   : the flag for use of LIBINT has been found!

================================================================================
                                       INPUT FILE
================================================================================
NAME = simple-grid-275-295-b3lyp_d3bj-631gd-gas-singlepoint-DLPNO_CCSD_T1-NormalPNO-augtz-gas.inp
|  1> ! aug-cc-pVTZ aug-cc-pVTZ/C DLPNO-CCSD(T1) TightSCF NormalPNO UNO MiniPrint AutoAux
|  2> %pal nproc 10 end
|  3> %maxcore 20000
|  4> %mdci
|  5>      density none
|  6> end
|  7> 
|  8> * xyz 0 6
|  9>  O      0.16813200      0.40714500     -0.88910500
| 10>  C      0.95471500      1.36066900     -0.68395100
| 11>  C      3.07489500      0.13560800      0.56767500
| 12>  C      2.69858900     -0.92816300     -0.17059700
| 13>  C      3.20793700     -1.13136500     -1.57204800
| 14> Fe     -1.49265800     -0.17195100      0.00960500
| 15> Cl     -2.05426500     -2.00009700     -1.02318700
| 16>  C      1.77401300     -2.00723800      0.31324900
| 17> Cl     -2.76586100      1.56950000     -0.35292000
| 18> Cl     -1.05749200     -0.44587700      2.14261200
| 19>  H      3.79186900      0.82398600      0.11868400
| 20>  H      2.29527300     -2.97381500      0.31618800
| 21>  H      1.37862100     -1.83079800      1.31321800
| 22>  H      0.92635200     -2.12040800     -0.37541000
| 23>  H      3.75285600     -2.08202600     -1.64003300
| 24>  H      2.37518600     -1.20384800     -2.28463400
| 25>  H      3.88390500     -0.33336300     -1.89250100
| 26>  C      2.80963700      0.35008500      2.03451400
| 27>  H      3.60781200     -0.11020900      2.63287300
| 28>  H      2.80469200      1.41444500      2.28948000
| 29>  H      1.86145800     -0.07992200      2.36609800
| 30>  C      0.78769600      2.25331700      0.50484200
| 31>  H      1.67460400      2.85933900      0.69237200
| 32>  H     -0.05159300      2.92358900      0.26552100
| 33>  H      0.50751700      1.69120900      1.39615300
| 34>  C      1.79922100      1.83385700     -1.82733300
| 35>  H      1.22863300      2.63798800     -2.31538400
| 36>  H      2.74748300      2.25612800     -1.49235900
| 37>  H      1.95868500      1.04068700     -2.55584900
| 38> *
| 39> 
| 40> 
| 41>                          ****END OF INPUT****
================================================================================

                       ****************************
                       * Single Point Calculation *
                       ****************************

---------------------------------
CARTESIAN COORDINATES (ANGSTROEM)
---------------------------------
  O      0.168132    0.407145   -0.889105
  C      0.954715    1.360669   -0.683951
  C      3.074895    0.135608    0.567675
  C      2.698589   -0.928163   -0.170597
  C      3.207937   -1.131365   -1.572048
  Fe    -1.492658   -0.171951    0.009605
  Cl    -2.054265   -2.000097   -1.023187
  C      1.774013   -2.007238    0.313249
  Cl    -2.765861    1.569500   -0.352920
  Cl    -1.057492   -0.445877    2.142612
  H      3.791869    0.823986    0.118684
  H      2.295273   -2.973815    0.316188
  H      1.378621   -1.830798    1.313218
  H      0.926352   -2.120408   -0.375410
  H      3.752856   -2.082026   -1.640033
  H      2.375186   -1.203848   -2.284634
  H      3.883905   -0.333363   -1.892501
  C      2.809637    0.350085    2.034514
  H      3.607812   -0.110209    2.632873
  H      2.804692    1.414445    2.289480
  H      1.861458   -0.079922    2.366098
  C      0.787696    2.253317    0.504842
  H      1.674604    2.859339    0.692372
  H     -0.051593    2.923589    0.265521
  H      0.507517    1.691209    1.396153
  C      1.799221    1.833857   -1.827333
  H      1.228633    2.637988   -2.315384
  H      2.747483    2.256128   -1.492359
  H      1.958685    1.040687   -2.555849

----------------------------
CARTESIAN COORDINATES (A.U.)
----------------------------
  NO LB      ZA    FRAG     MASS         X           Y           Z
   0 O     8.0000    0    15.999    0.317723    0.769393   -1.680165
   1 C     6.0000    0    12.011    1.804150    2.571292   -1.292480
   2 C     6.0000    0    12.011    5.810709    0.256262    1.072750
   3 C     6.0000    0    12.011    5.099594   -1.753974   -0.322382
   4 C     6.0000    0    12.011    6.062122   -2.137970   -2.970740
   5 Fe   26.0000    0    55.850   -2.820715   -0.324940    0.018151
   6 Cl   17.0000    0    35.453   -3.881998   -3.779636   -1.933543
   7 C     6.0000    0    12.011    3.352399   -3.793130    0.591955
   8 Cl   17.0000    0    35.453   -5.226720    2.965925   -0.666922
   9 Cl   17.0000    0    35.453   -1.998370   -0.842585    4.048950
  10 H     1.0000    0     1.008    7.165594    1.557108    0.224280
  11 H     1.0000    0     1.008    4.337437   -5.619696    0.597509
  12 H     1.0000    0     1.008    2.605216   -3.459707    2.481622
  13 H     1.0000    0     1.008    1.750552   -4.006990   -0.709422
  14 H     1.0000    0     1.008    7.091870   -3.934459   -3.099213
  15 H     1.0000    0     1.008    4.488451   -2.274943   -4.317333
  16 H     1.0000    0     1.008    7.339517   -0.629965   -3.576309
  17 C     6.0000    0    12.011    5.309444    0.661565    3.844674
  18 H     1.0000    0     1.008    6.817777   -0.208265    4.975409
  19 H     1.0000    0     1.008    5.300100    2.672914    4.326490
  20 H     1.0000    0     1.008    3.517646   -0.151031    4.471277
  21 C     6.0000    0    12.011    1.488530    4.258152    0.954013
  22 H     1.0000    0     1.008    3.164543    5.403368    1.308393
  23 H     1.0000    0     1.008   -0.097497    5.524783    0.501762
  24 H     1.0000    0     1.008    0.959068    3.195922    2.638347
  25 C     6.0000    0    12.011    3.400035    3.465487   -3.453159
  26 H     1.0000    0     1.008    2.321780    4.985075   -4.375442
  27 H     1.0000    0     1.008    5.191990    4.263464   -2.820150
  28 H     1.0000    0     1.008    3.701378    1.966613   -4.829855



           ************************************************************
           *        Program running with 10 parallel MPI-processes    *
           *              working on a common directory               *
           ************************************************************


           ************************************************************
           *        Program running with 10 parallel MPI-processes    *
           *              working on a common directory               *
           ************************************************************

Diagonalization of the overlap matrix:
Smallest eigenvalue                        ... 9.364e-07
Time for diagonalization                   ...    0.323 sec
Threshold for overlap eigenvalues          ... 1.000e-08
Number of eigenvalues below threshold      ... 0
Time for construction of square roots      ...    0.267 sec
Total time needed                          ...    0.594 sec

-------------------
DFT GRID GENERATION
-------------------

General Integration Accuracy     IntAcc      ...  4.340
Radial Grid Type                 RadialGrid  ... Gauss-Chebyshev
Angular Grid (max. acc.)         AngularGrid ... Lebedev-110
Angular grid pruning method      GridPruning ... 3 (G Style)
Weight generation scheme         WeightScheme... Becke
Basis function cutoff            BFCut       ...    1.0000e-11
Integration weight cutoff        WCut        ...    1.0000e-14
Grids for H and He will be reduced by one unit

# of grid points (after initial pruning)     ...  36112 (   0.0 sec)
# of grid points (after weights+screening)   ...  32458 (   0.1 sec)
nearest neighbour list constructed           ...    0.0 sec
Grid point re-assignment to atoms done       ...    0.0 sec
Grid point division into batches done        ...    0.0 sec
Reduced shell lists constructed in    0.2 sec

Total number of grid points                  ...    32458
Total number of batches                      ...      521
Average number of points per batch           ...       62
Average number of grid points per atom       ...     1119
Average number of shells per batch           ...   284.17 (82.85%)
Average number of basis functions per batch  ...   841.39 (82.09%)
Average number of large shells per batch     ...   229.87 (80.89%)
Average number of large basis fcns per batch ...   682.80 (81.15%)
Maximum spatial batch extension              ...   7.15,  5.88,  9.52 au
Average spatial batch extension              ...   0.19,  0.19,  0.19 au

Time for grid setup =    0.339 sec

Loading Hartree-Fock densities                     ... done
Calculating cut-offs                               ... done
Setting up the integral package                    ... done
Initializing the effective Hamiltonian             ... done
Starting the Coulomb interaction                   ... done (   1.1 sec)
Reading the grid                                   ... done
Mapping shells                                     ... done
Starting the XC term evaluation                    ... done (   0.8 sec)
Transforming the Hamiltonian                       ... done (   0.2 sec)
Diagonalizing the Hamiltonian                      ... done (   0.3 sec)
Back transforming the eigenvectors                 ... done (   0.1 sec)
Now organizing SCF variables                       ... done
--------------
SCF ITERATIONS
--------------
ITER       Energy         Delta-E        Max-DP      RMS-DP      [F,P]     Damp
               ***  Starting incremental Fock matrix formation  ***
  0  -3027.6005434882   0.000000000000 0.15399387  0.00085635  0.2420874 0.7000
  1  -3027.8543115571  -0.253768068920 0.11718074  0.00067652  0.1540705 0.7000
                               ***Turning on DIIS***
  2  -3028.0241040978  -0.169792540702 0.08422947  0.00050215  0.1094872 0.7000
  3  -3029.6063350505  -1.582230952688 0.24028923  0.00128523  0.0817218 0.0000
  4  -3028.3177490915   1.288585959053 0.04077073  0.00021335  0.0193380 0.0000
  5  -3028.4406275203  -0.122878428803 0.03939312  0.00016850  0.0108620 0.0000
  6  -3028.4888649964  -0.048237476145 0.01989867  0.00006877  0.0052550 0.0000
  7  -3028.5018796523  -0.013014655876 0.00872009  0.00003170  0.0030383 0.0000
  8  -3028.4905262917   0.011353360628 0.00649118  0.00001824  0.0015844 0.0000
  9  -3028.4869246112   0.003601680430 0.00226751  0.00001053  0.0006662 0.0000
 10  -3028.4745445089   0.012380102294 0.00092366  0.00000326  0.0004112 0.0000
 11  -3028.4800745276  -0.005530018673 0.00027151  0.00000166  0.0000877 0.0000
 12  -3028.4780676722   0.002006855449 0.00020292  0.00000120  0.0000218 0.0000
 13  -3028.4780171730   0.000050499165 0.00029714  0.00000153  0.0000091 0.0000
 14  -3028.4780279593  -0.000010786267 0.00042923  0.00000158  0.0000059 0.0000
 15  -3028.4779865393   0.000041419960 0.00031272  0.00000139  0.0000037 0.0000
 16  -3028.4779886809  -0.000002141593 0.00041520  0.00000197  0.0000031 0.0000
 17  -3028.4780041191  -0.000015438242 0.00026407  0.00000133  0.0000021 0.0000
 18  -3028.4779874326   0.000016686550 0.00096135  0.00000283  0.0000015 0.0000
                            ***DIIS convergence achieved***

               *****************************************************
               *                     SUCCESS                       *
               *           SCF CONVERGED AFTER  19 CYCLES          *
               *****************************************************

Total Energy       :        -3028.47799246 Eh          -82409.07577 eV
  Last Energy change         ...   -5.0234e-06  Tolerance :   1.0000e-08
  Last MAX-Density change    ...    2.3570e-04  Tolerance :   1.0000e-07
             **** THE GBW FILE WAS UPDATED (simple-grid-275-295-b3lyp_d3bj-631gd-gas-singlepoint-DLPNO_CCSD_T1-NormalPNO-augtz-gas.gbw) ****
             **** DENSITY FILE WAS UPDATED (simple-grid-275-295-b3lyp_d3bj-631gd-gas-singlepoint-DLPNO_CCSD_T1-NormalPNO-augtz-gas.scfp.tmp) ****
             **** ENERGY FILE WAS UPDATED (simple-grid-275-295-b3lyp_d3bj-631gd-gas-singlepoint-DLPNO_CCSD_T1-NormalPNO-augtz-gas.en.tmp) ****
----------------------
UHF SPIN CONTAMINATION
----------------------

Expectation value of <S**2>     :     8.765050
Ideal value S*(S+1) for S=2.5   :     8.750000
Deviation                       :     0.015050

----------------
ORBITAL ENERGIES
----------------
                 SPIN UP ORBITALS
  NO   OCC          E(Eh)            E(eV) 
   0   1.0000    -261.576921     -7117.8699 
   1   1.0000    -104.794869     -2851.6134 
   2   1.0000    -104.791570     -2851.5236 
   3   1.0000    -104.789417     -2851.4650 
   4   1.0000     -32.244617      -877.4206 
   5   1.0000     -27.721127      -754.3302 
   6   1.0000     -27.719942      -754.2980 
   7   1.0000     -27.719737      -754.2924 
   8   1.0000     -20.624268      -561.2149 
   9   1.0000     -11.422026      -310.8091 
  10   1.0000     -11.278588      -306.9060 
  11   1.0000     -11.273232      -306.7602 
  12   1.0000     -11.263628      -306.4989 
  13   1.0000     -11.242429      -305.9220 
  14   1.0000     -11.241735      -305.9032 
  15   1.0000     -11.235098      -305.7225 
  16   1.0000     -11.228031      -305.5303 
  17   1.0000     -10.521600      -286.3073 
  18   1.0000     -10.518265      -286.2165 
  19   1.0000     -10.516063      -286.1566 
  20   1.0000      -7.988427      -217.3761 
  21   1.0000      -7.987683      -217.3559 
  22   1.0000      -7.987630      -217.3545 
  23   1.0000      -7.985141      -217.2867 
  24   1.0000      -7.984363      -217.2656 
  25   1.0000      -7.984311      -217.2641 
  26   1.0000      -7.982850      -217.2244 
  27   1.0000      -7.982196      -217.2066 
  28   1.0000      -7.982148      -217.2053 
  29   1.0000      -4.599445      -125.1573 
  30   1.0000      -3.212614       -87.4197 
  31   1.0000      -3.210824       -87.3710 
  32   1.0000      -3.210662       -87.3666 
  33   1.0000      -1.467420       -39.9305 
  34   1.0000      -1.123393       -30.5691 
  35   1.0000      -1.101790       -29.9812 
  36   1.0000      -1.068089       -29.0642 
  37   1.0000      -1.062212       -28.9042 
  38   1.0000      -1.059157       -28.8211 
  39   1.0000      -1.021392       -27.7935 
  40   1.0000      -1.009242       -27.4629 
  41   1.0000      -0.956518       -26.0282 
  42   1.0000      -0.943761       -25.6810 
  43   1.0000      -0.928337       -25.2613 
  44   1.0000      -0.928185       -25.2572 
  45   1.0000      -0.917426       -24.9644 
  46   1.0000      -0.916774       -24.9467 
  47   1.0000      -0.894038       -24.3280 
  48   1.0000      -0.815740       -22.1974 
  49   1.0000      -0.727198       -19.7881 
  50   1.0000      -0.714214       -19.4348 
  51   1.0000      -0.704045       -19.1580 
  52   1.0000      -0.684085       -18.6149 
  53   1.0000      -0.652870       -17.7655 
  54   1.0000      -0.621221       -16.9043 
  55   1.0000      -0.619078       -16.8460 
  56   1.0000      -0.604816       -16.4579 
  57   1.0000      -0.599827       -16.3221 
  58   1.0000      -0.586157       -15.9501 
  59   1.0000      -0.579465       -15.7681 
  60   1.0000      -0.561034       -15.2665 
  61   1.0000      -0.550215       -14.9721 
  62   1.0000      -0.546123       -14.8608 
  63   1.0000      -0.538834       -14.6624 
  64   1.0000      -0.537613       -14.6292 
  65   1.0000      -0.524333       -14.2678 
  66   1.0000      -0.505077       -13.7438 
  67   1.0000      -0.490852       -13.3568 
  68   1.0000      -0.477721       -12.9995 
  69   1.0000      -0.477482       -12.9930 
  70   1.0000      -0.447827       -12.1860 
  71   1.0000      -0.441470       -12.0130 
  72   1.0000      -0.439567       -11.9612 
  73   1.0000      -0.431027       -11.7289 
  74   1.0000      -0.430063       -11.7026 
  75   1.0000      -0.428696       -11.6654 
  76   1.0000      -0.358063        -9.7434 
  77   0.0000       0.012639         0.3439 
  78   0.0000       0.023745         0.6461 
  79   0.0000       0.024453         0.6654 
  80   0.0000       0.030739         0.8364 
  81   0.0000       0.039351         1.0708 
  82   0.0000       0.041362         1.1255 
  83   0.0000       0.042714         1.1623 
  84   0.0000       0.043108         1.1730 
  85   0.0000       0.044372         1.2074 
  86   0.0000       0.056500         1.5374 
  87   0.0000       0.057518         1.5652 
  88   0.0000       0.061541         1.6746 
  89   0.0000       0.063852         1.7375 
  90   0.0000       0.064526         1.7558 
  91   0.0000       0.068564         1.8657 
  92   0.0000       0.073700         2.0055 
  93   0.0000       0.077711         2.1146 
  94   0.0000       0.082745         2.2516 
  95   0.0000       0.090070         2.4509 
  96   0.0000       0.091717         2.4957 
  97   0.0000       0.094004         2.5580 
  98   0.0000       0.097436         2.6514 
  99   0.0000       0.102270         2.7829 
 100   0.0000       0.104606         2.8465 
 101   0.0000       0.108066         2.9406 
 102   0.0000       0.117705         3.2029 
 103   0.0000       0.120042         3.2665 
 104   0.0000       0.123302         3.3552 
 105   0.0000       0.123477         3.3600 
 106   0.0000       0.125358         3.4112 
 107   0.0000       0.127051         3.4572 
 108   0.0000       0.130882         3.5615 
 109   0.0000       0.132832         3.6145 
 110   0.0000       0.135052         3.6749 
 111   0.0000       0.138224         3.7613 
 112   0.0000       0.141866         3.8604 
 113   0.0000       0.145816         3.9678 
 114   0.0000       0.148103         4.0301 
 115   0.0000       0.150864         4.1052 
 116   0.0000       0.156634         4.2622 
 117   0.0000       0.161435         4.3929 
 118   0.0000       0.162441         4.4202 
 119   0.0000       0.164306         4.4710 
 120   0.0000       0.168728         4.5913 
 121   0.0000       0.169788         4.6202 
 122   0.0000       0.174181         4.7397 
 123   0.0000       0.180650         4.9157 
 124   0.0000       0.182433         4.9643 
 125   0.0000       0.184158         5.0112 
 126   0.0000       0.186147         5.0653 
 127   0.0000       0.190259         5.1772 
 128   0.0000       0.193085         5.2541 
 129   0.0000       0.196117         5.3366 
 130   0.0000       0.197778         5.3818 
 131   0.0000       0.200276         5.4498 
 132   0.0000       0.203577         5.5396 
 133   0.0000       0.206757         5.6261 
 134   0.0000       0.210703         5.7335 
 135   0.0000       0.215589         5.8665 
 136   0.0000       0.216925         5.9028 
 137   0.0000       0.224285         6.1031 
 138   0.0000       0.225666         6.1407 
 139   0.0000       0.231215         6.2917 
 140   0.0000       0.233299         6.3484 
 141   0.0000       0.234694         6.3863 
 142   0.0000       0.237459         6.4616 
 143   0.0000       0.241372         6.5681 
 144   0.0000       0.242034         6.5861 
 145   0.0000       0.244884         6.6636 
 146   0.0000       0.252798         6.8790 
 147   0.0000       0.254411         6.9229 
 148   0.0000       0.257066         6.9951 
 149   0.0000       0.259592         7.0639 
 150   0.0000       0.260961         7.1011 
 151   0.0000       0.266305         7.2465 
 152   0.0000       0.273707         7.4479 
 153   0.0000       0.278300         7.5729 
 154   0.0000       0.280346         7.6286 
 155   0.0000       0.286414         7.7937 
 156   0.0000       0.289443         7.8761 
 157   0.0000       0.291886         7.9426 
 158   0.0000       0.295851         8.0505 
 159   0.0000       0.306256         8.3337 
 160   0.0000       0.308115         8.3842 
 161   0.0000       0.308982         8.4078 
 162   0.0000       0.316792         8.6203 
 163   0.0000       0.318436         8.6651 
 164   0.0000       0.322851         8.7852 
 165   0.0000       0.328761         8.9461 
 166   0.0000       0.332390         9.0448 
 167   0.0000       0.335900         9.1403 
 168   0.0000       0.337543         9.1850 
 169   0.0000       0.341541         9.2938 
 170   0.0000       0.344591         9.3768 
 171   0.0000       0.353057         9.6072 
 172   0.0000       0.354325         9.6417 
 173   0.0000       0.357396         9.7252 
 174   0.0000       0.358072         9.7436 
 175   0.0000       0.365209         9.9378 
 176   0.0000       0.367308         9.9950 
 177   0.0000       0.372466        10.1353 
 178   0.0000       0.374194        10.1823 
 179   0.0000       0.375622        10.2212 
 180   0.0000       0.377977        10.2853 
 181   0.0000       0.380149        10.3444 
 182   0.0000       0.381757        10.3881 
 183   0.0000       0.382622        10.4117 
 184   0.0000       0.390175        10.6172 
 185   0.0000       0.392340        10.6761 
 186   0.0000       0.395626        10.7655 
 187   0.0000       0.398869        10.8538 
 188   0.0000       0.402365        10.9489 
 189   0.0000       0.403530        10.9806 
 190   0.0000       0.406614        11.0645 
 191   0.0000       0.411900        11.2084 
 192   0.0000       0.413153        11.2425 
 193   0.0000       0.421157        11.4603 
 194   0.0000       0.421539        11.4707 
 195   0.0000       0.432318        11.7640 
 196   0.0000       0.434360        11.8195 
 197   0.0000       0.437803        11.9132 
 198   0.0000       0.439281        11.9534 
 199   0.0000       0.443394        12.0654 
 200   0.0000       0.448814        12.2128 
 201   0.0000       0.449719        12.2375 
 202   0.0000       0.455131        12.3847 
 203   0.0000       0.456630        12.4255 
 204   0.0000       0.459470        12.5028 
 205   0.0000       0.462677        12.5901 
 206   0.0000       0.465166        12.6578 
 207   0.0000       0.472518        12.8579 
 208   0.0000       0.478012        13.0074 
 209   0.0000       0.478907        13.0317 
 210   0.0000       0.483496        13.1566 
 211   0.0000       0.486742        13.2449 
 212   0.0000       0.491935        13.3862 
 213   0.0000       0.492615        13.4047 
 214   0.0000       0.497516        13.5381 
 215   0.0000       0.500074        13.6077 
 216   0.0000       0.503538        13.7020 
 217   0.0000       0.507870        13.8198 
 218   0.0000       0.509697        13.8696 
 219   0.0000       0.512839        13.9551 
 220   0.0000       0.513749        13.9798 
 221   0.0000       0.519120        14.1260 
 222   0.0000       0.522333        14.2134 
 223   0.0000       0.523443        14.2436 
 224   0.0000       0.526577        14.3289 
 225   0.0000       0.529368        14.4048 
 226   0.0000       0.532596        14.4927 
 227   0.0000       0.533228        14.5099 
 228   0.0000       0.539318        14.6756 
 229   0.0000       0.542196        14.7539 
 230   0.0000       0.542735        14.7686 
 231   0.0000       0.547569        14.9001 
 232   0.0000       0.553113        15.0510 
 233   0.0000       0.557411        15.1679 
 234   0.0000       0.559400        15.2220 
 235   0.0000       0.564977        15.3738 
 236   0.0000       0.569226        15.4894 
 237   0.0000       0.572677        15.5833 
 238   0.0000       0.573118        15.5953 
 239   0.0000       0.578483        15.7413 
 240   0.0000       0.582604        15.8534 
 241   0.0000       0.586025        15.9466 
 242   0.0000       0.588853        16.0235 
 243   0.0000       0.590047        16.0560 
 244   0.0000       0.595463        16.2034 
 245   0.0000       0.601095        16.3566 
 246   0.0000       0.605419        16.4743 
 247   0.0000       0.609712        16.5911 
 248   0.0000       0.610109        16.6019 
 249   0.0000       0.615139        16.7388 
 250   0.0000       0.616096        16.7648 
 251   0.0000       0.623142        16.9565 
 252   0.0000       0.629691        17.1348 
 253   0.0000       0.630585        17.1591 
 254   0.0000       0.634599        17.2683 
 255   0.0000       0.639812        17.4102 
 256   0.0000       0.640107        17.4182 
 257   0.0000       0.646062        17.5802 
 258   0.0000       0.649084        17.6625 
 259   0.0000       0.651398        17.7255 
 260   0.0000       0.657718        17.8974 
 261   0.0000       0.662798        18.0357 
 262   0.0000       0.665007        18.0958 
 263   0.0000       0.671214        18.2647 
 264   0.0000       0.671535        18.2734 
 265   0.0000       0.676006        18.3951 
 266   0.0000       0.681539        18.5456 
 267   0.0000       0.686322        18.6758 
 268   0.0000       0.691939        18.8286 
 269   0.0000       0.695440        18.9239 
 270   0.0000       0.697928        18.9916 
 271   0.0000       0.701979        19.1018 
 272   0.0000       0.709280        19.3005 
 273   0.0000       0.711048        19.3486 
 274   0.0000       0.715054        19.4576 
 275   0.0000       0.718683        19.5564 
 276   0.0000       0.724567        19.7165 
 277   0.0000       0.730839        19.8871 
 278   0.0000       0.733673        19.9643 
 279   0.0000       0.736046        20.0288 
 280   0.0000       0.743284        20.2258 
 281   0.0000       0.746130        20.3032 
 282   0.0000       0.754764        20.5382 
 283   0.0000       0.759211        20.6592 
 284   0.0000       0.763006        20.7624 
 285   0.0000       0.774943        21.0873 
 286   0.0000       0.777927        21.1685 
 287   0.0000       0.782938        21.3048 
 288   0.0000       0.792199        21.5568 
 289   0.0000       0.798246        21.7214 
 290   0.0000       0.808628        22.0039 
 291   0.0000       0.812100        22.0984 
 292   0.0000       0.815907        22.2020 
 293   0.0000       0.820628        22.3304 
 294   0.0000       0.828040        22.5321 
 295   0.0000       0.833751        22.6875 
 296   0.0000       0.838984        22.8299 
 297   0.0000       0.843434        22.9510 
 298   0.0000       0.850481        23.1428 
 299   0.0000       0.855941        23.2913 
 300   0.0000       0.859093        23.3771 
 301   0.0000       0.860184        23.4068 
 302   0.0000       0.865374        23.5480 
 303   0.0000       0.873202        23.7610 
 304   0.0000       0.876987        23.8640 
 305   0.0000       0.881161        23.9776 
 306   0.0000       0.883932        24.0530 
 307   0.0000       0.888452        24.1760 
 308   0.0000       0.894724        24.3467 
 309   0.0000       0.904614        24.6158 
 310   0.0000       0.908190        24.7131 
 311   0.0000       0.910716        24.7818 
 312   0.0000       0.912444        24.8289 
 313   0.0000       0.914841        24.8941 
 314   0.0000       0.919255        25.0142 
 315   0.0000       0.925365        25.1805 
 316   0.0000       0.929803        25.3012 
 317   0.0000       0.930273        25.3140 
 318   0.0000       0.938839        25.5471 
 319   0.0000       0.939520        25.5656 
 320   0.0000       0.944348        25.6970 
 321   0.0000       0.945554        25.7298 
 322   0.0000       0.947471        25.7820 
 323   0.0000       0.952139        25.9090 
 324   0.0000       0.955178        25.9917 
 325   0.0000       0.957143        26.0452 
 326   0.0000       0.963226        26.2107 
 327   0.0000       0.968075        26.3427 
 328   0.0000       0.970812        26.4171 
 329   0.0000       0.972744        26.4697 
 330   0.0000       0.973490        26.4900 
 331   0.0000       0.979182        26.6449 
 332   0.0000       0.983500        26.7624 
 333   0.0000       0.985378        26.8135 
 334   0.0000       0.990850        26.9624 
 335   0.0000       0.996410        27.1137 
 336   0.0000       1.001644        27.2561 
 337   0.0000       1.005208        27.3531 
 338   0.0000       1.007149        27.4059 
 339   0.0000       1.009259        27.4633 
 340   0.0000       1.013206        27.5707 
 341   0.0000       1.016743        27.6670 
 342   0.0000       1.019144        27.7323 
 343   0.0000       1.024309        27.8729 
 344   0.0000       1.026935        27.9443 
 345   0.0000       1.029811        28.0226 
 346   0.0000       1.035341        28.1731 
 347   0.0000       1.038131        28.2490 
 348   0.0000       1.043847        28.4045 
 349   0.0000       1.045219        28.4418 
 350   0.0000       1.049665        28.5628 
 351   0.0000       1.051988        28.6261 
 352   0.0000       1.056046        28.7365 
 353   0.0000       1.061590        28.8873 
 354   0.0000       1.066608        29.0239 
 355   0.0000       1.069221        29.0950 
 356   0.0000       1.071518        29.1575 
 357   0.0000       1.079760        29.3818 
 358   0.0000       1.082434        29.4545 
 359   0.0000       1.086325        29.5604 
 360   0.0000       1.087214        29.5846 
 361   0.0000       1.091888        29.7118 
 362   0.0000       1.095067        29.7983 
 363   0.0000       1.101268        29.9670 
 364   0.0000       1.101555        29.9748 
 365   0.0000       1.104997        30.0685 
 366   0.0000       1.112609        30.2756 
 367   0.0000       1.114948        30.3393 
 368   0.0000       1.118687        30.4410 
 369   0.0000       1.122798        30.5529 
 370   0.0000       1.130011        30.7492 
 371   0.0000       1.132824        30.8257 
 372   0.0000       1.139620        31.0106 
 373   0.0000       1.141276        31.0557 
 374   0.0000       1.143881        31.1266 
 375   0.0000       1.150625        31.3101 
 376   0.0000       1.151924        31.3454 
 377   0.0000       1.157470        31.4964 
 378   0.0000       1.165635        31.7186 
 379   0.0000       1.171491        31.8779 
 380   0.0000       1.175078        31.9755 
 381   0.0000       1.175375        31.9836 
 382   0.0000       1.181390        32.1472 
 383   0.0000       1.186234        32.2791 
 384   0.0000       1.192482        32.4491 
 385   0.0000       1.199083        32.6287 
 386   0.0000       1.199893        32.6507 
 387   0.0000       1.205881        32.8137 
 388   0.0000       1.207967        32.8705 
 389   0.0000       1.213310        33.0158 
 390   0.0000       1.219421        33.1821 
 391   0.0000       1.226754        33.3817 
 392   0.0000       1.229499        33.4564 
 393   0.0000       1.233135        33.5553 
 394   0.0000       1.238125        33.6911 
 395   0.0000       1.240361        33.7519 
 396   0.0000       1.247598        33.9489 
 397   0.0000       1.254128        34.1265 
 398   0.0000       1.254941        34.1487 
 399   0.0000       1.261574        34.3292 
 400   0.0000       1.266188        34.4547 
 401   0.0000       1.268928        34.5293 
 402   0.0000       1.274775        34.6884 
 403   0.0000       1.279720        34.8229 
 404   0.0000       1.284940        34.9650 
 405   0.0000       1.291821        35.1522 
 406   0.0000       1.293876        35.2082 
 407   0.0000       1.299746        35.3679 
 408   0.0000       1.303761        35.4771 
 409   0.0000       1.308497        35.6060 
 410   0.0000       1.312673        35.7196 
 411   0.0000       1.314081        35.7580 
 412   0.0000       1.317270        35.8447 
 413   0.0000       1.323423        36.0122 
 414   0.0000       1.333366        36.2827 
 415   0.0000       1.336710        36.3737 
 416   0.0000       1.339523        36.4503 
 417   0.0000       1.350346        36.7448 
 418   0.0000       1.352289        36.7976 
 419   0.0000       1.362614        37.0786 
 420   0.0000       1.364885        37.1404 
 421   0.0000       1.373943        37.3869 
 422   0.0000       1.378319        37.5060 
 423   0.0000       1.380583        37.5676 
 424   0.0000       1.383034        37.6343 
 425   0.0000       1.384494        37.6740 
 426   0.0000       1.392685        37.8969 
 427   0.0000       1.394684        37.9513 
 428   0.0000       1.400594        38.1121 
 429   0.0000       1.407276        38.2939 
 430   0.0000       1.416038        38.5324 
 431   0.0000       1.421222        38.6734 
 432   0.0000       1.428491        38.8712 
 433   0.0000       1.431892        38.9638 
 434   0.0000       1.438840        39.1528 
 435   0.0000       1.449860        39.4527 
 436   0.0000       1.453028        39.5389 
 437   0.0000       1.455146        39.5965 
 438   0.0000       1.464040        39.8385 
 439   0.0000       1.465460        39.8772 
 440   0.0000       1.467040        39.9202 
 441   0.0000       1.470363        40.0106 
 442   0.0000       1.475034        40.1377 
 443   0.0000       1.483294        40.3625 
 444   0.0000       1.487860        40.4867 
 445   0.0000       1.489541        40.5325 
 446   0.0000       1.491652        40.5899 
 447   0.0000       1.499956        40.8159 
 448   0.0000       1.500541        40.8318 
 449   0.0000       1.508047        41.0360 
 450   0.0000       1.516451        41.2647 
 451   0.0000       1.520467        41.3740 
 452   0.0000       1.530404        41.6444 
 453   0.0000       1.534902        41.7668 
 454   0.0000       1.538342        41.8604 
 455   0.0000       1.542032        41.9608 
 456   0.0000       1.549222        42.1565 
 457   0.0000       1.556889        42.3651 
 458   0.0000       1.562959        42.5303 
 459   0.0000       1.564679        42.5771 
 460   0.0000       1.569729        42.7145 
 461   0.0000       1.575033        42.8588 
 462   0.0000       1.583925        43.1008 
 463   0.0000       1.589549        43.2538 
 464   0.0000       1.590988        43.2930 
 465   0.0000       1.594915        43.3999 
 466   0.0000       1.601969        43.5918 
 467   0.0000       1.607565        43.7441 
 468   0.0000       1.614112        43.9222 
 469   0.0000       1.619566        44.0706 
 470   0.0000       1.624184        44.1963 
 471   0.0000       1.633037        44.4372 
 472   0.0000       1.637721        44.5646 
 473   0.0000       1.646623        44.8069 
 474   0.0000       1.648203        44.8499 
 475   0.0000       1.651591        44.9421 
 476   0.0000       1.661701        45.2172 
 477   0.0000       1.662965        45.2516 
 478   0.0000       1.671690        45.4890 
 479   0.0000       1.677718        45.6530 
 480   0.0000       1.681264        45.7495 
 481   0.0000       1.692597        46.0579 
 482   0.0000       1.694996        46.1232 
 483   0.0000       1.700936        46.2848 
 484   0.0000       1.703282        46.3487 
 485   0.0000       1.707267        46.4571 
 486   0.0000       1.712889        46.6101 
 487   0.0000       1.720817        46.8258 
 488   0.0000       1.722578        46.8737 
 489   0.0000       1.729412        47.0597 
 490   0.0000       1.731695        47.1218 
 491   0.0000       1.737794        47.2878 
 492   0.0000       1.746904        47.5357 
 493   0.0000       1.751146        47.6511 
 494   0.0000       1.758384        47.8481 
 495   0.0000       1.759946        47.8906 
 496   0.0000       1.763377        47.9839 
 497   0.0000       1.765933        48.0535 
 498   0.0000       1.769595        48.1531 
 499   0.0000       1.779662        48.4271 
 500   0.0000       1.785441        48.5843 
 501   0.0000       1.793426        48.8016 
 502   0.0000       1.796038        48.8727 
 503   0.0000       1.799840        48.9761 
 504   0.0000       1.806118        49.1470 
 505   0.0000       1.813443        49.3463 
 506   0.0000       1.816071        49.4178 
 507   0.0000       1.821329        49.5609 
 508   0.0000       1.827568        49.7307 
 509   0.0000       1.830063        49.7986 
 510   0.0000       1.835830        49.9555 
 511   0.0000       1.839124        50.0451 
 512   0.0000       1.845467        50.2177 
 513   0.0000       1.847655        50.2772 
 514   0.0000       1.857638        50.5489 
 515   0.0000       1.861848        50.6635 
 516   0.0000       1.869032        50.8590 
 517   0.0000       1.874691        51.0129 
 518   0.0000       1.876797        51.0702 
 519   0.0000       1.882038        51.2129 
 520   0.0000       1.888579        51.3908 
 521   0.0000       1.898987        51.6741 
 522   0.0000       1.904717        51.8300 
 523   0.0000       1.909784        51.9679 
 524   0.0000       1.911911        52.0257 
 525   0.0000       1.919285        52.2264 
 526   0.0000       1.924273        52.3621 
 527   0.0000       1.924985        52.3815 
 528   0.0000       1.931708        52.5645 
 529   0.0000       1.935566        52.6694 
 530   0.0000       1.936574        52.6969 
 531   0.0000       1.945159        52.9305 
 532   0.0000       1.951472        53.1023 
 533   0.0000       1.953781        53.1651 
 534   0.0000       1.961609        53.3781 
 535   0.0000       1.966687        53.5163 
 536   0.0000       1.972326        53.6697 
 537   0.0000       1.983225        53.9663 
 538   0.0000       1.992619        54.2219 
 539   0.0000       1.993446        54.2444 
 540   0.0000       2.005403        54.5698 
 541   0.0000       2.006207        54.5917 
 542   0.0000       2.009680        54.6862 
 543   0.0000       2.024016        55.0763 
 544   0.0000       2.027118        55.1607 
 545   0.0000       2.029537        55.2265 
 546   0.0000       2.034809        55.3700 
 547   0.0000       2.047504        55.7154 
 548   0.0000       2.051873        55.8343 
 549   0.0000       2.056646        55.9642 
 550   0.0000       2.062578        56.1256 
 551   0.0000       2.069552        56.3154 
 552   0.0000       2.085023        56.7364 
 553   0.0000       2.088341        56.8266 
 554   0.0000       2.093927        56.9786 
 555   0.0000       2.099000        57.1167 
 556   0.0000       2.106892        57.3315 
 557   0.0000       2.112616        57.4872 
 558   0.0000       2.116626        57.5963 
 559   0.0000       2.127915        57.9035 
 560   0.0000       2.130788        57.9817 
 561   0.0000       2.144443        58.3533 
 562   0.0000       2.147369        58.4329 
 563   0.0000       2.150851        58.5276 
 564   0.0000       2.156461        58.6803 
 565   0.0000       2.161420        58.8152 
 566   0.0000       2.170043        59.0499 
 567   0.0000       2.180397        59.3316 
 568   0.0000       2.187660        59.5293 
 569   0.0000       2.196347        59.7656 
 570   0.0000       2.199848        59.8609 
 571   0.0000       2.202319        59.9281 
 572   0.0000       2.217888        60.3518 
 573   0.0000       2.221776        60.4576 
 574   0.0000       2.227697        60.6187 
 575   0.0000       2.232237        60.7423 
 576   0.0000       2.243621        61.0520 
 577   0.0000       2.248453        61.1835 
 578   0.0000       2.251737        61.2729 
 579   0.0000       2.261973        61.5514 
 580   0.0000       2.266763        61.6817 
 581   0.0000       2.272759        61.8449 
 582   0.0000       2.284499        62.1644 
 583   0.0000       2.295260        62.4572 
 584   0.0000       2.308128        62.8074 
 585   0.0000       2.310426        62.8699 
 586   0.0000       2.316356        63.0313 
 587   0.0000       2.326507        63.3075 
 588   0.0000       2.327743        63.3411 
 589   0.0000       2.343985        63.7831 
 590   0.0000       2.348850        63.9155 
 591   0.0000       2.356504        64.1237 
 592   0.0000       2.366521        64.3963 
 593   0.0000       2.375334        64.6361 
 594   0.0000       2.381001        64.7903 
 595   0.0000       2.389308        65.0164 
 596   0.0000       2.391563        65.0777 
 597   0.0000       2.396701        65.2175 
 598   0.0000       2.401765        65.3553 
 599   0.0000       2.408140        65.5288 
 600   0.0000       2.420043        65.8527 
 601   0.0000       2.433347        66.2147 
 602   0.0000       2.436756        66.3075 
 603   0.0000       2.442393        66.4609 
 604   0.0000       2.452978        66.7489 
 605   0.0000       2.467911        67.1553 
 606   0.0000       2.483766        67.5867 
 607   0.0000       2.489454        67.7415 
 608   0.0000       2.496675        67.9380 
 609   0.0000       2.505709        68.1838 
 610   0.0000       2.518727        68.5380 
 611   0.0000       2.534375        68.9639 
 612   0.0000       2.534925        68.9788 
 613   0.0000       2.553085        69.4730 
 614   0.0000       2.565330        69.8062 
 615   0.0000       2.577111        70.1267 
 616   0.0000       2.589290        70.4582 
 617   0.0000       2.590825        70.4999 
 618   0.0000       2.622496        71.3618 
 619   0.0000       2.633730        71.6674 
 620   0.0000       2.644307        71.9553 
 621   0.0000       2.648983        72.0825 
 622   0.0000       2.656719        72.2930 
 623   0.0000       2.668629        72.6171 
 624   0.0000       2.676012        72.8180 
 625   0.0000       2.679050        72.9007 
 626   0.0000       2.687099        73.1197 
 627   0.0000       2.697118        73.3923 
 628   0.0000       2.709090        73.7181 
 629   0.0000       2.715758        73.8995 
 630   0.0000       2.719760        74.0084 
 631   0.0000       2.737078        74.4797 
 632   0.0000       2.743113        74.6439 
 633   0.0000       2.756516        75.0086 
 634   0.0000       2.759968        75.1025 
 635   0.0000       2.773280        75.4648 
 636   0.0000       2.777229        75.5722 
 637   0.0000       2.782220        75.7081 
 638   0.0000       2.793468        76.0141 
 639   0.0000       2.817213        76.6603 
 640   0.0000       2.825299        76.8803 
 641   0.0000       2.839185        77.2581 
 642   0.0000       2.845643        77.4339 
 643   0.0000       2.855864        77.7120 
 644   0.0000       2.870297        78.1048 
 645   0.0000       2.890452        78.6532 
 646   0.0000       2.893922        78.7476 
 647   0.0000       2.902875        78.9912 
 648   0.0000       2.912401        79.2505 
 649   0.0000       2.925524        79.6075 
 650   0.0000       2.937607        79.9364 
 651   0.0000       2.951846        80.3238 
 652   0.0000       2.967872        80.7599 
 653   0.0000       2.975080        80.9560 
 654   0.0000       3.003037        81.7168 
 655   0.0000       3.009928        81.9043 
 656   0.0000       3.025797        82.3361 
 657   0.0000       3.045891        82.8829 
 658   0.0000       3.062759        83.3419 
 659   0.0000       3.074859        83.6712 
 660   0.0000       3.082201        83.8710 
 661   0.0000       3.102572        84.4253 
 662   0.0000       3.113991        84.7360 
 663   0.0000       3.123356        84.9908 
 664   0.0000       3.136797        85.3566 
 665   0.0000       3.153438        85.8094 
 666   0.0000       3.170759        86.2807 
 667   0.0000       3.175742        86.4163 
 668   0.0000       3.197718        87.0143 
 669   0.0000       3.200376        87.0867 
 670   0.0000       3.211477        87.3887 
 671   0.0000       3.220348        87.6301 
 672   0.0000       3.222981        87.7018 
 673   0.0000       3.244274        88.2812 
 674   0.0000       3.248488        88.3958 
 675   0.0000       3.255893        88.5973 
 676   0.0000       3.265530        88.8596 
 677   0.0000       3.270818        89.0035 
 678   0.0000       3.277846        89.1947 
 679   0.0000       3.286444        89.4287 
 680   0.0000       3.289104        89.5011 
 681   0.0000       3.309667        90.0606 
 682   0.0000       3.329350        90.5962 
 683   0.0000       3.331928        90.6664 
 684   0.0000       3.332841        90.6912 
 685   0.0000       3.349037        91.1319 
 686   0.0000       3.362431        91.4964 
 687   0.0000       3.378428        91.9317 
 688   0.0000       3.389608        92.2359 
 689   0.0000       3.398662        92.4823 
 690   0.0000       3.414206        92.9053 
 691   0.0000       3.420908        93.0876 
 692   0.0000       3.428230        93.2869 
 693   0.0000       3.433477        93.4297 
 694   0.0000       3.435382        93.4815 
 695   0.0000       3.450302        93.8875 
 696   0.0000       3.459396        94.1349 
 697   0.0000       3.469257        94.4033 
 698   0.0000       3.473920        94.5302 
 699   0.0000       3.478950        94.6670 
 700   0.0000       3.488789        94.9348 
 701   0.0000       3.495923        95.1289 
 702   0.0000       3.503472        95.3343 
 703   0.0000       3.509793        95.5063 
 704   0.0000       3.517884        95.7265 
 705   0.0000       3.528274        96.0092 
 706   0.0000       3.541905        96.3801 
 707   0.0000       3.546900        96.5161 
 708   0.0000       3.553431        96.6938 
 709   0.0000       3.562618        96.9438 
 710   0.0000       3.571169        97.1764 
 711   0.0000       3.577825        97.3576 
 712   0.0000       3.584606        97.5421 
 713   0.0000       3.588718        97.6540 
 714   0.0000       3.599682        97.9523 
 715   0.0000       3.609366        98.2158 
 716   0.0000       3.626783        98.6898 
 717   0.0000       3.633389        98.8696 
 718   0.0000       3.642571        99.1194 
 719   0.0000       3.645598        99.2018 
 720   0.0000       3.655376        99.4678 
 721   0.0000       3.665755        99.7503 
 722   0.0000       3.674257        99.9816 
 723   0.0000       3.680545       100.1527 
 724   0.0000       3.681439       100.1770 
 725   0.0000       3.696252       100.5801 
 726   0.0000       3.698841       100.6506 
 727   0.0000       3.706165       100.8499 
 728   0.0000       3.711459       100.9939 
 729   0.0000       3.729042       101.4724 
 730   0.0000       3.734113       101.6104 
 731   0.0000       3.738836       101.7389 
 732   0.0000       3.742048       101.8263 
 733   0.0000       3.745778       101.9278 
 734   0.0000       3.753778       102.1455 
 735   0.0000       3.765411       102.4620 
 736   0.0000       3.770820       102.6092 
 737   0.0000       3.784891       102.9921 
 738   0.0000       3.787240       103.0560 
 739   0.0000       3.790542       103.1459 
 740   0.0000       3.800358       103.4130 
 741   0.0000       3.803199       103.4903 
 742   0.0000       3.809034       103.6491 
 743   0.0000       3.821244       103.9813 
 744   0.0000       3.825841       104.1064 
 745   0.0000       3.831947       104.2726 
 746   0.0000       3.837666       104.4282 
 747   0.0000       3.857445       104.9664 
 748   0.0000       3.861728       105.0830 
 749   0.0000       3.867599       105.2427 
 750   0.0000       3.871969       105.3616 
 751   0.0000       3.882122       105.6379 
 752   0.0000       3.884392       105.6997 
 753   0.0000       3.896228       106.0217 
 754   0.0000       3.902223       106.1849 
 755   0.0000       3.907456       106.3273 
 756   0.0000       3.910980       106.4232 
 757   0.0000       3.916928       106.5850 
 758   0.0000       3.920621       106.6855 
 759   0.0000       3.936353       107.1136 
 760   0.0000       3.947653       107.4211 
 761   0.0000       3.951390       107.5228 
 762   0.0000       3.953758       107.5872 
 763   0.0000       3.962807       107.8334 
 764   0.0000       3.970227       108.0354 
 765   0.0000       3.978928       108.2721 
 766   0.0000       3.984262       108.4173 
 767   0.0000       3.990672       108.5917 
 768   0.0000       4.000663       108.8636 
 769   0.0000       4.005578       108.9973 
 770   0.0000       4.010499       109.1312 
 771   0.0000       4.013572       109.2148 
 772   0.0000       4.029369       109.6447 
 773   0.0000       4.036886       109.8492 
 774   0.0000       4.040504       109.9477 
 775   0.0000       4.052272       110.2679 
 776   0.0000       4.053712       110.3071 
 777   0.0000       4.060647       110.4958 
 778   0.0000       4.073737       110.8520 
 779   0.0000       4.079449       111.0074 
 780   0.0000       4.082463       111.0895 
 781   0.0000       4.094200       111.4089 
 782   0.0000       4.110416       111.8501 
 783   0.0000       4.113280       111.9280 
 784   0.0000       4.116727       112.0218 
 785   0.0000       4.121878       112.1620 
 786   0.0000       4.128246       112.3353 
 787   0.0000       4.137646       112.5911 
 788   0.0000       4.147985       112.8724 
 789   0.0000       4.159050       113.1735 
 790   0.0000       4.165914       113.3603 
 791   0.0000       4.170602       113.4878 
 792   0.0000       4.177901       113.6865 
 793   0.0000       4.184597       113.8687 
 794   0.0000       4.196535       114.1935 
 795   0.0000       4.210019       114.5604 
 796   0.0000       4.214447       114.6809 
 797   0.0000       4.221805       114.8812 
 798   0.0000       4.225950       114.9939 
 799   0.0000       4.241070       115.4054 
 800   0.0000       4.245483       115.5255 
 801   0.0000       4.254470       115.7700 
 802   0.0000       4.263217       116.0080 
 803   0.0000       4.272190       116.2522 
 804   0.0000       4.281429       116.5036 
 805   0.0000       4.295361       116.8827 
 806   0.0000       4.302393       117.0741 
 807   0.0000       4.313191       117.3679 
 808   0.0000       4.321747       117.6007 
 809   0.0000       4.333775       117.9280 
 810   0.0000       4.339932       118.0956 
 811   0.0000       4.346048       118.2620 
 812   0.0000       4.365663       118.7957 
 813   0.0000       4.371193       118.9462 
 814   0.0000       4.380065       119.1876 
 815   0.0000       4.387811       119.3984 
 816   0.0000       4.400255       119.7370 
 817   0.0000       4.413622       120.1008 
 818   0.0000       4.426119       120.4408 
 819   0.0000       4.435574       120.6981 
 820   0.0000       4.440302       120.8268 
 821   0.0000       4.447410       121.0202 
 822   0.0000       4.455789       121.2482 
 823   0.0000       4.460797       121.3844 
 824   0.0000       4.474717       121.7632 
 825   0.0000       4.482861       121.9848 
 826   0.0000       4.495546       122.3300 
 827   0.0000       4.502072       122.5076 
 828   0.0000       4.512776       122.7989 
 829   0.0000       4.521835       123.0454 
 830   0.0000       4.523988       123.1040 
 831   0.0000       4.533785       123.3706 
 832   0.0000       4.541131       123.5705 
 833   0.0000       4.543593       123.6374 
 834   0.0000       4.552217       123.8721 
 835   0.0000       4.575887       124.5162 
 836   0.0000       4.580616       124.6449 
 837   0.0000       4.598877       125.1418 
 838   0.0000       4.613416       125.5374 
 839   0.0000       4.622293       125.7790 
 840   0.0000       4.627761       125.9278 
 841   0.0000       4.650403       126.5439 
 842   0.0000       4.652586       126.6033 
 843   0.0000       4.667310       127.0040 
 844   0.0000       4.678929       127.3201 
 845   0.0000       4.690338       127.6306 
 846   0.0000       4.692055       127.6773 
 847   0.0000       4.698879       127.8630 
 848   0.0000       4.708455       128.1236 
 849   0.0000       4.722851       128.5153 
 850   0.0000       4.736399       128.8840 
 851   0.0000       4.740614       128.9987 
 852   0.0000       4.753431       129.3474 
 853   0.0000       4.778530       130.0304 
 854   0.0000       4.803225       130.7024 
 855   0.0000       4.808012       130.8327 
 856   0.0000       4.812794       130.9628 
 857   0.0000       4.822774       131.2344 
 858   0.0000       4.827696       131.3683 
 859   0.0000       4.852479       132.0427 
 860   0.0000       4.853758       132.0775 
 861   0.0000       4.878193       132.7424 
 862   0.0000       4.891547       133.1058 
 863   0.0000       4.896256       133.2339 
 864   0.0000       4.902932       133.4156 
 865   0.0000       4.911159       133.6394 
 866   0.0000       4.915645       133.7615 
 867   0.0000       4.931401       134.1903 
 868   0.0000       4.950270       134.7037 
 869   0.0000       4.961750       135.0161 
 870   0.0000       4.964997       135.1044 
 871   0.0000       4.977329       135.4400 
 872   0.0000       4.987387       135.7137 
 873   0.0000       4.991179       135.8169 
 874   0.0000       5.000502       136.0706 
 875   0.0000       5.017509       136.5334 
 876   0.0000       5.030529       136.8877 
 877   0.0000       5.041190       137.1778 
 878   0.0000       5.043700       137.2460 
 879   0.0000       5.059437       137.6743 
 880   0.0000       5.075222       138.1038 
 881   0.0000       5.096343       138.6785 
 882   0.0000       5.101655       138.8231 
 883   0.0000       5.112065       139.1064 
 884   0.0000       5.120388       139.3328 
 885   0.0000       5.149735       140.1314 
 886   0.0000       5.160164       140.4152 
 887   0.0000       5.175614       140.8356 
 888   0.0000       5.177276       140.8808 
 889   0.0000       5.195605       141.3796 
 890   0.0000       5.203646       141.5984 
 891   0.0000       5.214847       141.9032 
 892   0.0000       5.218846       142.0120 
 893   0.0000       5.241588       142.6309 
 894   0.0000       5.248112       142.8084 
 895   0.0000       5.265114       143.2710 
 896   0.0000       5.272680       143.4769 
 897   0.0000       5.279369       143.6589 
 898   0.0000       5.287543       143.8813 
 899   0.0000       5.304071       144.3311 
 900   0.0000       5.320844       144.7875 
 901   0.0000       5.336381       145.2103 
 902   0.0000       5.355312       145.7255 
 903   0.0000       5.359460       145.8383 
 904   0.0000       5.376753       146.3089 
 905   0.0000       5.390010       146.6696 
 906   0.0000       5.400709       146.9608 
 907   0.0000       5.423171       147.5720 
 908   0.0000       5.427879       147.7001 
 909   0.0000       5.433406       147.8505 
 910   0.0000       5.444597       148.1550 
 911   0.0000       5.452238       148.3629 
 912   0.0000       5.457867       148.5161 
 913   0.0000       5.482035       149.1738 
 914   0.0000       5.501004       149.6899 
 915   0.0000       5.506827       149.8484 
 916   0.0000       5.517863       150.1487 
 917   0.0000       5.543874       150.8565 
 918   0.0000       5.546716       150.9338 
 919   0.0000       5.558307       151.2492 
 920   0.0000       5.564685       151.4228 
 921   0.0000       5.580990       151.8665 
 922   0.0000       5.591323       152.1476 
 923   0.0000       5.613467       152.7502 
 924   0.0000       5.618636       152.8909 
 925   0.0000       5.626801       153.1130 
 926   0.0000       5.636196       153.3687 
 927   0.0000       5.649119       153.7203 
 928   0.0000       5.654027       153.8539 
 929   0.0000       5.669658       154.2792 
 930   0.0000       5.696231       155.0023 
 931   0.0000       5.703974       155.2130 
 932   0.0000       5.707724       155.3151 
 933   0.0000       5.726272       155.8198 
 934   0.0000       5.737497       156.1252 
 935   0.0000       5.743150       156.2791 
 936   0.0000       5.750050       156.4668 
 937   0.0000       5.765403       156.8846 
 938   0.0000       5.783694       157.3823 
 939   0.0000       5.795168       157.6945 
 940   0.0000       5.820041       158.3714 
 941   0.0000       5.861493       159.4993 
 942   0.0000       5.866914       159.6469 
 943   0.0000       5.896147       160.4423 
 944   0.0000       5.944855       161.7677 
 945   0.0000       5.969226       162.4309 
 946   0.0000       6.054532       164.7522 
 947   0.0000       6.067764       165.1123 
 948   0.0000       6.089966       165.7164 
 949   0.0000       6.096759       165.9012 
 950   0.0000       6.142498       167.1459 
 951   0.0000       6.150530       167.3644 
 952   0.0000       6.179458       168.1516 
 953   0.0000       6.192552       168.5079 
 954   0.0000       6.204893       168.8437 
 955   0.0000       6.217389       169.1837 
 956   0.0000       6.236924       169.7153 
 957   0.0000       6.247307       169.9979 
 958   0.0000       6.252954       170.1515 
 959   0.0000       6.269687       170.6068 
 960   0.0000       6.282674       170.9602 
 961   0.0000       6.301042       171.4601 
 962   0.0000       6.314626       171.8297 
 963   0.0000       6.326384       172.1497 
 964   0.0000       6.339268       172.5003 
 965   0.0000       6.352156       172.8509 
 966   0.0000       6.379924       173.6065 
 967   0.0000       6.394939       174.0151 
 968   0.0000       6.451391       175.5513 
 969   0.0000       6.515017       177.2826 
 970   0.0000       6.578095       178.9991 
 971   0.0000       6.626067       180.3045 
 972   0.0000       6.795311       184.9098 
 973   0.0000       6.821582       185.6247 
 974   0.0000       6.836136       186.0207 
 975   0.0000       6.871208       186.9751 
 976   0.0000       6.899890       187.7555 
 977   0.0000       6.923076       188.3865 
 978   0.0000       6.938808       188.8146 
 979   0.0000       6.964304       189.5084 
 980   0.0000       6.985210       190.0772 
 981   0.0000       7.000278       190.4872 
 982   0.0000       7.021890       191.0753 
 983   0.0000       7.039576       191.5566 
 984   0.0000       7.058143       192.0618 
 985   0.0000       7.101985       193.2548 
 986   0.0000       7.212920       196.2735 
 987   0.0000       7.260414       197.5659 
 988   0.0000       7.306622       198.8233 
 989   0.0000       7.347677       199.9405 
 990   0.0000       7.490118       203.8165 
 991   0.0000       7.546725       205.3568 
 992   0.0000       7.586404       206.4366 
 993   0.0000       7.684195       209.0976 
 994   0.0000       7.736822       210.5296 
 995   0.0000       7.820409       212.8042 
 996   0.0000       7.885513       214.5757 
 997   0.0000       7.972852       216.9523 
 998   0.0000       8.236175       224.1177 
 999   0.0000       9.395923       255.6761 
 1000   0.0000       9.401074       255.8162 
 1001   0.0000       9.425843       256.4902 
 1002   0.0000       9.440499       256.8890 
 1003   0.0000       9.447291       257.0739 
 1004   0.0000       9.475721       257.8475 
 1005   0.0000       9.636189       262.2140 
 1006   0.0000      10.076496       274.1954 
 1007   0.0000      10.082358       274.3549 
 1008   0.0000      10.095127       274.7024 
 1009   0.0000      10.193384       277.3761 
 1010   0.0000      10.202799       277.6323 
 1011   0.0000      10.234856       278.5046 
 1012   0.0000      10.291030       280.0332 
 1013   0.0000      10.344711       281.4939 
 1014   0.0000      10.377061       282.3742 
 1015   0.0000      10.565508       287.5021 
 1016   0.0000      16.497212       448.9120 
 1017   0.0000      17.448863       474.8077 
 1018   0.0000      18.046589       491.0727 
 1019   0.0000      18.362653       499.6732 
 1020   0.0000      18.471484       502.6346 
 1021   0.0000      18.591915       505.9117 
 1022   0.0000      20.349783       553.7458 
 1023   0.0000      21.256651       578.4229 
 1024   0.0000      21.546521       586.3107 

                 SPIN DOWN ORBITALS
  NO   OCC          E(Eh)            E(eV) 
   0   1.0000    -261.573335     -7117.7723 
   1   1.0000    -104.793375     -2851.5727 
   2   1.0000    -104.790008     -2851.4811 
   3   1.0000    -104.787843     -2851.4222 
   4   1.0000     -32.082632      -873.0128 
   5   1.0000     -27.560570      -749.9612 
   6   1.0000     -27.560463      -749.9583 
   7   1.0000     -27.560374      -749.9559 
   8   1.0000     -20.620828      -561.1212 
   9   1.0000     -11.421960      -310.8073 
  10   1.0000     -11.278481      -306.9031 
  11   1.0000     -11.273223      -306.7600 
  12   1.0000     -11.263657      -306.4997 
  13   1.0000     -11.242382      -305.9208 
  14   1.0000     -11.241731      -305.9031 
  15   1.0000     -11.235101      -305.7226 
  16   1.0000     -11.228040      -305.5305 
  17   1.0000     -10.520005      -286.2639 
  18   1.0000     -10.516597      -286.1712 
  19   1.0000     -10.514392      -286.1111 
  20   1.0000      -7.985930      -217.3082 
  21   1.0000      -7.985176      -217.2877 
  22   1.0000      -7.985139      -217.2867 
  23   1.0000      -7.982480      -217.2143 
  24   1.0000      -7.981784      -217.1954 
  25   1.0000      -7.981693      -217.1929 
  26   1.0000      -7.980385      -217.1573 
  27   1.0000      -7.979477      -217.1326 
  28   1.0000      -7.979394      -217.1304 
  29   1.0000      -4.157395      -113.1285 
  30   1.0000      -2.678937       -72.8976 
  31   1.0000      -2.678910       -72.8968 
  32   1.0000      -2.678473       -72.8849 
  33   1.0000      -1.459046       -39.7027 
  34   1.0000      -1.123095       -30.5610 
  35   1.0000      -1.099508       -29.9191 
  36   1.0000      -1.052327       -28.6353 
  37   1.0000      -1.039726       -28.2924 
  38   1.0000      -1.036311       -28.1995 
  39   1.0000      -1.020516       -27.7696 
  40   1.0000      -1.008921       -27.4541 
  41   1.0000      -0.956418       -26.0255 
  42   1.0000      -0.894128       -24.3305 
  43   1.0000      -0.828589       -22.5471 
  44   1.0000      -0.727271       -19.7900 
  45   1.0000      -0.715976       -19.4827 
  46   1.0000      -0.703253       -19.1365 
  47   1.0000      -0.683498       -18.5989 
  48   1.0000      -0.652818       -17.7641 
  49   1.0000      -0.620695       -16.8900 
  50   1.0000      -0.618984       -16.8434 
  51   1.0000      -0.604629       -16.4528 
  52   1.0000      -0.599733       -16.3196 
  53   1.0000      -0.585853       -15.9419 
  54   1.0000      -0.577947       -15.7267 
  55   1.0000      -0.560271       -15.2457 
  56   1.0000      -0.549831       -14.9617 
  57   1.0000      -0.544592       -14.8191 
  58   1.0000      -0.538559       -14.6549 
  59   1.0000      -0.527020       -14.3409 
  60   1.0000      -0.523481       -14.2446 
  61   1.0000      -0.507074       -13.7982 
  62   1.0000      -0.490752       -13.3540 
  63   1.0000      -0.486195       -13.2300 
  64   1.0000      -0.483575       -13.1587 
  65   1.0000      -0.455042       -12.3823 
  66   1.0000      -0.451705       -12.2915 
  67   1.0000      -0.448696       -12.2096 
  68   1.0000      -0.432362       -11.7652 
  69   1.0000      -0.430031       -11.7017 
  70   1.0000      -0.414131       -11.2691 
  71   1.0000      -0.357625        -9.7315 
  72   0.0000       0.012622         0.3435 
  73   0.0000       0.023721         0.6455 
  74   0.0000       0.024413         0.6643 
  75   0.0000       0.030677         0.8348 
  76   0.0000       0.039261         1.0683 
  77   0.0000       0.041164         1.1201 
  78   0.0000       0.042685         1.1615 
  79   0.0000       0.043086         1.1724 
  80   0.0000       0.044225         1.2034 
  81   0.0000       0.054131         1.4730 
  82   0.0000       0.056675         1.5422 
  83   0.0000       0.061387         1.6704 
  84   0.0000       0.062778         1.7083 
  85   0.0000       0.064099         1.7442 
  86   0.0000       0.064786         1.7629 
  87   0.0000       0.071324         1.9408 
  88   0.0000       0.077366         2.1052 
  89   0.0000       0.082487         2.2446 
  90   0.0000       0.089383         2.4322 
  91   0.0000       0.091216         2.4821 
  92   0.0000       0.093468         2.5434 
  93   0.0000       0.095672         2.6034 
  94   0.0000       0.100344         2.7305 
  95   0.0000       0.103015         2.8032 
  96   0.0000       0.103815         2.8249 
  97   0.0000       0.105860         2.8806 
  98   0.0000       0.106644         2.9019 
  99   0.0000       0.108343         2.9482 
 100   0.0000       0.110945         3.0190 
 101   0.0000       0.115117         3.1325 
 102   0.0000       0.120043         3.2665 
 103   0.0000       0.121845         3.3156 
 104   0.0000       0.123899         3.3715 
 105   0.0000       0.125576         3.4171 
 106   0.0000       0.126543         3.4434 
 107   0.0000       0.129222         3.5163 
 108   0.0000       0.132004         3.5920 
 109   0.0000       0.133721         3.6387 
 110   0.0000       0.137123         3.7313 
 111   0.0000       0.138821         3.7775 
 112   0.0000       0.144174         3.9232 
 113   0.0000       0.146726         3.9926 
 114   0.0000       0.150285         4.0895 
 115   0.0000       0.151746         4.1292 
 116   0.0000       0.157174         4.2769 
 117   0.0000       0.162218         4.4142 
 118   0.0000       0.162678         4.4267 
 119   0.0000       0.167397         4.5551 
 120   0.0000       0.170543         4.6407 
 121   0.0000       0.171624         4.6701 
 122   0.0000       0.175332         4.7710 
 123   0.0000       0.181232         4.9316 
 124   0.0000       0.182937         4.9780 
 125   0.0000       0.186522         5.0755 
 126   0.0000       0.186800         5.0831 
 127   0.0000       0.191653         5.2151 
 128   0.0000       0.196758         5.3541 
 129   0.0000       0.198322         5.3966 
 130   0.0000       0.198853         5.4111 
 131   0.0000       0.202071         5.4986 
 132   0.0000       0.205500         5.5919 
 133   0.0000       0.209044         5.6884 
 134   0.0000       0.214990         5.8502 
 135   0.0000       0.217974         5.9314 
 136   0.0000       0.224367         6.1053 
 137   0.0000       0.227615         6.1937 
 138   0.0000       0.228766         6.2250 
 139   0.0000       0.233575         6.3559 
 140   0.0000       0.235805         6.4166 
 141   0.0000       0.239199         6.5089 
 142   0.0000       0.241291         6.5659 
 143   0.0000       0.246232         6.7003 
 144   0.0000       0.249953         6.8016 
 145   0.0000       0.251731         6.8499 
 146   0.0000       0.254046         6.9129 
 147   0.0000       0.259258         7.0548 
 148   0.0000       0.260685         7.0936 
 149   0.0000       0.266899         7.2627 
 150   0.0000       0.270420         7.3585 
 151   0.0000       0.272846         7.4245 
 152   0.0000       0.278775         7.5859 
 153   0.0000       0.282039         7.6747 
 154   0.0000       0.284997         7.7552 
 155   0.0000       0.292298         7.9538 
 156   0.0000       0.293213         7.9787 
 157   0.0000       0.296189         8.0597 
 158   0.0000       0.299003         8.1363 
 159   0.0000       0.308067         8.3829 
 160   0.0000       0.309647         8.4259 
 161   0.0000       0.315920         8.5966 
 162   0.0000       0.321082         8.7371 
 163   0.0000       0.321680         8.7534 
 164   0.0000       0.330400         8.9907 
 165   0.0000       0.332314         9.0427 
 166   0.0000       0.334831         9.1112 
 167   0.0000       0.341046         9.2803 
 168   0.0000       0.341948         9.3049 
 169   0.0000       0.344483         9.3739 
 170   0.0000       0.349473         9.5096 
 171   0.0000       0.353893         9.6299 
 172   0.0000       0.358248         9.7484 
 173   0.0000       0.359534         9.7834 
 174   0.0000       0.362983         9.8773 
 175   0.0000       0.365828         9.9547 
 176   0.0000       0.368886        10.0379 
 177   0.0000       0.376349        10.2410 
 178   0.0000       0.376708        10.2508 
 179   0.0000       0.380278        10.3479 
 180   0.0000       0.384307        10.4575 
 181   0.0000       0.384868        10.4728 
 182   0.0000       0.388992        10.5850 
 183   0.0000       0.392009        10.6671 
 184   0.0000       0.394101        10.7240 
 185   0.0000       0.394550        10.7363 
 186   0.0000       0.399203        10.8629 
 187   0.0000       0.401666        10.9299 
 188   0.0000       0.404972        11.0198 
 189   0.0000       0.406221        11.0538 
 190   0.0000       0.409641        11.1469 
 191   0.0000       0.415816        11.3149 
 192   0.0000       0.417442        11.3592 
 193   0.0000       0.424539        11.5523 
 194   0.0000       0.426709        11.6114 
 195   0.0000       0.433987        11.8094 
 196   0.0000       0.435555        11.8521 
 197   0.0000       0.442477        12.0404 
 198   0.0000       0.443780        12.0759 
 199   0.0000       0.449308        12.2263 
 200   0.0000       0.452284        12.3073 
 201   0.0000       0.456956        12.4344 
 202   0.0000       0.457713        12.4550 
 203   0.0000       0.459749        12.5104 
 204   0.0000       0.463278        12.6064 
 205   0.0000       0.465783        12.6746 
 206   0.0000       0.475822        12.9478 
 207   0.0000       0.477078        12.9819 
 208   0.0000       0.479752        13.0547 
 209   0.0000       0.483150        13.1472 
 210   0.0000       0.487219        13.2579 
 211   0.0000       0.493483        13.4284 
 212   0.0000       0.494691        13.4612 
 213   0.0000       0.496872        13.5206 
 214   0.0000       0.499645        13.5960 
 215   0.0000       0.503171        13.6920 
 216   0.0000       0.506856        13.7923 
 217   0.0000       0.509127        13.8541 
 218   0.0000       0.513892        13.9837 
 219   0.0000       0.518122        14.0988 
 220   0.0000       0.519602        14.1391 
 221   0.0000       0.521244        14.1838 
 222   0.0000       0.525092        14.2885 
 223   0.0000       0.527261        14.3475 
 224   0.0000       0.528450        14.3798 
 225   0.0000       0.531237        14.4557 
 226   0.0000       0.535302        14.5663 
 227   0.0000       0.537897        14.6369 
 228   0.0000       0.541188        14.7265 
 229   0.0000       0.543268        14.7831 
 230   0.0000       0.545633        14.8474 
 231   0.0000       0.550008        14.9665 
 232   0.0000       0.554701        15.0942 
 233   0.0000       0.558669        15.2022 
 234   0.0000       0.561174        15.2703 
 235   0.0000       0.566046        15.4029 
 236   0.0000       0.569754        15.5038 
 237   0.0000       0.574276        15.6268 
 238   0.0000       0.575355        15.6562 
 239   0.0000       0.580856        15.8059 
 240   0.0000       0.584432        15.9032 
 241   0.0000       0.587236        15.9795 
 242   0.0000       0.590919        16.0797 
 243   0.0000       0.592256        16.1161 
 244   0.0000       0.596993        16.2450 
 245   0.0000       0.603634        16.4257 
 246   0.0000       0.606473        16.5030 
 247   0.0000       0.611062        16.6278 
 248   0.0000       0.613816        16.7028 
 249   0.0000       0.617809        16.8114 
 250   0.0000       0.620483        16.8842 
 251   0.0000       0.625014        17.0075 
 252   0.0000       0.632156        17.2018 
 253   0.0000       0.634198        17.2574 
 254   0.0000       0.636670        17.3247 
 255   0.0000       0.641511        17.4564 
 256   0.0000       0.646493        17.5920 
 257   0.0000       0.647235        17.6122 
 258   0.0000       0.651480        17.7277 
 259   0.0000       0.654321        17.8050 
 260   0.0000       0.660463        17.9721 
 261   0.0000       0.666681        18.1413 
 262   0.0000       0.669647        18.2220 
 263   0.0000       0.673059        18.3149 
 264   0.0000       0.673842        18.3362 
 265   0.0000       0.678497        18.4628 
 266   0.0000       0.684685        18.6312 
 267   0.0000       0.688828        18.7440 
 268   0.0000       0.694326        18.8936 
 269   0.0000       0.698432        19.0053 
 270   0.0000       0.700662        19.0660 
 271   0.0000       0.704664        19.1749 
 272   0.0000       0.713527        19.4160 
 273   0.0000       0.715978        19.4828 
 274   0.0000       0.719707        19.5842 
 275   0.0000       0.722525        19.6609 
 276   0.0000       0.728594        19.8261 
 277   0.0000       0.735797        20.0221 
 278   0.0000       0.738208        20.0877 
 279   0.0000       0.740580        20.1522 
 280   0.0000       0.748221        20.3601 
 281   0.0000       0.748681        20.3726 
 282   0.0000       0.756732        20.5917 
 283   0.0000       0.761388        20.7184 
[...]
  | sigma^2 in % of trace(Dip) retained ...   1.54e+01
  | sigma^2 in % of trace(Dpq) retained ...   1.38e-01
  | Av. % of trace(Di) retained         ...  99.998583374509
  | Av. % of trace(Dp) retained         ...  99.999999207570
  | sigma^2 in % of trace(Di) retained  ...   6.57e-07
  | sigma^2 in % of trace(Dp) retained  ...   8.57e-13
 Distributions of % trace(Dij) recovered:
  |       >= 99.9  ...   105 ( 22.3 % of all IJ-pairs)
  |   [80.0, 90.0) ...    20 (  4.3 % of all IJ-pairs)
  |   [90.0, 99.0) ...   260 ( 55.3 % of all IJ-pairs)
  |   [99.0, 99.9) ...    85 ( 18.1 % of all IJ-pairs)
 Distributions of % trace(Dip) recovered:
  |   [80.0, 90.0) ...    12 ( 10.7 % of all IP-pairs)
  |   [90.0, 99.0) ...    51 ( 45.5 % of all IP-pairs)
  |   [99.0, 99.9) ...    49 ( 43.8 % of all IP-pairs)
 Distributions of % trace(Dpq) recovered:
  |       >= 99.9  ...     5 ( 33.3 % of all PQ-pairs)
  |   [99.0, 99.9) ...    10 ( 66.7 % of all PQ-pairs)
 Distributions of % trace(Di) recovered :
  |       >= 99.9  ...    43 (100.0 % of all I-pairs )
 Distributions of % trace(Dp) recovered :
  |       >= 99.9  ...     5 (100.0 % of all P-pairs )

                       ===========================
                       1034 OF 1665 PAIRS ARE KEPT
                       ===========================

 Initial PAO correlation energy (all pairs)    ...  -2.6802243195 Eh
 Energy constituents in PAO basis (Eh):
  | Vijab(+0) ...  -2.2530308300
  | Viab (-1) ...  -0.1740143233
  | Vab  (-2) ...  -0.0573265430
  | Va   (-1) ...  -0.0000457876
  | Vija (+1) ...  -0.0714311296
  | Vij  (+2) ...  -0.0155529476
  | Via  (+0) ...  -0.1086572753
  | Vi   (+1) ...  -0.0001654831
 Initial PNO correlation energy                ...  -2.6460717807 Eh
 Energy constituents in PNO basis (Eh):
  | Vijab(+0) ...  -2.2343275157 (err=  0.0187033143)
  | Viab (-1) ...  -0.1600811461 (err=  0.0139331772)
  | Vab  (-2) ...  -0.0568702504 (err=  0.0004562925)
  | Va   (-1) ...  -0.0000265277 (err=  0.0000192599)
  | Vija (+1) ...  -0.0705437574 (err=  0.0008873722)
  | Vij  (+2) ...  -0.0155050352 (err=  0.0000479124)
  | Via  (+0) ...  -0.1085524937 (err=  0.0001047816)
  | Vi   (+1) ...  -0.0001650545 (err=  0.0000004286)
 Sum of total truncation errors ...   0.0341525388 Eh
  | Pair screening ...   0.0120808454 Eh
  | PNO truncation ...   0.0220716934 Eh

 UMP2 correlation energy (PAO) ...  -2.6750990151
  | alpha-alpha ...  -0.3832905554 (NP_aa=  894)
  | alpha-beta  ...  -1.9880138253 (NP_ab= 1640)
  | beta -beta  ...  -0.3037946344 (NP_bb=  713)
 UMP2 correlation energy (PNO) ...  -2.6405806274
  | alpha-alpha ...  -0.3712479421 (err=  0.0120426133, NP_aa=  549)
  | alpha-beta  ...  -1.9696455594 (err=  0.0183682659, NP_ab= 1009)
  | beta -beta  ...  -0.2996871260 (err=  0.0041075084, NP_bb=  427)
 Sum of total UMP2 truncation errors ...   0.0345183877 Eh
  | Pair screening ...   0.0120861985 Eh
  | PNO truncation ...   0.0224321892 Eh
 Timing for NEV-PNO construction (sec.)
  | Intermediate construction  ..           47.153
  | Amplitude construction     ..           62.462
  | Total time                 ..          109.616
 Making pair pair interaction lists ...      ok
 Total size for 2-ext PNO integrals ...     10.5 MB
Checking the number of SOMO/SOMO doubles PNOs ... 
 #Truncate: (72, 72)[171] -> [86] .. 
 #Truncate: (73, 73)[173] -> [86] .. 
 #Truncate: (74, 74)[173] -> [86] .. 
 #Truncate: (75, 75)[171] -> [86] .. 
 #Truncate: (76, 76)[172] -> [86] .. 

--------------------------------
LOCAL RI TRANSFORMATION (VABPAO)
--------------------------------

Number of PAOs:    1030
Basis functions:   1025 (343 shells)
Aux. functions:    2424 (644 shells)

Processing maps (0.0 sec)
Average map sizes:
   Aux shells -> PAOs           1030.0
   PAOs       -> AO shells       343.0

Calculating integrals (190.9 sec, 37370.165 MB)
Finished
-----------------------------
LOCAL RI TRANSFORMATION (IJV)
-----------------------------

Orbital window:      29 to 76
Basis functions:   1025 (343 shells)
Aux. functions:    2424 (644 shells)

Processing maps (0.0 sec)
Average map sizes:
   Aux shells -> MOs(i)           46.4
   Aux shells -> MOs(j)           48.0
   MOs        -> AO shells       340.1

Calculating integrals (23.4 sec, 41.293 MB)
Sorting integrals (0.3 sec, 41.266 MB)
Total time for the integral transformation: 23.8 sec


-------------------------------------
Pair Pair Term precalculation with     
RI-(ij|mn) and (im|jn) transformation  
ON THE FLY                             
-------------------------------------

   IBatch   1 (of   2)              ... done ( 1367.548 sec)
   IBatch   2 (of   2)              ... done (  823.172 sec)
Total EXT                           ...        2190.721 sec

---------------------
RI-PNO TRANSFORMATION
---------------------

Total Number of PNOs                   ... 32455
Total Number of IJ-PNOs                ... 28380
Total Number of IP-PNOs                ...  3117
Total Number of PQ-PNOs                ...   958
Total Number of IJ-pairs               ...   897
Total Number of PI-pairs               ...   112
Total Number of PQ-pairs               ...    25
Average number of PNOs per pair        ...    31
Maximal number of PNOs per pair        ...    86
>> Statistics for ij-pairs..
   #pairs with  1 -  5 PNOs   :    0
   #pairs with  6 - 10 PNOs   :    0
   #pairs with 11 - 15 PNOs   :   92
   #pairs with 16 - 20 PNOs   :  166
   #pairs with 21 - 25 PNOs   :  166
   #pairs with 26 - 30 PNOs   :  132
   #pairs with 31 - 35 PNOs   :   58
   #pairs with 36 - 40 PNOs   :   54
   #pairs with 41 - 45 PNOs   :   44
   #pairs with 46 - 50 PNOs   :   18
   #pairs with 51 - 55 PNOs   :   32
   #pairs with 56 - 60 PNOs   :   53
   #pairs with 61 - 65 PNOs   :   77
   #pairs with 66 - 70 PNOs   :    3
   #pairs with 81 - 85 PNOs   :    2
>> Statistics for ip-pairs..
   #pairs with  1 -  5 PNOs   :    0
   #pairs with  6 - 10 PNOs   :    1
   #pairs with 11 - 15 PNOs   :   11
   #pairs with 16 - 20 PNOs   :   13
   #pairs with 21 - 25 PNOs   :   19
   #pairs with 26 - 30 PNOs   :   10
   #pairs with 31 - 35 PNOs   :   44
   #pairs with 36 - 40 PNOs   :   12
   #pairs with 41 - 45 PNOs   :    2
   #pairs with 46 - 50 PNOs   :    0
>> Statistics for pq-pairs..
   #pairs with  1 -  5 PNOs   :    0
   #pairs with  6 - 10 PNOs   :    0
   #pairs with 11 - 15 PNOs   :    0
   #pairs with 16 - 20 PNOs   :    0
   #pairs with 21 - 25 PNOs   :   10
   #pairs with 26 - 30 PNOs   :   10
   #pairs with 31 - 35 PNOs   :    0
   #pairs with 36 - 40 PNOs   :    0
   #pairs with 41 - 45 PNOs   :    0
   #pairs with 46 - 50 PNOs   :    0
   #pairs with 86 - 90 PNOs   :    5

Generation of (ij|ab)[P] integrals            ... on
Generation of (ia|bc)[P],(ja|bc)[P] integrals ... on
Storage of 3 and 4 external integrals         ... on
Generation of ALL (ka|bc)[P] integrals        ... on
Keep RI integrals in memory                   ... off

Ibatch:  1 (of  1)
Starting 2-4 index PNO integral generation ... done

Timings:
Total PNO integral transformation time     ...       2095.466 sec
Size of the 3-external file                ...       278 MB
Size of the 4-external file                ...      1902 MB
Size of the IKJL file                      ...        16 MB
Size of the all 3-external file            ...      6681 MB
Size of the 1-external file                ...        21 MB

Size of the PAO/PNO coefficient matrices   ...     204.0 MB

Making pair/pair overlap matrices          ... done (  325.990 sec)
Size of the pair overlap file              ...    2233.0 MB
Total # unrestricted pairs ...       1985
  # of alpha-alpha pairs   ...        549
  # of alpha-beta pairs    ...       1009
  # of beta-beta pairs     ...        427
Constructing the guess amplitudes          ... done (    0.667 sec)

-------------------------
FINAL STARTUP INFORMATION
-------------------------

E(0)                                       ...  -3028.469874970
E(SL-UMP2 in NEV-PNO space)                ...     -2.676037048
Initial E(tot)                             ...  -3031.145912018
<T|T>                                      ...      0.532329786
Number of unrestricted pairs included      ... 1985
Total number of pairs                      ... 4095
----------------------------------------------------------
                     OPEN-SHELL COUPLED CLUSTER ITERATIONS
----------------------------------------------------------

Number of PNO amplitudes to be optimized        ...          2010189
Number of canonical amplitudes for strong pairs ...       1792855218
Untruncated number of canonical amplitudes      ...       3698645738

Iter       E(tot)           E(Corr)          Delta-E          Residual     Time
  0  -3031.153172099     -2.647840709      0.028196339      0.020822352 1577.49
                           *** Turning on DIIS ***
  1  -3031.269710549     -2.764379159     -0.116538450      0.010913795 1600.10
  2  -3031.334717541     -2.829386151     -0.065006993      0.008326843 1621.61
  3  -3031.356837201     -2.851505811     -0.022119659      0.003326277 1617.35
  4  -3031.364573813     -2.859242423     -0.007736613      0.002646596 1614.15
  5  -3031.368829459     -2.863498069     -0.004255646      0.001514363 1588.45
  6  -3031.370396914     -2.865065523     -0.001567455      0.000747286 1609.55
  7  -3031.371055054     -2.865723664     -0.000658140      0.000478626 1613.16
  8  -3031.371201319     -2.865869929     -0.000146265      0.000219418 1607.94
  9  -3031.371260922     -2.865929532     -0.000059603      0.000148003 1626.07
 10  -3031.371263795     -2.865932404     -0.000002873      0.000073991 1458.91
 11  -3031.371276564     -2.865945174     -0.000012769      0.000067399 1338.19
 12  -3031.371281534     -2.865950144     -0.000004970      0.000035753 1341.20
 13  -3031.371283733     -2.865952343     -0.000002199      0.000018352 1349.93
 14  -3031.371285347     -2.865953957     -0.000001614      0.000011128 1349.87
 15  -3031.371284498     -2.865953108      0.000000849      0.000004939 1344.53
               --- The CCSD iterations have converged ---

E(0)                                       ...  -3028.469874970
E(CORR)(strong-pairs)                      ...     -2.865953108
E(CORR)(weak-pairs)                        ...     -0.035456420
E(CORR)(corrected)                         ...     -2.901409528
E(TOT)                                     ...  -3031.371284498
Singles norm <S|S>**1/2                    ...      0.195998806 ( 0.064584160, 0.131414646)  
T1 diagnostic                              ...      0.020546258                              
<S**2>(linearized)                         ...      8.7508598 (ideal value:      8.7500000)

----------------------
LARGEST PNO AMPLITUDES
----------------------
  47a-> 78a  47b-> 78b       0.055150
  49b-> 72b  -1b-> -1b       0.054890
  51b-> 73b  -1b-> -1b       0.053677
  52b-> 73b  -1b-> -1b       0.053666
  49b-> 76b  -1b-> -1b       0.047398
  44a-> 77a  44b-> 77b       0.047172
  49b-> 75b  -1b-> -1b       0.046338
  35b-> 72b  -1b-> -1b       0.044303
  38b-> 74b  -1b-> -1b       0.044210
  62a-> 77a  62b-> 77b       0.044002
  55a-> 77a  55b-> 77b       0.043964
  42b-> 74b  -1b-> -1b       0.043893
  70a-> 77a  70b-> 77b       0.043840
  69a-> 77a  69b-> 77b       0.043295
  64a-> 77a  64b-> 77b       0.043255
  43a-> 77a  43b-> 77b       0.042845

Total # unrestricted pairs ...       1262
  # of alpha-alpha pairs   ...        345
  # of alpha-beta pairs    ...        631
  # of beta-beta pairs     ...        286

-------------------------------------------
DLPNO BASED TRIPLES CORRECTION
-------------------------------------------

Singles multiplier          ...  1.000000
Fragment selection                          .... not used
TCutTNO                     ... 1.000e-09
TCutMP2Pairs                ... 1.000e-05
TCutDOStrong                ... 2.000e-02
TCutMKNStrong               ... 1.000e-02
TCutDOWeak                  ... 4.000e-02
TCutMKNWeak                 ... 1.000e-01
NTCutTNO                    ... 1

Number of Triples that are to be computed         ...     30220

 . . . . . . . . .
10% done  
20% done  
30% done  
40% done  
50% done  
60% done  
70% done  
80% done  
90% done  
          Batch   1   done (  11354.440 sec)

Triples-Correction TCutTNO=   1.000e-09 (NWeakPairs = 0  1  2  3)  -0.115977235175   -0.001735332454    0.000000000000    0.000000000000
Triples-Correction  -0.117712567630

Triples timings:
Total time                      ... 11841.374 sec

Triples List generation         ...     0.000 sec
TNO generation                  ...   486.627 sec
Pair density generation         ...     0.084 sec
Look up tables                  ...     0.096 sec
Generating 3-index integrals    ...  7020.116 sec
Make 4-ind.int. from 3-ind.int  ...     2.787 sec
Projecting amplitudes (D + S)   ...  4107.973 sec
Sorting integrals for spin cases...    45.726 sec
Calculate W0/W1                 ...   146.027 sec
Energy contr. (sum over a,b,c)  ...    31.764 sec

Everything after 3-index        ...  4434.643 sec

Energy contribution AAA         ...    22.172 sec
Energy contribution AAB         ...    99.026 sec
Energy contribution ABB         ...    90.008 sec
Energy contribution BBB         ...    12.348 sec
prep                ...     2.599 sec
makeTTNO            ...  4065.509 sec
copyij              ...     0.105 sec
copyil              ...     3.382 sec
transposeij         ...     0.066 sec
newMatInDoubleProj  ...    38.262 sec
BlasInDoubleProj    ...  2235.582 sec
ProjSingles         ...    34.466 sec
ProjDoubles         ...  4073.507 sec
overall Doubles for projection      ... 2663283
used Doubles for projection         ... 2663283


Number of Triples   (0, 1, 2, 3 weak pairs; overall):  14075   10895       0       0  ( 24970)
Number of Atoms     (0, 1, 2, 3 weak pairs; overall):   18.6    13.5     0.0     0.0  (    29)
Number of PAOs      (0, 1, 2, 3 weak pairs; overall):  731.5   548.2     0.0     0.0  (  1025)
Number of AuxFcns   (0, 1, 2, 3 weak pairs; overall):  827.0   565.8     0.0     0.0  (  2424)
Number of TNOs (0, 1, 2, 3 weak pairs         ):   78.4    56.1     0.0     0.0
Aver. Number of NTNO, Atoms, PAOs, AuxFcns / Triples:  24970    68.7    16.4   651.5   713.0

Triples Correction (T)                     ...     -0.117712568
    alpha-alpha-alpha ... -0.003739730 (  3.2%)
    alpha-alpha-beta  ... -0.055306920 ( 47.0%)
    alpha-beta -beta  ... -0.054656436 ( 46.4%)
    beta -beta -beta  ... -0.004009482 (  3.4%)
Final correlation energy                   ...     -3.019122096
E(CCSD)                                    ...  -3031.371284498
E(CCSD(T))                                 ...  -3031.488997065

----------------------------
STATISTICS FOR PAIR-ENERGIES
----------------------------
Minimum, maximum and average ratios of UMP and CCSD pair-energies ... 0.46, 1.45, 1.03


------------------------------------------------------------------------------- 
                                     TIMINGS                                   
------------------------------------------------------------------------------- 


Total execution time                   ...    44262.320 sec

Localization of occupied MO's          ...       11.540 sec (  0.0%)
Fock Matrix Formation                  ...     1554.985 sec (  3.5%)
Differential overlap integrals         ...        1.869 sec (  0.0%)
Organizing maps                        ...        1.769 sec (  0.0%)
RI 3-index integral generations        ...      287.213 sec (  0.6%)
RI-PNO integral transformation         ...     4638.132 sec ( 10.5%)
Initial Guess                          ...     1918.253 sec (  4.3%)
DIIS Solver                            ...       16.125 sec (  0.0%)
State Vector Update                    ...        0.750 sec (  0.0%)
Sigma-vector construction              ...    24258.516 sec ( 54.8%)
  <0|H|D>                              ...        0.030 sec (  0.0% of sigma)
  <D|H|D>(0-ext)                       ...     4092.806 sec ( 16.9% of sigma)
  <D|H|D>(2-ext Fock)                  ...        1.328 sec (  0.0% of sigma)
  <D|H|D>(2-ext)                       ...     3439.853 sec ( 14.2% of sigma)
  <D|H|D>(4-ext)                       ...      148.481 sec (  0.6% of sigma)
  <D|H|D>(4-ext-corr)                  ...      930.094 sec (  3.8% of sigma)
  CCSD doubles correction              ...      372.290 sec (  1.5% of sigma)
  <S|H|S>                              ...      668.926 sec (  2.8% of sigma)
  <S|H|D>(1-ext)                       ...      244.655 sec (  1.0% of sigma)
  <D|H|S>(1-ext)                       ...        0.975 sec (  0.0% of sigma)
  <S|H|D>(3-ext)                       ...       20.666 sec (  0.1% of sigma)
  CCSD singles correction              ...        0.004 sec (  0.0% of sigma)
  Fock-dressing                        ...     6670.350 sec ( 27.5% of sigma)
  Singles amplitudes                   ...      108.331 sec (  0.4% of sigma)
  (ik|jl)-dressing                     ...     6112.744 sec ( 25.2% of sigma)
  (ij|ab),(ia|jb)-dressing             ...     1192.522 sec (  4.9% of sigma)
  Pair energies                        ...        0.138 sec (  0.0% of sigma)
Total Time for computing (T)           ...    11938.258 sec ( 27.0% of ALL)


-------------------------   --------------------
FINAL SINGLE POINT ENERGY     -3031.488997065467
-------------------------   --------------------


                            ***************************************
                            *     ORCA property calculations      *
                            ***************************************

                                    ---------------------
                                    Active property flags
                                    ---------------------
   (+) Dipole Moment


------------------------------------------------------------------------------
                       ORCA ELECTRIC PROPERTIES CALCULATION
------------------------------------------------------------------------------

Dipole Moment Calculation                       ... on
Quadrupole Moment Calculation                   ... off
Polarizability Calculation                      ... off
GBWName                                         ... simple-grid-275-295-b3lyp_d3bj-631gd-gas-singlepoint-DLPNO_CCSD_T1-NormalPNO-augtz-gas.gbw
Electron density file                           ... simple-grid-275-295-b3lyp_d3bj-631gd-gas-singlepoint-DLPNO_CCSD_T1-NormalPNO-augtz-gas.scfp.tmp
The origin for moment calculation is the CENTER OF MASS  = (-0.315997, -0.044175  0.014957)

-------------
DIPOLE MOMENT
-------------
                                X             Y             Z
Electronic contribution:    -43.85733      -5.05194       1.59353
Nuclear contribution   :     47.08362       6.58209      -2.22860
                        -----------------------------------------
Total Dipole Moment    :      3.22629       1.53014      -0.63507
                        -----------------------------------------
Magnitude (a.u.)       :      3.62679
Magnitude (Debye)      :      9.21857



--------------------
Rotational spectrum 
--------------------
 
Rotational constants in cm-1:     0.018795     0.010610     0.009984 
Rotational constants in MHz :   563.461183   318.083943   299.326048 

 Dipole components along the rotational axes: 
x,y,z [a.u.] :     3.220007    -1.525441    -0.676903 
x,y,z [Debye]:     8.184607    -3.877364    -1.720551 

 

Timings for individual modules:

Sum of individual times         ...    60427.668 sec (=1007.128 min)
GTO integral calculation        ...       11.652 sec (=   0.194 min)   0.0 %
SCF iterations                  ...    16137.327 sec (= 268.955 min)  26.7 %
MDCI module                     ...    44278.689 sec (= 737.978 min)  73.3 %
                             ****ORCA TERMINATED NORMALLY****
TOTAL RUN TIME: 0 days 16 hours 47 minutes 10 seconds 684 msec
