
                                 *****************
                                 * O   R   C   A *
                                 *****************

           --- An Ab Initio, DFT and Semiempirical electronic structure package ---

                  #######################################################
                  #                        -***-                        #
                  #          Department of theory and spectroscopy      #
                  #               Directorship: Frank Neese             #
                  #        Max Planck Institute fuer Kohlenforschung    #
                  #                Kaiser Wilhelm Platz 1               #
                  #                 D-45470 Muelheim/Ruhr               #
                  #                      Germany                        #
                  #                                                     #
                  #                  All rights reserved                #
                  #                        -***-                        #
                  #######################################################


                         Program Version 4.1.2  - RELEASE  -


 With contributions from (in alphabetic order):
   Daniel Aravena         : Magnetic Properties
   Michael Atanasov       : Ab Initio Ligand Field Theory
   Alexander A. Auer      : GIAO ZORA
   Ute Becker             : Parallelization
   Giovanni Bistoni       : ED, Open-shell LED
   Martin Brehm           : Molecular dynamics
   Dmytro Bykov           : SCF Hessian
   Vijay G. Chilkuri      : MRCI spin determinant printing
   Dipayan Datta          : RHF DLPNO-CCSD density
   Achintya Kumar Dutta   : EOM-CC, STEOM-CC
   Dmitry Ganyushin       : Spin-Orbit,Spin-Spin,Magnetic field MRCI
   Miquel Garcia          : C-PCM Hessian
   Yang Guo               : DLPNO-NEVPT2, CIM, IAO-localization
   Andreas Hansen         : Spin unrestricted coupled pair/coupled cluster methods
   Benjamin Helmich-Paris : CASSCF linear response (MC-RPA)
   Lee Huntington         : MR-EOM, pCC
   Robert Izsak           : Overlap fitted RIJCOSX, COSX-SCS-MP3, EOM
   Christian Kollmar      : KDIIS, OOCD, Brueckner-CCSD(T), CCSD density
   Simone Kossmann        : Meta GGA functionals, TD-DFT gradient, OOMP2, MP2 Hessian
   Martin Krupicka        : AUTO-CI
   Lucas Lang             : DCDCAS
   Dagmar Lenk            : GEPOL surface, SMD
   Dimitrios Liakos       : Extrapolation schemes; parallel MDCI
   Dimitrios Manganas     : ROCIS; embedding schemes
   Dimitrios Pantazis     : SARC Basis sets
   Taras Petrenko         : DFT Hessian,TD-DFT gradient, ASA, ECA, R-Raman, ABS, FL, XAS/XES, NRVS
   Peter Pinski           : DLPNO-MP2, DLPNO-MP2 Gradient
   Christoph Reimann      : Effective Core Potentials
   Marius Retegan         : Local ZFS, SOC
   Christoph Riplinger    : Optimizer, TS searches, QM/MM, DLPNO-CCSD(T), (RO)-DLPNO pert. Triples
   Tobias Risthaus        : Range-separated hybrids, TD-DFT gradient, RPA, STAB
   Michael Roemelt        : Restricted open shell CIS
   Masaaki Saitow         : Open-shell DLPNO
   Barbara Sandhoefer     : DKH picture change effects
   Avijit Sen             : IP-ROCIS
   Kantharuban Sivalingam : CASSCF convergence, NEVPT2, FIC-MRCI
   Bernardo de Souza      : ESD, SOC TD-DFT
   Georgi Stoychev        : AutoAux, RI-MP2 NMR
   Willem Van den Heuvel  : Paramagnetic NMR
   Boris Wezisla          : Elementary symmetry handling
   Frank Wennmohs         : Technical directorship


 We gratefully acknowledge several colleagues who have allowed us to
 interface, adapt or use parts of their codes:
   Stefan Grimme, W. Hujo, H. Kruse,             : VdW corrections, initial TS optimization,
                  C. Bannwarth                     DFT functionals, gCP, sTDA/sTD-DF
   Ed Valeev                                     : LibInt (2-el integral package), F12 methods
   Garnet Chan, S. Sharma, J. Yang, R. Olivares  : DMRG
   Ulf Ekstrom                                   : XCFun DFT Library
   Mihaly Kallay                                 : mrcc  (arbitrary order and MRCC methods)
   Andreas Klamt, Michael Diedenhofen            : otool_cosmo (COSMO solvation model)
   Jiri Pittner, Ondrej Demel                    : Mk-CCSD
   Frank Weinhold                                : gennbo (NPA and NBO analysis)
   Christopher J. Cramer and Donald G. Truhlar   : smd solvation model
   Lars Goerigk                                  : TD-DFT with DH, B97 family of functionals
   V. Asgeirsson, H. Jonsson                     : NEB implementation
   FAccTs GmbH                                   : IRC, NEB, NEB-TS, Multilevel


 Your calculation uses the libint2 library for the computation of 2-el integrals
 For citations please refer to: http://libint.valeyev.net

 This ORCA versions uses:
   CBLAS   interface :  Fast vector & matrix operations
   LAPACKE interface :  Fast linear algebra routines
   SCALAPACK package :  Parallel linear algebra routines


----- Orbital basis set information -----
Your calculation utilizes the basis: aug-cc-pVTZ 
    H, B-Ne : Obtained from the ccRepo (grant-hill.group.shef.ac.uk/ccrepo) Feb. 2017
              R. A. Kendall, T. H. Dunning, Jr., R. J. Harrison, J. Chem. Phys. 96, 6796 (1992)
         He : Obtained from the ccRepo (grant-hill.group.shef.ac.uk/ccrepo) Feb. 2017
              D. E. Woon, T. H. Dunning, Jr., J. Chem. Phys. 100, 2975 (1994)
  Li-Be, Na : Obtained from the ccRepo (grant-hill.group.shef.ac.uk/ccrepo) Feb. 2017
              B. P. Prascher, D. E. Woon, K. A. Peterson, T. H. Dunning, Jr., A. K. Wilson, Theor. Chem. Acc. 128, 69 (2011)
         Mg : Obtained from the Peterson Research Group Website (tyr0.chem.wsu.edu/~kipeters) Feb. 2017
              B. P. Prascher, D. E. Woon, K. A. Peterson, T. H. Dunning, Jr., A. K. Wilson, Theor. Chem. Acc. 128, 69 (2011)
      Al-Ar : Obtained from the ccRepo (grant-hill.group.shef.ac.uk/ccrepo) Feb. 2017
              D. E. Woon, T. H. Dunning, Jr., J. Chem. Phys. 98, 1358 (1993)
      Sc-Zn : Obtained from the ccRepo (grant-hill.group.shef.ac.uk/ccrepo) Feb. 2017
              N. B. Balabanov, K. A. Peterson, J. Chem. Phys. 123, 064107 (2005)
              N. B. Balabanov, K. A. Peterson, J. Chem. Phys. 125, 074110 (2006)
      Ga-Kr : Obtained from the ccRepo (grant-hill.group.shef.ac.uk/ccrepo) Feb. 2017
              A. K. Wilson, D. E. Woon, K. A. Peterson, T. H. Dunning, Jr., J. Chem. Phys. 110, 7667 (1999)
     Ag, Au : Obtained from the Peterson Research Group Website (tyr0.chem.wsu.edu/~kipeters) Feb. 2017
              K. A. Peterson, C. Puzzarini, Theor. Chem. Acc. 114, 283 (2005)

----- AuxJ basis set information -----
Your calculation utilizes the AutoAux generation procedure.
  G. L. Stoychev, A. A. Auer, F. Neese, J. Chem. Theory Comput. 13, 554 (2017)

----- AuxC basis set information -----
Your calculation utilizes the auxiliary basis: aug-cc-pVTZ/C 
  H-He, B-F, Al-Ar, Ga-Kr : Obtained from the EMSL Basis Set Exchange (bse.pnl.gov) Feb. 2017
                            F. Weigend, A. Kohn, C. Hattig, J. Chem. Phys. 116, 3175 (2002)
                   Be, Mg : Obtained from the TURBOMOLE 7.0 basis set library
                            C. Haettig, Phys. Chem. Chem. Phys. 7, 59 (2005)
                       Ne : Obtained from the EMSL Basis Set Exchange (bse.pnl.gov) Feb. 2017
                            C. Haettig, Phys. Chem. Chem. Phys. 7, 59 (2005)
                            F. Weigend, A. Kohn, C. Hattig, J. Chem. Phys. 116, 3175 (2002)
                    Sc-Zn : Obtained from the EMSL Basis Set Exchange (bse.pnl.gov) Feb. 2017
                            J. G. Hill, J. A. Platts, J. Chem. Phys. 128, 044104 (2008)

----- AuxJK basis set information -----
Your calculation utilizes the AutoAux generation procedure.
  G. L. Stoychev, A. A. Auer, F. Neese, J. Chem. Theory Comput. 13, 554 (2017)

================================================================================
                                        WARNINGS
                       Please study these warnings very carefully!
================================================================================


WARNING: your system is open-shell and RHF/RKS was chosen
  ===> : WILL SWITCH to UHF/UKS


WARNING: MDCI localization with Augmented Hessian Foster-Boys
  ===> : Switching off randomization!

WARNING: Post HF methods need fully converged wavefunctions
  ===> : Setting SCFConvForced true
         You can overwrite this default with %scf ConvForced false 


INFO   : the flag for use of LIBINT has been found!

================================================================================
                                       INPUT FILE
================================================================================
NAME = simple-grid-195-210-b3lyp_d3bj-631gd-gas-singlepoint-DLPNO_CCSD_T1-NormalPNO-augtz-gas.inp
|  1> ! aug-cc-pVTZ aug-cc-pVTZ/C DLPNO-CCSD(T1) TightSCF NormalPNO UNO MiniPrint AutoAux
|  2> %pal nproc 10 end
|  3> %maxcore 20000
|  4> %mdci
|  5>      density none
|  6> end
|  7> 
|  8> * xyz 0 6
|  9>  O     -0.38272600     -0.14092900     -0.49828600
| 10>  C     -1.32925800     -1.15506600     -0.40919600
| 11>  C     -2.92975300     -0.07068300     -0.15419300
| 12>  C     -2.07075400      1.08701200     -0.26862100
| 13>  C     -1.90956900      1.76791000     -1.57938000
| 14> Fe      1.39685600      0.05174500      0.04684300
| 15> Cl      1.88048900      2.03105400     -0.81697500
| 16>  C     -1.58828600      1.81470500      0.93313900
| 17> Cl      2.46980500     -1.69876700     -0.74146700
| 18> Cl      1.36199200      0.11022700      2.26362400
| 19>  H     -3.51291200     -0.25893900     -1.05524700
| 20>  H     -2.41967700      2.45936300      1.26198400
| 21>  H     -1.34023300      1.14938100      1.76078200
| 22>  H     -0.72744000      2.44511600      0.70412700
| 23>  H     -2.63384600      2.59897300     -1.58813600
| 24>  H     -0.90678900      2.18823200     -1.68686600
| 25>  H     -2.14263500      1.11295800     -2.42045800
| 26>  C     -3.67516300     -0.36649600      1.12910800
| 27>  H     -4.51428700      0.32782900      1.26447100
| 28>  H     -4.09147500     -1.37763700      1.09698000
| 29>  H     -3.03950900     -0.29644300      2.01458000
| 30>  C     -1.17246100     -2.04728400      0.79251200
| 31>  H     -2.00123700     -2.75384700      0.88650900
| 32>  H     -0.24590800     -2.62074200      0.64917400
| 33>  H     -1.05666300     -1.47553300      1.71443300
| 34>  C     -1.51427400     -1.87406700     -1.72162100
| 35>  H     -0.57491400     -2.40071200     -1.93760800
| 36>  H     -2.32886000     -2.60278300     -1.67515000
| 37>  H     -1.69182300     -1.17207400     -2.53978400
| 38> *
| 39> 
| 40> 
| 41>                          ****END OF INPUT****
================================================================================

                       ****************************
                       * Single Point Calculation *
                       ****************************

---------------------------------
CARTESIAN COORDINATES (ANGSTROEM)
---------------------------------
  O     -0.382726   -0.140929   -0.498286
  C     -1.329258   -1.155066   -0.409196
  C     -2.929753   -0.070683   -0.154193
  C     -2.070754    1.087012   -0.268621
  C     -1.909569    1.767910   -1.579380
  Fe     1.396856    0.051745    0.046843
  Cl     1.880489    2.031054   -0.816975
  C     -1.588286    1.814705    0.933139
  Cl     2.469805   -1.698767   -0.741467
  Cl     1.361992    0.110227    2.263624
  H     -3.512912   -0.258939   -1.055247
  H     -2.419677    2.459363    1.261984
  H     -1.340233    1.149381    1.760782
  H     -0.727440    2.445116    0.704127
  H     -2.633846    2.598973   -1.588136
  H     -0.906789    2.188232   -1.686866
  H     -2.142635    1.112958   -2.420458
  C     -3.675163   -0.366496    1.129108
  H     -4.514287    0.327829    1.264471
  H     -4.091475   -1.377637    1.096980
  H     -3.039509   -0.296443    2.014580
  C     -1.172461   -2.047284    0.792512
  H     -2.001237   -2.753847    0.886509
  H     -0.245908   -2.620742    0.649174
  H     -1.056663   -1.475533    1.714433
  C     -1.514274   -1.874067   -1.721621
  H     -0.574914   -2.400712   -1.937608
  H     -2.328860   -2.602783   -1.675150
  H     -1.691823   -1.172074   -2.539784

----------------------------
CARTESIAN COORDINATES (A.U.)
----------------------------
  NO LB      ZA    FRAG     MASS         X           Y           Z
   0 O     8.0000    0    15.999   -0.723247   -0.266317   -0.941624
   1 C     6.0000    0    12.011   -2.511934   -2.182758   -0.773268
   2 C     6.0000    0    12.011   -5.536431   -0.133572   -0.291383
   3 C     6.0000    0    12.011   -3.913158    2.054155   -0.507620
   4 C     6.0000    0    12.011   -3.608562    3.340866   -2.984596
   5 Fe   26.0000    0    55.850    2.639675    0.097784    0.088520
   6 Cl   17.0000    0    35.453    3.553609    3.838136   -1.543859
   7 C     6.0000    0    12.011   -3.001426    3.429295    1.763377
   8 Cl   17.0000    0    35.453    4.667255   -3.210204   -1.401170
   9 Cl   17.0000    0    35.453    2.573792    0.208299    4.277629
  10 H     1.0000    0     1.008   -6.638442   -0.489324   -1.994128
  11 H     1.0000    0     1.008   -4.572527    4.647523    2.384804
  12 H     1.0000    0     1.008   -2.532673    2.172015    3.327396
  13 H     1.0000    0     1.008   -1.374662    4.620600    1.330607
  14 H     1.0000    0     1.008   -4.977248    4.911347   -3.001142
  15 H     1.0000    0     1.008   -1.713583    4.135159   -3.187715
  16 H     1.0000    0     1.008   -4.048993    2.103186   -4.574003
  17 C     6.0000    0    12.011   -6.945052   -0.692577    2.133705
  18 H     1.0000    0     1.008   -8.530766    0.619507    2.389504
  19 H     1.0000    0     1.008   -7.731767   -2.603357    2.072992
  20 H     1.0000    0     1.008   -5.743840   -0.560196    3.807004
  21 C     6.0000    0    12.011   -2.215630   -3.868806    1.497631
  22 H     1.0000    0     1.008   -3.781790   -5.204017    1.675259
  23 H     1.0000    0     1.008   -0.464699   -4.952485    1.226761
  24 H     1.0000    0     1.008   -1.996804   -2.788353    3.239809
  25 C     6.0000    0    12.011   -2.861563   -3.541473   -3.253392
  26 H     1.0000    0     1.008   -1.086430   -4.536688   -3.661548
  27 H     1.0000    0     1.008   -4.400908   -4.918547   -3.165575
  28 H     1.0000    0     1.008   -3.197082   -2.214899   -4.799496



           ************************************************************
           *        Program running with 10 parallel MPI-processes    *
           *              working on a common directory               *
           ************************************************************


           ************************************************************
           *        Program running with 10 parallel MPI-processes    *
           *              working on a common directory               *
           ************************************************************

Diagonalization of the overlap matrix:
Smallest eigenvalue                        ... 6.980e-07
Time for diagonalization                   ...    0.351 sec
Threshold for overlap eigenvalues          ... 1.000e-08
Number of eigenvalues below threshold      ... 0
Time for construction of square roots      ...    0.300 sec
Total time needed                          ...    0.655 sec

-------------------
DFT GRID GENERATION
-------------------

General Integration Accuracy     IntAcc      ...  4.340
Radial Grid Type                 RadialGrid  ... Gauss-Chebyshev
Angular Grid (max. acc.)         AngularGrid ... Lebedev-110
Angular grid pruning method      GridPruning ... 3 (G Style)
Weight generation scheme         WeightScheme... Becke
Basis function cutoff            BFCut       ...    1.0000e-11
Integration weight cutoff        WCut        ...    1.0000e-14
Grids for H and He will be reduced by one unit

# of grid points (after initial pruning)     ...  36112 (   0.0 sec)
# of grid points (after weights+screening)   ...  32302 (   0.1 sec)
nearest neighbour list constructed           ...    0.0 sec
Grid point re-assignment to atoms done       ...    0.0 sec
Grid point division into batches done        ...    0.0 sec
Reduced shell lists constructed in    0.3 sec

Total number of grid points                  ...    32302
Total number of batches                      ...      522
Average number of points per batch           ...       61
Average number of grid points per atom       ...     1114
Average number of shells per batch           ...   293.72 (85.63%)
Average number of basis functions per batch  ...   874.09 (85.28%)
Average number of large shells per batch     ...   243.44 (82.88%)
Average number of large basis fcns per batch ...   723.59 (82.78%)
Maximum spatial batch extension              ...   2.43,  3.28,  3.22 au
Average spatial batch extension              ...   0.17,  0.18,  0.17 au

Time for grid setup =    0.407 sec

Loading Hartree-Fock densities                     ... done
Calculating cut-offs                               ... done
Setting up the integral package                    ... done
Initializing the effective Hamiltonian             ... done
Starting the Coulomb interaction                   ... done (   1.1 sec)
Reading the grid                                   ... done
Mapping shells                                     ... done
Starting the XC term evaluation                    ... done (   0.9 sec)
Transforming the Hamiltonian                       ... done (   0.2 sec)
Diagonalizing the Hamiltonian                      ... done (   0.4 sec)
Back transforming the eigenvectors                 ... done (   0.1 sec)
Now organizing SCF variables                       ... done
--------------
SCF ITERATIONS
--------------
ITER       Energy         Delta-E        Max-DP      RMS-DP      [F,P]     Damp
               ***  Starting incremental Fock matrix formation  ***
  0  -3027.5578010048   0.000000000000 0.31855516  0.00130152  0.2711565 0.7000
  1  -3027.8058256739  -0.248024669110 0.23433313  0.00099778  0.1616426 0.7000
                               ***Turning on DIIS***
  2  -3027.9731650563  -0.167339382342 0.16485413  0.00072454  0.1093227 0.7000
  3  -3029.6638258543  -1.690660797985 0.38170179  0.00178291  0.0819319 0.0000
  4  -3028.2844368750   1.379388979277 0.04594408  0.00023533  0.0183968 0.0000
  5  -3028.4097449814  -0.125308106399 0.03903538  0.00017434  0.0117722 0.0000
  6  -3028.4286320834  -0.018887101960 0.01967984  0.00006860  0.0054552 0.0000
  7  -3028.4433120496  -0.014679966208 0.00875501  0.00003070  0.0032504 0.0000
  8  -3028.4415334461   0.001778603500 0.00565178  0.00001778  0.0013575 0.0000
  9  -3028.4305437828   0.010989663291 0.00219777  0.00001003  0.0007011 0.0000
 10  -3028.4199217701   0.010622012659 0.00091979  0.00000325  0.0004416 0.0000
 11  -3028.4265113847  -0.006589614552 0.00028509  0.00000179  0.0000722 0.0000
 12  -3028.4242668161   0.002244568572 0.00072050  0.00000162  0.0000231 0.0000
 13  -3028.4242767738  -0.000009957749 0.00078760  0.00000259  0.0000097 0.0000
 14  -3028.4242382286   0.000038545281 0.00153574  0.00000301  0.0000055 0.0000
 15  -3028.4241861342   0.000052094358 0.00082865  0.00000214  0.0000035 0.0000
 16  -3028.4242054308  -0.000019296640 0.00137655  0.00000288  0.0000023 0.0000
 17  -3028.4242239928  -0.000018561930 0.00097947  0.00000242  0.0000013 0.0000
                            ***DIIS convergence achieved***

               *****************************************************
               *                     SUCCESS                       *
               *           SCF CONVERGED AFTER  18 CYCLES          *
               *****************************************************

Total Energy       :        -3028.42420628 Eh          -82407.61217 eV
  Last Energy change         ...    1.7716e-05  Tolerance :   1.0000e-08
  Last MAX-Density change    ...    1.6560e-03  Tolerance :   1.0000e-07
             **** THE GBW FILE WAS UPDATED (simple-grid-195-210-b3lyp_d3bj-631gd-gas-singlepoint-DLPNO_CCSD_T1-NormalPNO-augtz-gas.gbw) ****
             **** DENSITY FILE WAS UPDATED (simple-grid-195-210-b3lyp_d3bj-631gd-gas-singlepoint-DLPNO_CCSD_T1-NormalPNO-augtz-gas.scfp.tmp) ****
             **** ENERGY FILE WAS UPDATED (simple-grid-195-210-b3lyp_d3bj-631gd-gas-singlepoint-DLPNO_CCSD_T1-NormalPNO-augtz-gas.en.tmp) ****
----------------------
UHF SPIN CONTAMINATION
----------------------

Expectation value of <S**2>     :     8.764576
Ideal value S*(S+1) for S=2.5   :     8.750000
Deviation                       :     0.014576

----------------
ORBITAL ENERGIES
----------------
                 SPIN UP ORBITALS
  NO   OCC          E(Eh)            E(eV) 
   0   1.0000    -261.550858     -7117.1607 
   1   1.0000    -104.777591     -2851.1432 
   2   1.0000    -104.776032     -2851.1008 
   3   1.0000    -104.775532     -2851.0872 
   4   1.0000     -32.218756      -876.7169 
   5   1.0000     -27.694668      -753.6102 
   6   1.0000     -27.694469      -753.6048 
   7   1.0000     -27.694205      -753.5976 
   8   1.0000     -20.555939      -559.3555 
   9   1.0000     -11.389209      -309.9161 
  10   1.0000     -11.373202      -309.4806 
  11   1.0000     -11.280241      -306.9510 
  12   1.0000     -11.273592      -306.7700 
  13   1.0000     -11.270391      -306.6829 
  14   1.0000     -11.259855      -306.3962 
  15   1.0000     -11.248541      -306.0884 
  16   1.0000     -11.244854      -305.9880 
  17   1.0000     -10.504111      -285.8314 
  18   1.0000     -10.502625      -285.7910 
  19   1.0000     -10.502088      -285.7763 
  20   1.0000      -7.970927      -216.9000 
  21   1.0000      -7.970199      -216.8802 
  22   1.0000      -7.970121      -216.8780 
  23   1.0000      -7.969516      -216.8616 
  24   1.0000      -7.968896      -216.8447 
  25   1.0000      -7.968675      -216.8387 
  26   1.0000      -7.968623      -216.8372 
  27   1.0000      -7.968196      -216.8256 
  28   1.0000      -7.968121      -216.8236 
  29   1.0000      -4.574192      -124.4701 
  30   1.0000      -3.186739       -86.7156 
  31   1.0000      -3.186337       -86.7046 
  32   1.0000      -3.185722       -86.6879 
  33   1.0000      -1.377506       -37.4838 
  34   1.0000      -1.170285       -31.8451 
  35   1.0000      -1.084769       -29.5181 
  36   1.0000      -1.048973       -28.5440 
  37   1.0000      -1.043030       -28.3823 
  38   1.0000      -1.042096       -28.3569 
  39   1.0000      -1.040059       -28.3015 
  40   1.0000      -1.006680       -27.3932 
  41   1.0000      -0.977483       -26.5987 
  42   1.0000      -0.929697       -25.2984 
  43   1.0000      -0.909510       -24.7490 
  44   1.0000      -0.903810       -24.5939 
  45   1.0000      -0.903518       -24.5860 
  46   1.0000      -0.895302       -24.3624 
  47   1.0000      -0.894703       -24.3461 
  48   1.0000      -0.785339       -21.3702 
  49   1.0000      -0.761637       -20.7252 
  50   1.0000      -0.695069       -18.9138 
  51   1.0000      -0.690271       -18.7832 
  52   1.0000      -0.671135       -18.2625 
  53   1.0000      -0.646494       -17.5920 
  54   1.0000      -0.636794       -17.3280 
  55   1.0000      -0.624886       -17.0040 
  56   1.0000      -0.598606       -16.2889 
  57   1.0000      -0.593053       -16.1378 
  58   1.0000      -0.589765       -16.0483 
  59   1.0000      -0.582766       -15.8579 
  60   1.0000      -0.573161       -15.5965 
  61   1.0000      -0.562338       -15.3020 
  62   1.0000      -0.552572       -15.0363 
  63   1.0000      -0.543485       -14.7890 
  64   1.0000      -0.535592       -14.5742 
  65   1.0000      -0.531451       -14.4615 
  66   1.0000      -0.508683       -13.8420 
  67   1.0000      -0.481192       -13.0939 
  68   1.0000      -0.464061       -12.6277 
  69   1.0000      -0.452459       -12.3120 
  70   1.0000      -0.432157       -11.7596 
  71   1.0000      -0.427158       -11.6236 
  72   1.0000      -0.423994       -11.5375 
  73   1.0000      -0.417987       -11.3740 
  74   1.0000      -0.415304       -11.3010 
  75   1.0000      -0.414327       -11.2744 
  76   1.0000      -0.383493       -10.4354 
  77   0.0000       0.008947         0.2435 
  78   0.0000       0.020165         0.5487 
  79   0.0000       0.022502         0.6123 
  80   0.0000       0.030726         0.8361 
  81   0.0000       0.037136         1.0105 
  82   0.0000       0.038398         1.0449 
  83   0.0000       0.042143         1.1468 
  84   0.0000       0.043876         1.1939 
  85   0.0000       0.044482         1.2104 
  86   0.0000       0.047262         1.2861 
  87   0.0000       0.056334         1.5329 
  88   0.0000       0.060737         1.6528 
  89   0.0000       0.061387         1.6704 
  90   0.0000       0.064972         1.7680 
  91   0.0000       0.066445         1.8080 
  92   0.0000       0.071132         1.9356 
  93   0.0000       0.073093         1.9890 
  94   0.0000       0.081777         2.2253 
  95   0.0000       0.088181         2.3995 
  96   0.0000       0.089677         2.4402 
  97   0.0000       0.091158         2.4805 
  98   0.0000       0.094500         2.5715 
  99   0.0000       0.100578         2.7369 
 100   0.0000       0.102846         2.7986 
 101   0.0000       0.110827         3.0157 
 102   0.0000       0.115548         3.1442 
 103   0.0000       0.119313         3.2467 
 104   0.0000       0.122374         3.3300 
 105   0.0000       0.124223         3.3803 
 106   0.0000       0.127940         3.4814 
 107   0.0000       0.129194         3.5156 
 108   0.0000       0.131230         3.5709 
 109   0.0000       0.132571         3.6074 
 110   0.0000       0.136384         3.7112 
 111   0.0000       0.138112         3.7582 
 112   0.0000       0.145303         3.9539 
 113   0.0000       0.148241         4.0338 
 114   0.0000       0.150177         4.0865 
 115   0.0000       0.153014         4.1637 
 116   0.0000       0.157823         4.2946 
 117   0.0000       0.161561         4.3963 
 118   0.0000       0.163454         4.4478 
 119   0.0000       0.166026         4.5178 
 120   0.0000       0.170937         4.6514 
 121   0.0000       0.175708         4.7813 
 122   0.0000       0.178010         4.8439 
 123   0.0000       0.180755         4.9186 
 124   0.0000       0.183840         5.0025 
 125   0.0000       0.187590         5.1046 
 126   0.0000       0.192971         5.2510 
 127   0.0000       0.194981         5.3057 
 128   0.0000       0.196125         5.3368 
 129   0.0000       0.197854         5.3839 
 130   0.0000       0.201519         5.4836 
 131   0.0000       0.207465         5.6454 
 132   0.0000       0.207953         5.6587 
 133   0.0000       0.209672         5.7055 
 134   0.0000       0.214401         5.8341 
 135   0.0000       0.216927         5.9029 
 136   0.0000       0.221075         6.0158 
 137   0.0000       0.223326         6.0770 
 138   0.0000       0.228696         6.2231 
 139   0.0000       0.232939         6.3386 
 140   0.0000       0.238634         6.4936 
 141   0.0000       0.241002         6.5580 
 142   0.0000       0.241982         6.5847 
 143   0.0000       0.243204         6.6179 
 144   0.0000       0.247919         6.7462 
 145   0.0000       0.251881         6.8540 
 146   0.0000       0.253646         6.9021 
 147   0.0000       0.256891         6.9904 
 148   0.0000       0.257477         7.0063 
 149   0.0000       0.259909         7.0725 
 150   0.0000       0.267768         7.2863 
 151   0.0000       0.275626         7.5002 
 152   0.0000       0.277298         7.5457 
 153   0.0000       0.281275         7.6539 
 154   0.0000       0.284089         7.7305 
 155   0.0000       0.285720         7.7748 
 156   0.0000       0.292249         7.9525 
 157   0.0000       0.295646         8.0449 
 158   0.0000       0.298464         8.1216 
 159   0.0000       0.303341         8.2543 
 160   0.0000       0.306892         8.3510 
 161   0.0000       0.308993         8.4081 
 162   0.0000       0.312601         8.5063 
 163   0.0000       0.318408         8.6643 
 164   0.0000       0.324047         8.8178 
 165   0.0000       0.326439         8.8829 
 166   0.0000       0.330378         8.9900 
 167   0.0000       0.340541         9.2666 
 168   0.0000       0.340695         9.2708 
 169   0.0000       0.348688         9.4883 
 170   0.0000       0.348925         9.4947 
 171   0.0000       0.355439         9.6720 
 172   0.0000       0.360327         9.8050 
 173   0.0000       0.361808         9.8453 
 174   0.0000       0.364309         9.9134 
 175   0.0000       0.365679         9.9506 
 176   0.0000       0.369494        10.0544 
 177   0.0000       0.373334        10.1589 
 178   0.0000       0.375730        10.2241 
 179   0.0000       0.379996        10.3402 
 180   0.0000       0.382546        10.4096 
 181   0.0000       0.384809        10.4712 
 182   0.0000       0.386523        10.5178 
 183   0.0000       0.388204        10.5636 
 184   0.0000       0.390141        10.6163 
 185   0.0000       0.397381        10.8133 
 186   0.0000       0.399366        10.8673 
 187   0.0000       0.401211        10.9175 
 188   0.0000       0.404348        11.0029 
 189   0.0000       0.407671        11.0933 
 190   0.0000       0.413898        11.2627 
 191   0.0000       0.415971        11.3191 
 192   0.0000       0.421165        11.4605 
 193   0.0000       0.424124        11.5410 
 194   0.0000       0.425739        11.5850 
 195   0.0000       0.431311        11.7366 
 196   0.0000       0.436156        11.8684 
 197   0.0000       0.442361        12.0373 
 198   0.0000       0.446819        12.1586 
 199   0.0000       0.448328        12.1996 
 200   0.0000       0.452603        12.3159 
 201   0.0000       0.458449        12.4750 
 202   0.0000       0.460043        12.5184 
 203   0.0000       0.463313        12.6074 
 204   0.0000       0.466759        12.7012 
 205   0.0000       0.468981        12.7616 
 206   0.0000       0.470832        12.8120 
 207   0.0000       0.472398        12.8546 
 208   0.0000       0.474937        12.9237 
 209   0.0000       0.478167        13.0116 
 210   0.0000       0.482060        13.1175 
 211   0.0000       0.486336        13.2339 
 212   0.0000       0.491708        13.3801 
 213   0.0000       0.492605        13.4045 
 214   0.0000       0.496589        13.5129 
 215   0.0000       0.497099        13.5267 
 216   0.0000       0.500202        13.6112 
 217   0.0000       0.503108        13.6903 
 218   0.0000       0.507247        13.8029 
 219   0.0000       0.513505        13.9732 
 220   0.0000       0.515059        14.0155 
 221   0.0000       0.516306        14.0494 
 222   0.0000       0.519135        14.1264 
 223   0.0000       0.522307        14.2127 
 224   0.0000       0.527646        14.3580 
 225   0.0000       0.529511        14.4087 
 226   0.0000       0.533713        14.5231 
 227   0.0000       0.539083        14.6692 
 228   0.0000       0.542143        14.7525 
 229   0.0000       0.549211        14.9448 
 230   0.0000       0.552174        15.0254 
 231   0.0000       0.552964        15.0469 
 232   0.0000       0.559276        15.2187 
 233   0.0000       0.563632        15.3372 
 234   0.0000       0.569511        15.4972 
 235   0.0000       0.570445        15.5226 
 236   0.0000       0.576127        15.6772 
 237   0.0000       0.577672        15.7193 
 238   0.0000       0.578656        15.7460 
 239   0.0000       0.582458        15.8495 
 240   0.0000       0.586237        15.9523 
 241   0.0000       0.589329        16.0365 
 242   0.0000       0.597751        16.2656 
 243   0.0000       0.598520        16.2865 
 244   0.0000       0.605806        16.4848 
 245   0.0000       0.606689        16.5089 
 246   0.0000       0.612197        16.6587 
 247   0.0000       0.614465        16.7204 
 248   0.0000       0.618938        16.8422 
 249   0.0000       0.620738        16.8911 
 250   0.0000       0.623962        16.9789 
 251   0.0000       0.627841        17.0844 
 252   0.0000       0.630615        17.1599 
 253   0.0000       0.637002        17.3337 
 254   0.0000       0.640227        17.4215 
 255   0.0000       0.644725        17.5438 
 256   0.0000       0.647664        17.6238 
 257   0.0000       0.650591        17.7035 
 258   0.0000       0.657519        17.8920 
 259   0.0000       0.659150        17.9364 
 260   0.0000       0.664523        18.0826 
 261   0.0000       0.667272        18.1574 
 262   0.0000       0.672209        18.2917 
 263   0.0000       0.674560        18.3557 
 264   0.0000       0.676228        18.4011 
 265   0.0000       0.684493        18.6260 
 266   0.0000       0.686953        18.6929 
 267   0.0000       0.693172        18.8622 
 268   0.0000       0.696581        18.9549 
 269   0.0000       0.705307        19.1924 
 270   0.0000       0.707428        19.2501 
 271   0.0000       0.710176        19.3249 
 272   0.0000       0.714263        19.4361 
 273   0.0000       0.722190        19.6518 
 274   0.0000       0.726246        19.7622 
 275   0.0000       0.728446        19.8220 
 276   0.0000       0.734348        19.9826 
 277   0.0000       0.740385        20.1469 
 278   0.0000       0.743716        20.2375 
 279   0.0000       0.749849        20.4044 
 280   0.0000       0.758901        20.6508 
 281   0.0000       0.761155        20.7121 
 282   0.0000       0.765923        20.8418 
 283   0.0000       0.774405        21.0726 
 284   0.0000       0.777242        21.1498 
 285   0.0000       0.779237        21.2041 
 286   0.0000       0.785044        21.3621 
 287   0.0000       0.790946        21.5227 
 288   0.0000       0.798968        21.7410 
 289   0.0000       0.804144        21.8819 
 290   0.0000       0.807345        21.9690 
 291   0.0000       0.809736        22.0340 
 292   0.0000       0.821237        22.3470 
 293   0.0000       0.822560        22.3830 
 294   0.0000       0.834238        22.7008 
 295   0.0000       0.837862        22.7994 
 296   0.0000       0.842059        22.9136 
 297   0.0000       0.847782        23.0693 
 298   0.0000       0.856191        23.2981 
 299   0.0000       0.857587        23.3361 
 300   0.0000       0.862326        23.4651 
 301   0.0000       0.867493        23.6057 
 302   0.0000       0.871624        23.7181 
 303   0.0000       0.872602        23.7447 
 304   0.0000       0.878575        23.9073 
 305   0.0000       0.881655        23.9911 
 306   0.0000       0.883755        24.0482 
 307   0.0000       0.890455        24.2305 
 308   0.0000       0.898098        24.4385 
 309   0.0000       0.898901        24.4603 
 310   0.0000       0.907579        24.6965 
 311   0.0000       0.909766        24.7560 
 312   0.0000       0.918958        25.0061 
 313   0.0000       0.923267        25.1234 
 314   0.0000       0.925511        25.1844 
 315   0.0000       0.927545        25.2398 
 316   0.0000       0.933754        25.4087 
 317   0.0000       0.937005        25.4972 
 318   0.0000       0.940057        25.5802 
 319   0.0000       0.941451        25.6182 
 320   0.0000       0.949099        25.8263 
 321   0.0000       0.951618        25.8948 
 322   0.0000       0.956432        26.0258 
 323   0.0000       0.958320        26.0772 
 324   0.0000       0.963805        26.2265 
 325   0.0000       0.965614        26.2757 
 326   0.0000       0.971485        26.4354 
 327   0.0000       0.972738        26.4695 
 328   0.0000       0.975883        26.5551 
 329   0.0000       0.979490        26.6533 
 330   0.0000       0.981658        26.7123 
 331   0.0000       0.987359        26.8674 
 332   0.0000       0.989328        26.9210 
 333   0.0000       0.993278        27.0285 
 334   0.0000       0.995836        27.0981 
 335   0.0000       1.002565        27.2812 
 336   0.0000       1.005230        27.3537 
 337   0.0000       1.009286        27.4641 
 338   0.0000       1.017169        27.6786 
 339   0.0000       1.020137        27.7593 
 340   0.0000       1.022843        27.8330 
 341   0.0000       1.027902        27.9706 
 342   0.0000       1.029703        28.0196 
 343   0.0000       1.033705        28.1285 
 344   0.0000       1.037483        28.2313 
 345   0.0000       1.040668        28.3180 
 346   0.0000       1.043751        28.4019 
 347   0.0000       1.046464        28.4757 
 348   0.0000       1.048871        28.5412 
 349   0.0000       1.055853        28.7312 
 350   0.0000       1.058808        28.8116 
 351   0.0000       1.062209        28.9042 
 352   0.0000       1.064743        28.9731 
 353   0.0000       1.066080        29.0095 
 354   0.0000       1.072759        29.1913 
 355   0.0000       1.076180        29.2844 
 356   0.0000       1.079560        29.3763 
 357   0.0000       1.081633        29.4327 
 358   0.0000       1.087096        29.5814 
 359   0.0000       1.091699        29.7066 
 360   0.0000       1.093367        29.7520 
 361   0.0000       1.101855        29.9830 
 362   0.0000       1.108356        30.1599 
 363   0.0000       1.109392        30.1881 
 364   0.0000       1.118247        30.4290 
 365   0.0000       1.123131        30.5619 
 366   0.0000       1.125996        30.6399 
 367   0.0000       1.128914        30.7193 
 368   0.0000       1.130897        30.7733 
 369   0.0000       1.137877        30.9632 
 370   0.0000       1.143061        31.1043 
 371   0.0000       1.145905        31.1817 
 372   0.0000       1.150093        31.2956 
 373   0.0000       1.154266        31.4092 
 374   0.0000       1.158898        31.5352 
 375   0.0000       1.163473        31.6597 
 376   0.0000       1.167668        31.7739 
 377   0.0000       1.172711        31.9111 
 378   0.0000       1.176703        32.0197 
 379   0.0000       1.182489        32.1772 
 380   0.0000       1.183295        32.1991 
 381   0.0000       1.185894        32.2698 
 382   0.0000       1.191532        32.4232 
 383   0.0000       1.197371        32.5821 
 384   0.0000       1.199998        32.6536 
 385   0.0000       1.205060        32.7914 
 386   0.0000       1.208099        32.8740 
 387   0.0000       1.212756        33.0008 
 388   0.0000       1.215944        33.0875 
 389   0.0000       1.222151        33.2564 
 390   0.0000       1.223681        33.2980 
 391   0.0000       1.231377        33.5075 
 392   0.0000       1.234975        33.6054 
 393   0.0000       1.241177        33.7741 
 394   0.0000       1.245013        33.8785 
 395   0.0000       1.249007        33.9872 
 396   0.0000       1.252096        34.0713 
 397   0.0000       1.260352        34.2959 
 398   0.0000       1.263027        34.3687 
 399   0.0000       1.270943        34.5841 
 400   0.0000       1.277617        34.7657 
 401   0.0000       1.287427        35.0327 
 402   0.0000       1.288910        35.0730 
 403   0.0000       1.293979        35.2109 
 404   0.0000       1.301956        35.4280 
 405   0.0000       1.304908        35.5083 
 406   0.0000       1.312329        35.7103 
 407   0.0000       1.317846        35.8604 
 408   0.0000       1.318031        35.8654 
 409   0.0000       1.320364        35.9289 
 410   0.0000       1.329819        36.1862 
 411   0.0000       1.336231        36.3607 
 412   0.0000       1.340236        36.4697 
 413   0.0000       1.346484        36.6397 
 414   0.0000       1.349360        36.7180 
 415   0.0000       1.356266        36.9059 
 416   0.0000       1.369136        37.2561 
 417   0.0000       1.371504        37.3205 
 418   0.0000       1.377150        37.4742 
 419   0.0000       1.380285        37.5595 
 420   0.0000       1.389013        37.7970 
 421   0.0000       1.392129        37.8817 
 422   0.0000       1.402056        38.1519 
 423   0.0000       1.405311        38.2405 
 424   0.0000       1.409350        38.3504 
 425   0.0000       1.417920        38.5836 
 426   0.0000       1.422237        38.7010 
 427   0.0000       1.425711        38.7956 
 428   0.0000       1.433349        39.0034 
 429   0.0000       1.438723        39.1497 
 430   0.0000       1.444026        39.2939 
 431   0.0000       1.445898        39.3449 
 432   0.0000       1.453503        39.5518 
 433   0.0000       1.457630        39.6641 
 434   0.0000       1.461750        39.7762 
 435   0.0000       1.467620        39.9360 
 436   0.0000       1.471339        40.0372 
 437   0.0000       1.477672        40.2095 
 438   0.0000       1.479731        40.2655 
 439   0.0000       1.485033        40.4098 
 440   0.0000       1.494974        40.6803 
 441   0.0000       1.496846        40.7312 
 442   0.0000       1.502836        40.8942 
 443   0.0000       1.505685        40.9718 
 444   0.0000       1.510200        41.0946 
 445   0.0000       1.513561        41.1861 
 446   0.0000       1.519021        41.3347 
 447   0.0000       1.525717        41.5169 
 448   0.0000       1.528727        41.5988 
 449   0.0000       1.536888        41.8208 
 450   0.0000       1.542419        41.9714 
 451   0.0000       1.549017        42.1509 
 452   0.0000       1.555198        42.3191 
 453   0.0000       1.555968        42.3401 
 454   0.0000       1.563417        42.5427 
 455   0.0000       1.565716        42.6053 
 456   0.0000       1.569101        42.6974 
 457   0.0000       1.573659        42.8214 
 458   0.0000       1.581589        43.0372 
 459   0.0000       1.583700        43.0947 
 460   0.0000       1.586676        43.1756 
 461   0.0000       1.594905        43.3996 
 462   0.0000       1.598817        43.5060 
 463   0.0000       1.612633        43.8820 
 464   0.0000       1.615432        43.9582 
 465   0.0000       1.619726        44.0750 
 466   0.0000       1.627661        44.2909 
 467   0.0000       1.634589        44.4794 
 468   0.0000       1.642134        44.6847 
 469   0.0000       1.644880        44.7595 
 470   0.0000       1.647405        44.8282 
 471   0.0000       1.654611        45.0243 
 472   0.0000       1.662734        45.2453 
 473   0.0000       1.664889        45.3039 
 474   0.0000       1.671451        45.4825 
 475   0.0000       1.677486        45.6467 
 476   0.0000       1.686352        45.8880 
 477   0.0000       1.687784        45.9269 
 478   0.0000       1.689642        45.9775 
 479   0.0000       1.697961        46.2039 
 480   0.0000       1.704645        46.3857 
 481   0.0000       1.708165        46.4815 
 482   0.0000       1.715253        46.6744 
 483   0.0000       1.718830        46.7717 
 484   0.0000       1.727202        46.9995 
 485   0.0000       1.732464        47.1427 
 486   0.0000       1.734687        47.2032 
 487   0.0000       1.739334        47.3297 
 488   0.0000       1.743669        47.4477 
 489   0.0000       1.747608        47.5548 
 490   0.0000       1.753099        47.7043 
 491   0.0000       1.759751        47.8852 
 492   0.0000       1.765003        48.0282 
 493   0.0000       1.772457        48.2310 
 494   0.0000       1.772588        48.2346 
 495   0.0000       1.779212        48.4148 
 496   0.0000       1.782727        48.5105 
 497   0.0000       1.785204        48.5779 
 498   0.0000       1.792030        48.7636 
 499   0.0000       1.794038        48.8183 
 500   0.0000       1.797367        48.9088 
 501   0.0000       1.809996        49.2525 
 502   0.0000       1.821303        49.5602 
 503   0.0000       1.825031        49.6616 
 504   0.0000       1.827670        49.7334 
 505   0.0000       1.829836        49.7924 
 506   0.0000       1.839171        50.0464 
 507   0.0000       1.845428        50.2167 
 508   0.0000       1.853233        50.4290 
 509   0.0000       1.856078        50.5064 
 510   0.0000       1.858202        50.5642 
 511   0.0000       1.863158        50.6991 
 512   0.0000       1.866960        50.8026 
 513   0.0000       1.872139        50.9435 
 514   0.0000       1.877563        51.0911 
 515   0.0000       1.879489        51.1435 
 516   0.0000       1.884717        51.2858 
 517   0.0000       1.890960        51.4556 
 518   0.0000       1.895001        51.5656 
 519   0.0000       1.896339        51.6020 
 520   0.0000       1.902825        51.7785 
 521   0.0000       1.908679        51.9378 
 522   0.0000       1.916484        52.1502 
 523   0.0000       1.921288        52.2809 
 524   0.0000       1.925230        52.3882 
 525   0.0000       1.927245        52.4430 
 526   0.0000       1.936041        52.6823 
 527   0.0000       1.942562        52.8598 
 528   0.0000       1.944753        52.9194 
 529   0.0000       1.957545        53.2675 
 530   0.0000       1.963936        53.4414 
 531   0.0000       1.968680        53.5705 
 532   0.0000       1.971295        53.6417 
 533   0.0000       1.980368        53.8886 
 534   0.0000       1.982046        53.9342 
 535   0.0000       1.988313        54.1047 
 536   0.0000       2.003091        54.5069 
 537   0.0000       2.005437        54.5707 
 538   0.0000       2.008722        54.6601 
 539   0.0000       2.018220        54.9186 
 540   0.0000       2.026818        55.1525 
 541   0.0000       2.032500        55.3071 
 542   0.0000       2.035680        55.3937 
 543   0.0000       2.041417        55.5498 
 544   0.0000       2.049611        55.7728 
 545   0.0000       2.062338        56.1191 
 546   0.0000       2.069362        56.3102 
 547   0.0000       2.072333        56.3911 
 548   0.0000       2.080081        56.6019 
 549   0.0000       2.090016        56.8722 
 550   0.0000       2.091673        56.9173 
 551   0.0000       2.095025        57.0085 
 552   0.0000       2.107292        57.3423 
 553   0.0000       2.113872        57.5214 
 554   0.0000       2.116972        57.6057 
 555   0.0000       2.119650        57.6786 
 556   0.0000       2.137508        58.1645 
 557   0.0000       2.143110        58.3170 
 558   0.0000       2.156131        58.6713 
 559   0.0000       2.162922        58.8561 
 560   0.0000       2.170994        59.0758 
 561   0.0000       2.174844        59.1805 
 562   0.0000       2.181594        59.3642 
 563   0.0000       2.185271        59.4642 
 564   0.0000       2.189300        59.5739 
 565   0.0000       2.199186        59.8429 
 566   0.0000       2.206628        60.0454 
 567   0.0000       2.220900        60.4337 
 568   0.0000       2.222078        60.4658 
 569   0.0000       2.228171        60.6316 
 570   0.0000       2.236262        60.8518 
 571   0.0000       2.240853        60.9767 
 572   0.0000       2.253096        61.3099 
 573   0.0000       2.257563        61.4314 
 574   0.0000       2.262097        61.5548 
 575   0.0000       2.271409        61.8082 
 576   0.0000       2.276556        61.9482 
 577   0.0000       2.282802        62.1182 
 578   0.0000       2.287343        62.2418 
 579   0.0000       2.291148        62.3453 
 580   0.0000       2.297906        62.5292 
 581   0.0000       2.309993        62.8581 
 582   0.0000       2.314564        62.9825 
 583   0.0000       2.316666        63.0397 
 584   0.0000       2.320553        63.1455 
 585   0.0000       2.338683        63.6388 
 586   0.0000       2.347778        63.8863 
 587   0.0000       2.349998        63.9467 
 588   0.0000       2.365220        64.3609 
 589   0.0000       2.370772        64.5120 
 590   0.0000       2.381291        64.7982 
 591   0.0000       2.387009        64.9538 
 592   0.0000       2.391075        65.0645 
 593   0.0000       2.398747        65.2732 
 594   0.0000       2.402345        65.3711 
 595   0.0000       2.408677        65.5434 
 596   0.0000       2.420228        65.8578 
 597   0.0000       2.434875        66.2563 
 598   0.0000       2.436047        66.2882 
 599   0.0000       2.438518        66.3555 
 600   0.0000       2.450215        66.6737 
 601   0.0000       2.465749        67.0964 
 602   0.0000       2.467878        67.1544 
 603   0.0000       2.482875        67.5625 
 604   0.0000       2.489327        67.7380 
 605   0.0000       2.497188        67.9519 
 606   0.0000       2.504569        68.1528 
 607   0.0000       2.514687        68.4281 
 608   0.0000       2.519839        68.5683 
 609   0.0000       2.530509        68.8587 
 610   0.0000       2.539621        69.1066 
 611   0.0000       2.554665        69.5160 
 612   0.0000       2.566457        69.8368 
 613   0.0000       2.584329        70.3232 
 614   0.0000       2.598735        70.7152 
 615   0.0000       2.612299        71.0843 
 616   0.0000       2.627423        71.4958 
 617   0.0000       2.647017        72.0290 
 618   0.0000       2.654096        72.2216 
 619   0.0000       2.658670        72.3461 
 620   0.0000       2.672104        72.7117 
 621   0.0000       2.683247        73.0149 
 622   0.0000       2.691732        73.2458 
 623   0.0000       2.696474        73.3748 
 624   0.0000       2.712314        73.8058 
 625   0.0000       2.717953        73.9593 
 626   0.0000       2.721407        74.0532 
 627   0.0000       2.730321        74.2958 
 628   0.0000       2.732579        74.3573 
 629   0.0000       2.740119        74.5624 
 630   0.0000       2.750515        74.8453 
 631   0.0000       2.769780        75.3696 
 632   0.0000       2.780717        75.6672 
 633   0.0000       2.785344        75.7931 
 634   0.0000       2.788877        75.8892 
 635   0.0000       2.801900        76.2436 
 636   0.0000       2.812183        76.5234 
 637   0.0000       2.830120        77.0115 
 638   0.0000       2.840004        77.2804 
 639   0.0000       2.851522        77.5939 
 640   0.0000       2.863661        77.9242 
 641   0.0000       2.879612        78.3582 
 642   0.0000       2.889901        78.6382 
 643   0.0000       2.904354        79.0315 
 644   0.0000       2.915372        79.3313 
 645   0.0000       2.924050        79.5674 
 646   0.0000       2.940569        80.0169 
 647   0.0000       2.953147        80.3592 
 648   0.0000       2.969459        80.8031 
 649   0.0000       2.976400        80.9920 
 650   0.0000       2.988178        81.3125 
 651   0.0000       3.004251        81.7498 
 652   0.0000       3.019023        82.1518 
 653   0.0000       3.041401        82.7607 
 654   0.0000       3.058142        83.2163 
 655   0.0000       3.066710        83.4494 
 656   0.0000       3.078149        83.7607 
 657   0.0000       3.103520        84.4511 
 658   0.0000       3.105921        84.5164 
 659   0.0000       3.127671        85.1083 
 660   0.0000       3.139972        85.4430 
 661   0.0000       3.162994        86.0694 
 662   0.0000       3.169555        86.2480 
 663   0.0000       3.177138        86.4543 
 664   0.0000       3.184111        86.6441 
 665   0.0000       3.196129        86.9711 
 666   0.0000       3.202092        87.1333 
 667   0.0000       3.218940        87.5918 
 668   0.0000       3.222394        87.6858 
 669   0.0000       3.233568        87.9899 
 670   0.0000       3.238351        88.1200 
 671   0.0000       3.249947        88.4356 
 672   0.0000       3.261475        88.7492 
 673   0.0000       3.273651        89.0806 
 674   0.0000       3.280620        89.2702 
 675   0.0000       3.299181        89.7753 
 676   0.0000       3.307234        89.9944 
 677   0.0000       3.310583        90.0855 
 678   0.0000       3.315480        90.2188 
 679   0.0000       3.326721        90.5247 
 680   0.0000       3.331411        90.6523 
 681   0.0000       3.339986        90.8856 
 682   0.0000       3.353918        91.2648 
 683   0.0000       3.363240        91.5184 
 684   0.0000       3.376400        91.8765 
 685   0.0000       3.379309        91.9557 
 686   0.0000       3.399929        92.5168 
 687   0.0000       3.407539        92.7238 
 688   0.0000       3.413194        92.8777 
 689   0.0000       3.421589        93.1062 
 690   0.0000       3.425903        93.2235 
 691   0.0000       3.433836        93.4394 
 692   0.0000       3.443124        93.6922 
 693   0.0000       3.461237        94.1850 
 694   0.0000       3.467970        94.3682 
 695   0.0000       3.473723        94.5248 
 696   0.0000       3.481390        94.7334 
 697   0.0000       3.483905        94.8019 
 698   0.0000       3.511512        95.5531 
 699   0.0000       3.515779        95.6692 
 700   0.0000       3.522812        95.8606 
 701   0.0000       3.532549        96.1255 
 702   0.0000       3.536538        96.2341 
 703   0.0000       3.546612        96.5082 
 704   0.0000       3.549914        96.5981 
 705   0.0000       3.565025        97.0093 
 706   0.0000       3.576306        97.3162 
 707   0.0000       3.582545        97.4860 
 708   0.0000       3.588624        97.6514 
 709   0.0000       3.596415        97.8634 
 710   0.0000       3.602452        98.0277 
 711   0.0000       3.605412        98.1082 
 712   0.0000       3.615358        98.3789 
 713   0.0000       3.623850        98.6100 
 714   0.0000       3.634768        98.9071 
 715   0.0000       3.645761        99.2062 
 716   0.0000       3.659563        99.5818 
 717   0.0000       3.659986        99.5933 
 718   0.0000       3.665007        99.7299 
 719   0.0000       3.676891       100.0533 
 720   0.0000       3.692133       100.4680 
 721   0.0000       3.697416       100.6118 
 722   0.0000       3.702673       100.7549 
 723   0.0000       3.709832       100.9497 
 724   0.0000       3.718506       101.1857 
 725   0.0000       3.721673       101.2719 
 726   0.0000       3.733070       101.5820 
 727   0.0000       3.741209       101.8035 
 728   0.0000       3.754449       102.1637 
 729   0.0000       3.758730       102.2802 
 730   0.0000       3.767124       102.5087 
 731   0.0000       3.769940       102.5853 
 732   0.0000       3.775681       102.7415 
 733   0.0000       3.781451       102.8985 
 734   0.0000       3.791878       103.1822 
 735   0.0000       3.796306       103.3027 
 736   0.0000       3.803372       103.4950 
 737   0.0000       3.819717       103.9398 
 738   0.0000       3.821269       103.9820 
 739   0.0000       3.829511       104.2063 
 740   0.0000       3.842953       104.5721 
 741   0.0000       3.847922       104.7073 
 742   0.0000       3.850065       104.7656 
 743   0.0000       3.855079       104.9020 
 744   0.0000       3.869754       105.3014 
 745   0.0000       3.874039       105.4180 
 746   0.0000       3.883237       105.6682 
 747   0.0000       3.888461       105.8104 
 748   0.0000       3.895139       105.9921 
 749   0.0000       3.896889       106.0398 
 750   0.0000       3.900663       106.1424 
 751   0.0000       3.912589       106.4670 
 752   0.0000       3.922045       106.7243 
 753   0.0000       3.925617       106.8215 
 754   0.0000       3.932358       107.0049 
 755   0.0000       3.935406       107.0878 
 756   0.0000       3.941162       107.2445 
 757   0.0000       3.948893       107.4548 
 758   0.0000       3.951546       107.5270 
 759   0.0000       3.957703       107.6946 
 760   0.0000       3.975865       108.1888 
 761   0.0000       3.981121       108.3318 
 762   0.0000       3.988622       108.5359 
 763   0.0000       3.994999       108.7095 
 764   0.0000       4.004025       108.9551 
 765   0.0000       4.013090       109.2017 
 766   0.0000       4.024766       109.5194 
 767   0.0000       4.037324       109.8612 
 768   0.0000       4.039806       109.9287 
 769   0.0000       4.051681       110.2518 
 770   0.0000       4.059851       110.4742 
 771   0.0000       4.064811       110.6091 
 772   0.0000       4.067675       110.6871 
 773   0.0000       4.072060       110.8064 
 774   0.0000       4.084367       111.1413 
 775   0.0000       4.090040       111.2957 
 776   0.0000       4.102635       111.6384 
 777   0.0000       4.104397       111.6863 
 778   0.0000       4.111788       111.8874 
 779   0.0000       4.122166       112.1698 
 780   0.0000       4.123557       112.2077 
 781   0.0000       4.135620       112.5359 
 782   0.0000       4.143742       112.7569 
 783   0.0000       4.147006       112.8458 
 784   0.0000       4.154398       113.0469 
 785   0.0000       4.167904       113.4144 
 786   0.0000       4.173109       113.5561 
 787   0.0000       4.183657       113.8431 
 788   0.0000       4.190553       114.0307 
 789   0.0000       4.198453       114.2457 
 790   0.0000       4.217856       114.7737 
 791   0.0000       4.218983       114.8044 
 792   0.0000       4.228271       115.0571 
 793   0.0000       4.231715       115.1508 
 794   0.0000       4.242531       115.4451 
 795   0.0000       4.251856       115.6989 
 796   0.0000       4.260540       115.9352 
 797   0.0000       4.267080       116.1132 
 798   0.0000       4.274114       116.3045 
 799   0.0000       4.278301       116.4185 
 800   0.0000       4.290897       116.7613 
 801   0.0000       4.298424       116.9661 
 802   0.0000       4.308328       117.2356 
 803   0.0000       4.320836       117.5759 
 804   0.0000       4.328571       117.7864 
 805   0.0000       4.334969       117.9605 
 806   0.0000       4.338559       118.0582 
 807   0.0000       4.346653       118.2784 
 808   0.0000       4.355340       118.5148 
 809   0.0000       4.362776       118.7172 
 810   0.0000       4.375897       119.0742 
 811   0.0000       4.382703       119.2594 
 812   0.0000       4.395290       119.6019 
 813   0.0000       4.400101       119.7328 
 814   0.0000       4.417908       120.2174 
 815   0.0000       4.426479       120.4506 
 816   0.0000       4.436944       120.7354 
 817   0.0000       4.443909       120.9249 
 818   0.0000       4.451270       121.1252 
 819   0.0000       4.458301       121.3165 
 820   0.0000       4.462654       121.4350 
 821   0.0000       4.477413       121.8366 
 822   0.0000       4.481464       121.9468 
 823   0.0000       4.492643       122.2510 
 824   0.0000       4.497955       122.3956 
 825   0.0000       4.512526       122.7921 
 826   0.0000       4.518837       122.9638 
 827   0.0000       4.525751       123.1519 
 828   0.0000       4.545793       123.6973 
 829   0.0000       4.559386       124.0672 
 830   0.0000       4.570357       124.3657 
 831   0.0000       4.580358       124.6379 
 832   0.0000       4.581614       124.6721 
 833   0.0000       4.592335       124.9638 
 834   0.0000       4.597973       125.1172 
 835   0.0000       4.610557       125.4596 
 836   0.0000       4.625220       125.8586 
 837   0.0000       4.632804       126.0650 
 838   0.0000       4.640079       126.2630 
 839   0.0000       4.654604       126.6582 
 840   0.0000       4.682155       127.4079 
 841   0.0000       4.688054       127.5684 
 842   0.0000       4.692687       127.6945 
 843   0.0000       4.704214       128.0082 
 844   0.0000       4.715037       128.3027 
 845   0.0000       4.733476       128.8044 
 846   0.0000       4.755050       129.3915 
 847   0.0000       4.758308       129.4801 
 848   0.0000       4.781882       130.1216 
 849   0.0000       4.784482       130.1924 
 850   0.0000       4.793730       130.4440 
 851   0.0000       4.808041       130.8334 
 852   0.0000       4.820140       131.1627 
 853   0.0000       4.822650       131.2310 
 854   0.0000       4.836990       131.6212 
 855   0.0000       4.848561       131.9360 
 856   0.0000       4.852420       132.0411 
 857   0.0000       4.873166       132.6056 
 858   0.0000       4.891355       133.1005 
 859   0.0000       4.903341       133.4267 
 860   0.0000       4.914180       133.7216 
 861   0.0000       4.920328       133.8889 
 862   0.0000       4.932129       134.2100 
 863   0.0000       4.937710       134.3619 
 864   0.0000       4.941601       134.4678 
 865   0.0000       4.955883       134.8564 
 866   0.0000       4.963676       135.0685 
 867   0.0000       4.973458       135.3347 
 868   0.0000       4.993034       135.8674 
 869   0.0000       5.003132       136.1421 
 870   0.0000       5.017170       136.5241 
 871   0.0000       5.021514       136.6424 
 872   0.0000       5.029168       136.8506 
 873   0.0000       5.041218       137.1785 
 874   0.0000       5.044776       137.2753 
 875   0.0000       5.059281       137.6700 
 876   0.0000       5.086116       138.4003 
 877   0.0000       5.089902       138.5033 
 878   0.0000       5.110504       139.0639 
 879   0.0000       5.124385       139.4416 
 880   0.0000       5.132345       139.6582 
 881   0.0000       5.134315       139.7118 
 882   0.0000       5.146246       140.0365 
 883   0.0000       5.166101       140.5768 
 884   0.0000       5.177723       140.8930 
 885   0.0000       5.183928       141.0618 
 886   0.0000       5.209330       141.7531 
 887   0.0000       5.220328       142.0524 
 888   0.0000       5.235563       142.4669 
 889   0.0000       5.239313       142.5690 
 890   0.0000       5.253924       142.9665 
 891   0.0000       5.265564       143.2833 
 892   0.0000       5.281261       143.7104 
 893   0.0000       5.298625       144.1829 
 894   0.0000       5.307894       144.4351 
 895   0.0000       5.315828       144.6510 
 896   0.0000       5.335742       145.1929 
 897   0.0000       5.350520       145.5950 
 898   0.0000       5.363533       145.9492 
 899   0.0000       5.371235       146.1587 
 900   0.0000       5.385191       146.5385 
 901   0.0000       5.391428       146.7082 
 902   0.0000       5.403441       147.0351 
 903   0.0000       5.408546       147.1740 
 904   0.0000       5.435076       147.8959 
 905   0.0000       5.441595       148.0733 
 906   0.0000       5.443324       148.1204 
 907   0.0000       5.455596       148.4543 
 908   0.0000       5.470280       148.8539 
 909   0.0000       5.480750       149.1388 
 910   0.0000       5.506120       149.8292 
 911   0.0000       5.510550       149.9497 
 912   0.0000       5.535430       150.6267 
 913   0.0000       5.538664       150.7147 
 914   0.0000       5.553347       151.1143 
 915   0.0000       5.567768       151.5067 
 916   0.0000       5.579764       151.8331 
 917   0.0000       5.591473       152.1517 
 918   0.0000       5.598842       152.3522 
 919   0.0000       5.608828       152.6240 
 920   0.0000       5.615915       152.8168 
 921   0.0000       5.635877       153.3600 
 922   0.0000       5.648154       153.6941 
 923   0.0000       5.653771       153.8469 
 924   0.0000       5.662751       154.0913 
 925   0.0000       5.668427       154.2457 
 926   0.0000       5.686379       154.7342 
 927   0.0000       5.694369       154.9517 
 928   0.0000       5.701598       155.1484 
 929   0.0000       5.708874       155.3464 
 930   0.0000       5.719268       155.6292 
 931   0.0000       5.737730       156.1316 
 932   0.0000       5.740055       156.1948 
 933   0.0000       5.751558       156.5078 
 934   0.0000       5.759858       156.7337 
 935   0.0000       5.773183       157.0963 
 936   0.0000       5.783884       157.3875 
 937   0.0000       5.819395       158.3538 
 938   0.0000       5.838163       158.8645 
 939   0.0000       5.846533       159.0922 
 940   0.0000       5.851502       159.2275 
 941   0.0000       5.871846       159.7811 
 942   0.0000       5.887338       160.2026 
 943   0.0000       5.893228       160.3629 
 944   0.0000       5.920785       161.1128 
 945   0.0000       5.968246       162.4042 
 946   0.0000       6.015508       163.6903 
 947   0.0000       6.045180       164.4977 
 948   0.0000       6.116291       166.4327 
 949   0.0000       6.135820       166.9642 
 950   0.0000       6.153982       167.4584 
 951   0.0000       6.162877       167.7004 
 952   0.0000       6.180278       168.1739 
 953   0.0000       6.191466       168.4783 
 954   0.0000       6.206913       168.8987 
 955   0.0000       6.215433       169.1305 
 956   0.0000       6.226240       169.4246 
 957   0.0000       6.238607       169.7611 
 958   0.0000       6.245533       169.9496 
 959   0.0000       6.262511       170.4116 
 960   0.0000       6.270207       170.6210 
 961   0.0000       6.323574       172.0732 
 962   0.0000       6.338990       172.4927 
 963   0.0000       6.366541       173.2424 
 964   0.0000       6.382275       173.6705 
 965   0.0000       6.392810       173.9572 
 966   0.0000       6.415275       174.5685 
 967   0.0000       6.447212       175.4376 
 968   0.0000       6.475932       176.2191 
 969   0.0000       6.526922       177.6066 
 970   0.0000       6.603231       179.6830 
 971   0.0000       6.687954       181.9885 
 972   0.0000       6.823301       185.6715 
 973   0.0000       6.875981       187.1050 
 974   0.0000       6.888581       187.4478 
 975   0.0000       6.904896       187.8918 
 976   0.0000       6.933084       188.6588 
 977   0.0000       6.953723       189.2204 
 978   0.0000       6.958291       189.3447 
 979   0.0000       6.980542       189.9502 
 980   0.0000       6.995715       190.3631 
 981   0.0000       7.020842       191.0468 
 982   0.0000       7.060379       192.1227 
 983   0.0000       7.121030       193.7731 
 984   0.0000       7.163360       194.9249 
 985   0.0000       7.234241       196.8537 
 986   0.0000       7.377487       200.7516 
 987   0.0000       7.466254       203.1671 
 988   0.0000       7.496100       203.9793 
 989   0.0000       7.560398       205.7289 
 990   0.0000       7.573755       206.0924 
 991   0.0000       7.592668       206.6070 
 992   0.0000       7.748618       210.8506 
 993   0.0000       7.791210       212.0096 
 994   0.0000       7.809888       212.5179 
 995   0.0000       7.899132       214.9463 
 996   0.0000       8.062284       219.3859 
 997   0.0000       8.168711       222.2819 
 998   0.0000       8.318841       226.3672 
 999   0.0000       9.434641       256.7296 
 1000   0.0000       9.455282       257.2913 
 1001   0.0000       9.470735       257.7118 
 1002   0.0000       9.481520       258.0053 
 1003   0.0000       9.490577       258.2517 
 1004   0.0000       9.523487       259.1472 
 1005   0.0000       9.751510       265.3521 
 1006   0.0000      10.097132       274.7569 
 1007   0.0000      10.135889       275.8116 
 1008   0.0000      10.147198       276.1193 
 1009   0.0000      10.221904       278.1521 
 1010   0.0000      10.226387       278.2741 
 1011   0.0000      10.263693       279.2893 
 1012   0.0000      10.395452       282.8746 
 1013   0.0000      10.437971       284.0316 
 1014   0.0000      10.557231       287.2769 
 1015   0.0000      17.272146       469.9990 
 1016   0.0000      17.774879       483.6790 
 1017   0.0000      18.324800       498.6432 
 1018   0.0000      18.817125       512.0400 
 1019   0.0000      18.893213       514.1105 
 1020   0.0000      19.099359       519.7200 
 1021   0.0000      20.021985       544.8259 
 1022   0.0000      20.241227       550.7918 
 1023   0.0000      21.174839       576.1967 
 1024   0.0000      21.820242       593.7590 

                 SPIN DOWN ORBITALS
  NO   OCC          E(Eh)            E(eV) 
   0   1.0000    -261.547309     -7117.0641 
   1   1.0000    -104.776261     -2851.1070 
   2   1.0000    -104.774651     -2851.0632 
   3   1.0000    -104.774100     -2851.0482 
   4   1.0000     -32.056774      -872.3092 
   5   1.0000     -27.534816      -749.2604 
   6   1.0000     -27.534656      -749.2561 
   7   1.0000     -27.534223      -749.2443 
   8   1.0000     -20.550417      -559.2053 
   9   1.0000     -11.389252      -309.9173 
  10   1.0000     -11.373216      -309.4809 
  11   1.0000     -11.279830      -306.9398 
  12   1.0000     -11.273571      -306.7695 
  13   1.0000     -11.270401      -306.6832 
  14   1.0000     -11.259890      -306.3972 
  15   1.0000     -11.248468      -306.0864 
  16   1.0000     -11.244821      -305.9871 
  17   1.0000     -10.502685      -285.7926 
  18   1.0000     -10.501141      -285.7506 
  19   1.0000     -10.500556      -285.7346 
  20   1.0000      -7.968651      -216.8380 
  21   1.0000      -7.968011      -216.8206 
  22   1.0000      -7.967930      -216.8184 
  23   1.0000      -7.967025      -216.7938 
  24   1.0000      -7.966522      -216.7801 
  25   1.0000      -7.966480      -216.7789 
  26   1.0000      -7.966407      -216.7769 
  27   1.0000      -7.965788      -216.7601 
  28   1.0000      -7.965724      -216.7584 
  29   1.0000      -4.132087      -112.4398 
  30   1.0000      -2.653924       -72.2169 
  31   1.0000      -2.653796       -72.2135 
  32   1.0000      -2.653147       -72.1958 
  33   1.0000      -1.363158       -37.0934 
  34   1.0000      -1.168964       -31.8091 
  35   1.0000      -1.081967       -29.4418 
  36   1.0000      -1.039183       -28.2776 
  37   1.0000      -1.034359       -28.1463 
  38   1.0000      -1.023351       -27.8468 
  39   1.0000      -1.021885       -27.8069 
  40   1.0000      -1.006340       -27.3839 
  41   1.0000      -0.976928       -26.5836 
  42   1.0000      -0.924768       -25.1642 
  43   1.0000      -0.792558       -21.5666 
  44   1.0000      -0.764703       -20.8086 
  45   1.0000      -0.695230       -18.9182 
  46   1.0000      -0.689765       -18.7695 
  47   1.0000      -0.672296       -18.2941 
  48   1.0000      -0.647585       -17.6217 
  49   1.0000      -0.635041       -17.2803 
  50   1.0000      -0.625042       -17.0082 
  51   1.0000      -0.597612       -16.2619 
  52   1.0000      -0.593101       -16.1391 
  53   1.0000      -0.589689       -16.0463 
  54   1.0000      -0.581299       -15.8180 
  55   1.0000      -0.573044       -15.5933 
  56   1.0000      -0.562389       -15.3034 
  57   1.0000      -0.551302       -15.0017 
  58   1.0000      -0.542742       -14.7688 
  59   1.0000      -0.534585       -14.5468 
  60   1.0000      -0.526297       -14.3213 
  61   1.0000      -0.504394       -13.7252 
  62   1.0000      -0.477081       -12.9820 
  63   1.0000      -0.468078       -12.7370 
  64   1.0000      -0.463052       -12.6003 
  65   1.0000      -0.438526       -11.9329 
  66   1.0000      -0.435871       -11.8606 
  67   1.0000      -0.433962       -11.8087 
  68   1.0000      -0.423015       -11.5108 
  69   1.0000      -0.413164       -11.2428 
  70   1.0000      -0.401602       -10.9281 
  71   1.0000      -0.382280       -10.4024 
  72   0.0000       0.008935         0.2431 
  73   0.0000       0.020052         0.5456 
  74   0.0000       0.022483         0.6118 
  75   0.0000       0.030768         0.8372 
  76   0.0000       0.036643         0.9971 
  77   0.0000       0.038038         1.0351 
  78   0.0000       0.041894         1.1400 
  79   0.0000       0.043750         1.1905 
  80   0.0000       0.044327         1.2062 
  81   0.0000       0.046919         1.2767 
  82   0.0000       0.056303         1.5321 
  83   0.0000       0.060741         1.6528 
  84   0.0000       0.061253         1.6668 
  85   0.0000       0.064901         1.7660 
  86   0.0000       0.066449         1.8082 
  87   0.0000       0.071059         1.9336 
  88   0.0000       0.073010         1.9867 
  89   0.0000       0.081539         2.2188 
  90   0.0000       0.087924         2.3925 
  91   0.0000       0.089508         2.4356 
  92   0.0000       0.091061         2.4779 
  93   0.0000       0.094410         2.5690 
  94   0.0000       0.100388         2.7317 
  95   0.0000       0.102813         2.7977 
  96   0.0000       0.110155         2.9975 
  97   0.0000       0.115414         3.1406 
  98   0.0000       0.118943         3.2366 
  99   0.0000       0.120627         3.2824 
 100   0.0000       0.122484         3.3330 
 101   0.0000       0.124356         3.3839 
 102   0.0000       0.124449         3.3864 
 103   0.0000       0.125851         3.4246 
 104   0.0000       0.128979         3.5097 
 105   0.0000       0.130487         3.5507 
 106   0.0000       0.131471         3.5775 
 107   0.0000       0.133794         3.6407 
 108   0.0000       0.136137         3.7045 
 109   0.0000       0.138186         3.7602 
 110   0.0000       0.138753         3.7757 
 111   0.0000       0.141944         3.8625 
 112   0.0000       0.148133         4.0309 
 113   0.0000       0.148723         4.0470 
 114   0.0000       0.152048         4.1374 
 115   0.0000       0.153887         4.1875 
 116   0.0000       0.158079         4.3015 
 117   0.0000       0.162401         4.4192 
 118   0.0000       0.164288         4.4705 
 119   0.0000       0.167107         4.5472 
 120   0.0000       0.171809         4.6752 
 121   0.0000       0.176026         4.7899 
 122   0.0000       0.178380         4.8540 
 123   0.0000       0.181858         4.9486 
 124   0.0000       0.186399         5.0722 
 125   0.0000       0.188511         5.1296 
 126   0.0000       0.194224         5.2851 
 127   0.0000       0.195631         5.3234 
 128   0.0000       0.198962         5.4140 
 129   0.0000       0.202055         5.4982 
 130   0.0000       0.205698         5.5973 
 131   0.0000       0.208260         5.6670 
 132   0.0000       0.209845         5.7102 
 133   0.0000       0.212355         5.7785 
 134   0.0000       0.217392         5.9155 
 135   0.0000       0.221913         6.0386 
 136   0.0000       0.225858         6.1459 
 137   0.0000       0.227173         6.1817 
 138   0.0000       0.235302         6.4029 
 139   0.0000       0.236447         6.4340 
 140   0.0000       0.239820         6.5258 
 141   0.0000       0.244020         6.6401 
 142   0.0000       0.245052         6.6682 
 143   0.0000       0.247715         6.7407 
 144   0.0000       0.250159         6.8072 
 145   0.0000       0.253262         6.8916 
 146   0.0000       0.257490         7.0067 
 147   0.0000       0.259813         7.0699 
 148   0.0000       0.260160         7.0793 
 149   0.0000       0.267764         7.2862 
 150   0.0000       0.269038         7.3209 
 151   0.0000       0.281121         7.6497 
 152   0.0000       0.282676         7.6920 
 153   0.0000       0.285026         7.7559 
 154   0.0000       0.287553         7.8247 
 155   0.0000       0.293589         7.9890 
 156   0.0000       0.300158         8.1677 
 157   0.0000       0.302292         8.2258 
 158   0.0000       0.305042         8.3006 
 159   0.0000       0.308096         8.3837 
 160   0.0000       0.312138         8.4937 
 161   0.0000       0.315387         8.5821 
 162   0.0000       0.316483         8.6119 
 163   0.0000       0.320089         8.7101 
 164   0.0000       0.328654         8.9431 
 165   0.0000       0.329875         8.9764 
 166   0.0000       0.338383         9.2079 
 167   0.0000       0.343860         9.3569 
 168   0.0000       0.345778         9.4091 
 169   0.0000       0.351403         9.5622 
 170   0.0000       0.353304         9.6139 
 171   0.0000       0.357771         9.7355 
 172   0.0000       0.362159         9.8549 
 173   0.0000       0.364816         9.9271 
 174   0.0000       0.366689         9.9781 
 175   0.0000       0.371444        10.1075 
 176   0.0000       0.373414        10.1611 
 177   0.0000       0.376697        10.2504 
 178   0.0000       0.380431        10.3521 
 179   0.0000       0.385334        10.4855 
 180   0.0000       0.386115        10.5067 
 181   0.0000       0.387022        10.5314 
 182   0.0000       0.389586        10.6012 
 183   0.0000       0.392962        10.6931 
 184   0.0000       0.396815        10.7979 
 185   0.0000       0.400346        10.8940 
 186   0.0000       0.403287        10.9740 
 187   0.0000       0.406075        11.0499 
 188   0.0000       0.410768        11.1776 
 189   0.0000       0.411562        11.1992 
 190   0.0000       0.417301        11.3553 
 191   0.0000       0.419467        11.4143 
 192   0.0000       0.425100        11.5675 
 193   0.0000       0.426346        11.6015 
 194   0.0000       0.427658        11.6372 
 195   0.0000       0.436030        11.8650 
 196   0.0000       0.440262        11.9802 
 197   0.0000       0.445413        12.1203 
 198   0.0000       0.450292        12.2531 
 199   0.0000       0.454304        12.3622 
 200   0.0000       0.459658        12.5079 
 201   0.0000       0.462107        12.5746 
 202   0.0000       0.466368        12.6905 
 203   0.0000       0.467570        12.7232 
 204   0.0000       0.469672        12.7804 
 205   0.0000       0.473056        12.8725 
 206   0.0000       0.475163        12.9298 
 207   0.0000       0.476490        12.9659 
 208   0.0000       0.479227        13.0404 
 209   0.0000       0.482228        13.1221 
 210   0.0000       0.485951        13.2234 
 211   0.0000       0.490546        13.3484 
 212   0.0000       0.493424        13.4268 
 213   0.0000       0.494574        13.4580 
 214   0.0000       0.498938        13.5768 
 215   0.0000       0.501088        13.6353 
 216   0.0000       0.504141        13.7184 
 217   0.0000       0.505970        13.7682 
 218   0.0000       0.511015        13.9054 
 219   0.0000       0.514791        14.0082 
 220   0.0000       0.517827        14.0908 
 221   0.0000       0.518363        14.1054 
 222   0.0000       0.523002        14.2316 
 223   0.0000       0.528546        14.3825 
 224   0.0000       0.531416        14.4606 
 225   0.0000       0.535715        14.5775 
 226   0.0000       0.539496        14.6804 
 227   0.0000       0.543463        14.7884 
 228   0.0000       0.545680        14.8487 
 229   0.0000       0.551571        15.0090 
 230   0.0000       0.553266        15.0551 
 231   0.0000       0.555307        15.1107 
 232   0.0000       0.562769        15.3137 
 233   0.0000       0.566071        15.4036 
 234   0.0000       0.572009        15.5651 
 235   0.0000       0.572061        15.5666 
 236   0.0000       0.577075        15.7030 
 237   0.0000       0.579627        15.7725 
 238   0.0000       0.581758        15.8304 
 239   0.0000       0.583906        15.8889 
 240   0.0000       0.588910        16.0251 
 241   0.0000       0.590863        16.0782 
 242   0.0000       0.600517        16.3409 
 243   0.0000       0.602085        16.3836 
 244   0.0000       0.607098        16.5200 
 245   0.0000       0.608567        16.5600 
 246   0.0000       0.614177        16.7126 
 247   0.0000       0.616461        16.7748 
 248   0.0000       0.620775        16.8921 
 249   0.0000       0.622143        16.9294 
 250   0.0000       0.625136        17.0108 
 251   0.0000       0.629130        17.1195 
 252   0.0000       0.634667        17.2702 
 253   0.0000       0.640178        17.4201 
 254   0.0000       0.643012        17.4972 
 255   0.0000       0.647410        17.6169 
 256   0.0000       0.649283        17.6679 
 257   0.0000       0.651700        17.7337 
 258   0.0000       0.659221        17.9383 
 259   0.0000       0.661094        17.9893 
 260   0.0000       0.666782        18.1441 
 261   0.0000       0.669875        18.2282 
 262   0.0000       0.674515        18.3545 
 263   0.0000       0.675959        18.3938 
 264   0.0000       0.680396        18.5145 
 265   0.0000       0.688828        18.7440 
 266   0.0000       0.691969        18.8294 
 267   0.0000       0.697817        18.9886 
 268   0.0000       0.700479        19.0610 
 269   0.0000       0.706359        19.2210 
 270   0.0000       0.710355        19.3297 
 271   0.0000       0.712672        19.3928 
 272   0.0000       0.717807        19.5325 
 273   0.0000       0.725427        19.7399 
 274   0.0000       0.733030        19.9468 
 275   0.0000       0.734602        19.9895 
 276   0.0000       0.737962        20.0810 
 277   0.0000       0.742785        20.2122 
 278   0.0000       0.746777        20.3208 
 279   0.0000       0.751481        20.4488 
 280   0.0000       0.763202        20.7678 
 281   0.0000       0.764968        20.8158 
 282   0.0000       0.770016        20.9532 
 283   0.0000       0.777268        21.1505 
 284   0.0000       0.780574        21.2405 
[...]
  | sigma^2 in % of trace(Dij) retained ...   8.32e+00
  | sigma^2 in % of trace(Dip) retained ...   1.38e+01
  | sigma^2 in % of trace(Dpq) retained ...   1.26e-01
  | Av. % of trace(Di) retained         ...  99.998496862065
  | Av. % of trace(Dp) retained         ...  99.999999602513
  | sigma^2 in % of trace(Di) retained  ...   7.92e-07
  | sigma^2 in % of trace(Dp) retained  ...   2.28e-13
 Distributions of % trace(Dij) recovered:
  |       >= 99.9  ...   105 ( 20.3 % of all IJ-pairs)
  |   [80.0, 90.0) ...    35 (  6.8 % of all IJ-pairs)
  |   [90.0, 99.0) ...   288 ( 55.6 % of all IJ-pairs)
  |   [99.0, 99.9) ...    90 ( 17.4 % of all IJ-pairs)
 Distributions of % trace(Dip) recovered:
  |   [80.0, 90.0) ...     9 (  7.8 % of all IP-pairs)
  |   [90.0, 99.0) ...    63 ( 54.3 % of all IP-pairs)
  |   [99.0, 99.9) ...    44 ( 37.9 % of all IP-pairs)
 Distributions of % trace(Dpq) recovered:
  |       >= 99.9  ...     5 ( 33.3 % of all PQ-pairs)
  |   [99.0, 99.9) ...    10 ( 66.7 % of all PQ-pairs)
 Distributions of % trace(Di) recovered :
  |       >= 99.9  ...    43 (100.0 % of all I-pairs )
 Distributions of % trace(Dp) recovered :
  |       >= 99.9  ...     5 (100.0 % of all P-pairs )

                       ===========================
                       1134 OF 1737 PAIRS ARE KEPT
                       ===========================

 Initial PAO correlation energy (all pairs)    ...  -2.6937455919 Eh
 Energy constituents in PAO basis (Eh):
  | Vijab(+0) ...  -2.2631326829
  | Viab (-1) ...  -0.1759050318
  | Vab  (-2) ...  -0.0573590007
  | Va   (-1) ...  -0.0000422942
  | Vija (+1) ...  -0.0732866590
  | Vij  (+2) ...  -0.0155111817
  | Via  (+0) ...  -0.1083487728
  | Vi   (+1) ...  -0.0001599688
 Initial PNO correlation energy                ...  -2.6588750399 Eh
 Energy constituents in PNO basis (Eh):
  | Vijab(+0) ...  -2.2444475188 (err=  0.0186851641)
  | Viab (-1) ...  -0.1614039460 (err=  0.0145010858)
  | Vab  (-2) ...  -0.0568951167 (err=  0.0004638840)
  | Va   (-1) ...  -0.0000242542 (err=  0.0000180401)
  | Vija (+1) ...  -0.0722647157 (err=  0.0010219433)
  | Vij  (+2) ...  -0.0154556225 (err=  0.0000555592)
  | Via  (+0) ...  -0.1082244192 (err=  0.0001243536)
  | Vi   (+1) ...  -0.0001594469 (err=  0.0000005219)
 Sum of total truncation errors ...   0.0348705520 Eh
  | Pair screening ...   0.0117275078 Eh
  | PNO truncation ...   0.0231430442 Eh

 UMP2 correlation energy (PAO) ...  -2.6888273720
  | alpha-alpha ...  -0.3861643403 (NP_aa=  945)
  | alpha-beta  ...  -1.9960131907 (NP_ab= 1712)
  | beta -beta  ...  -0.3066498411 (NP_bb=  734)
 UMP2 correlation energy (PNO) ...  -2.6535974922
  | alpha-alpha ...  -0.3739905669 (err=  0.0121737734, NP_aa=  601)
  | alpha-beta  ...  -1.9770216295 (err=  0.0189915612, NP_ab= 1109)
  | beta -beta  ...  -0.3025852958 (err=  0.0040645453, NP_bb=  475)
 Sum of total UMP2 truncation errors ...   0.0352298799 Eh
  | Pair screening ...   0.0117360324 Eh
  | PNO truncation ...   0.0234938475 Eh
 Timing for NEV-PNO construction (sec.)
  | Intermediate construction  ..           53.786
  | Amplitude construction     ..           73.333
  | Total time                 ..          127.119
 Making pair pair interaction lists ...      ok
 Total size for 2-ext PNO integrals ...     11.0 MB
Checking the number of SOMO/SOMO doubles PNOs ... 
 #Truncate: (72, 72)[171] -> [84] .. 
 #Truncate: (73, 73)[172] -> [84] .. 
 #Truncate: (74, 74)[172] -> [84] .. 
 #Truncate: (75, 75)[170] -> [84] .. 
 #Truncate: (76, 76)[170] -> [84] .. 

--------------------------------
LOCAL RI TRANSFORMATION (VABPAO)
--------------------------------

Number of PAOs:    1030
Basis functions:   1025 (343 shells)
Aux. functions:    2424 (644 shells)

Processing maps (0.0 sec)
Average map sizes:
   Aux shells -> PAOs           1030.0
   PAOs       -> AO shells       343.0

Calculating integrals (188.6 sec, 37370.165 MB)
Finished
-----------------------------
LOCAL RI TRANSFORMATION (IJV)
-----------------------------

Orbital window:      29 to 76
Basis functions:   1025 (343 shells)
Aux. functions:    2424 (644 shells)

Processing maps (0.0 sec)
Average map sizes:
   Aux shells -> MOs(i)           46.5
   Aux shells -> MOs(j)           48.0
   MOs        -> AO shells       341.3

Calculating integrals (22.3 sec, 41.395 MB)
Sorting integrals (0.3 sec, 41.367 MB)
Total time for the integral transformation: 22.7 sec


-------------------------------------
Pair Pair Term precalculation with     
RI-(ij|mn) and (im|jn) transformation  
ON THE FLY                             
-------------------------------------

   IBatch   1 (of   2)              ... done ( 1076.781 sec)
   IBatch   2 (of   2)              ... done ( 1147.614 sec)
Total EXT                           ...        2224.395 sec

---------------------
RI-PNO TRANSFORMATION
---------------------

Total Number of PNOs                   ... 35021
Total Number of IJ-PNOs                ... 30852
Total Number of IP-PNOs                ...  3225
Total Number of PQ-PNOs                ...   944
Total Number of IJ-pairs               ...   993
Total Number of PI-pairs               ...   116
Total Number of PQ-pairs               ...    25
Average number of PNOs per pair        ...    30
Maximal number of PNOs per pair        ...    84
>> Statistics for ij-pairs..
   #pairs with  1 -  5 PNOs   :    0
   #pairs with  6 - 10 PNOs   :    0
   #pairs with 11 - 15 PNOs   :   62
   #pairs with 16 - 20 PNOs   :  244
   #pairs with 21 - 25 PNOs   :  178
   #pairs with 26 - 30 PNOs   :  148
   #pairs with 31 - 35 PNOs   :   64
   #pairs with 36 - 40 PNOs   :   62
   #pairs with 41 - 45 PNOs   :   42
   #pairs with 46 - 50 PNOs   :   23
   #pairs with 51 - 55 PNOs   :   34
   #pairs with 56 - 60 PNOs   :   53
   #pairs with 61 - 65 PNOs   :   78
   #pairs with 66 - 70 PNOs   :    2
   #pairs with 71 - 75 PNOs   :    3
>> Statistics for ip-pairs..
   #pairs with  1 -  5 PNOs   :    0
   #pairs with  6 - 10 PNOs   :    1
   #pairs with 11 - 15 PNOs   :   12
   #pairs with 16 - 20 PNOs   :    6
   #pairs with 21 - 25 PNOs   :   24
   #pairs with 26 - 30 PNOs   :   13
   #pairs with 31 - 35 PNOs   :   48
   #pairs with 36 - 40 PNOs   :   12
   #pairs with 41 - 45 PNOs   :    0
   #pairs with 46 - 50 PNOs   :    0
>> Statistics for pq-pairs..
   #pairs with  1 -  5 PNOs   :    0
   #pairs with  6 - 10 PNOs   :    0
   #pairs with 11 - 15 PNOs   :    0
   #pairs with 16 - 20 PNOs   :    0
   #pairs with 21 - 25 PNOs   :    8
   #pairs with 26 - 30 PNOs   :   12
   #pairs with 31 - 35 PNOs   :    0
   #pairs with 36 - 40 PNOs   :    0
   #pairs with 41 - 45 PNOs   :    0
   #pairs with 46 - 50 PNOs   :    0
   #pairs with 81 - 85 PNOs   :    5

Generation of (ij|ab)[P] integrals            ... on
Generation of (ia|bc)[P],(ja|bc)[P] integrals ... on
Storage of 3 and 4 external integrals         ... on
Generation of ALL (ka|bc)[P] integrals        ... on
Keep RI integrals in memory                   ... off

Ibatch:  1 (of  1)
Starting 2-4 index PNO integral generation ... done

Timings:
Total PNO integral transformation time     ...       2113.231 sec
Size of the 3-external file                ...       285 MB
Size of the 4-external file                ...      1913 MB
Size of the IKJL file                      ...        19 MB
Size of the all 3-external file            ...      6842 MB
Size of the 1-external file                ...        22 MB

Size of the PAO/PNO coefficient matrices   ...     231.3 MB

Making pair/pair overlap matrices          ... done (  342.759 sec)
Size of the pair overlap file              ...    2493.0 MB
Total # unrestricted pairs ...       2185
  # of alpha-alpha pairs   ...        601
  # of alpha-beta pairs    ...       1109
  # of beta-beta pairs     ...        475
Constructing the guess amplitudes          ... done (    0.602 sec)

-------------------------
FINAL STARTUP INFORMATION
-------------------------

E(0)                                       ...  -3028.416186037
E(SL-UMP2 in NEV-PNO space)                ...     -2.689760043
Initial E(tot)                             ...  -3031.105946079
<T|T>                                      ...      0.536288330
Number of unrestricted pairs included      ... 2185
Total number of pairs                      ... 4095
----------------------------------------------------------
                     OPEN-SHELL COUPLED CLUSTER ITERATIONS
----------------------------------------------------------

Number of PNO amplitudes to be optimized        ...          2127532
Number of canonical amplitudes for strong pairs ...       1973526258
Untruncated number of canonical amplitudes      ...       3698645738

Iter       E(tot)           E(Corr)          Delta-E          Residual     Time
  0  -3031.113117126     -2.660768539      0.028991504      0.022639722 1843.31
                           *** Turning on DIIS ***
  1  -3031.225905797     -2.773557209     -0.112788671      0.009948047 1805.20
  2  -3031.290517802     -2.838169215     -0.064612005      0.008954459 1909.47
  3  -3031.311629908     -2.859281321     -0.021112107      0.003302443 2093.70
  4  -3031.318703038     -2.866354451     -0.007073129      0.002826461 2065.83
  5  -3031.322321489     -2.869972902     -0.003618451      0.002031140 2076.00
  6  -3031.323627914     -2.871279327     -0.001306425      0.000915645 2050.68
  7  -3031.324401445     -2.872052858     -0.000773531      0.000510109 2077.92
  8  -3031.324564405     -2.872215818     -0.000162960      0.000201582 2099.80
  9  -3031.324607037     -2.872258449     -0.000042632      0.000084854 2107.37
 10  -3031.324603367     -2.872254780      0.000003670      0.000064207 2086.22
 11  -3031.324612469     -2.872263881     -0.000009102      0.000032147 2077.18
 12  -3031.324617117     -2.872268530     -0.000004648      0.000017050 2101.44
 13  -3031.324619448     -2.872270861     -0.000002332      0.000010485 2073.83
 14  -3031.324620113     -2.872271526     -0.000000665      0.000005492 2077.79
               --- The CCSD iterations have converged ---

E(0)                                       ...  -3028.416186037
E(CORR)(strong-pairs)                      ...     -2.872271526
E(CORR)(weak-pairs)                        ...     -0.036162551
E(CORR)(corrected)                         ...     -2.908434077
E(TOT)                                     ...  -3031.324620113
Singles norm <S|S>**1/2                    ...      0.186455326 ( 0.061390185, 0.125065141)  
T1 diagnostic                              ...      0.019545829                              
<S**2>(linearized)                         ...      8.7507450 (ideal value:      8.7500000)

----------------------
LARGEST PNO AMPLITUDES
----------------------
  45a-> 78a  45b-> 78b       0.064099
  51b-> 76b  -1b-> -1b       0.058452
  45a-> 77a  45b-> 77b       0.049101
  49b-> 72b  -1b-> -1b       0.047850
  43a-> 78a  43b-> 78b       0.047068
  52b-> 76b  -1b-> -1b       0.045905
  29b-> 76b  -1b-> -1b       0.045785
  56a-> 77a  56b-> 77b       0.045474
  49b-> 74b  -1b-> -1b       0.044214
  67a-> 77a  67b-> 77b       0.043895
  49b-> 75b  -1b-> -1b       0.043444
  59a-> 77a  59b-> 77b       0.043225
  63a-> 77a  63b-> 77b       0.043164
  38b-> 73b  -1b-> -1b       0.042937
  71a-> 77a  71b-> 77b       0.042393
  65a-> 77a  65b-> 77b       0.042228

Total # unrestricted pairs ...       1206
  # of alpha-alpha pairs   ...        344
  # of alpha-beta pairs    ...        603
  # of beta-beta pairs     ...        259

-------------------------------------------
DLPNO BASED TRIPLES CORRECTION
-------------------------------------------

Singles multiplier          ...  1.000000
Fragment selection                          .... not used
TCutTNO                     ... 1.000e-09
TCutMP2Pairs                ... 1.000e-05
TCutDOStrong                ... 2.000e-02
TCutMKNStrong               ... 1.000e-02
TCutDOWeak                  ... 4.000e-02
TCutMKNWeak                 ... 1.000e-01
NTCutTNO                    ... 1

Number of Triples that are to be computed         ...     35928

 . . . . . . . . .
10% done  
20% done  
30% done  
40% done  
50% done  
60% done  
70% done  
80% done  
90% done  
          Batch   1   done (  17368.697 sec)

Triples-Correction TCutTNO=   1.000e-09 (NWeakPairs = 0  1  2  3)  -0.117509783255   -0.001860857362    0.000000000000    0.000000000000
Triples-Correction  -0.119370640617

Triples timings:
Total time                      ... 18098.618 sec

Triples List generation         ...     0.000 sec
TNO generation                  ...   729.698 sec
Pair density generation         ...     0.086 sec
Look up tables                  ...     0.120 sec
Generating 3-index integrals    ... 10963.450 sec
Make 4-ind.int. from 3-ind.int  ...     3.812 sec
Projecting amplitudes (D + S)   ...  6147.061 sec
Sorting integrals for spin cases...    53.376 sec
Calculate W0/W1                 ...   162.284 sec
Energy contr. (sum over a,b,c)  ...    38.551 sec

Everything after 3-index        ...  6541.583 sec

Energy contribution AAA         ...    24.800 sec
Energy contribution AAB         ...   112.964 sec
Energy contribution ABB         ...   102.804 sec
Energy contribution BBB         ...    13.690 sec
prep                ...     3.304 sec
makeTTNO            ...  6085.263 sec
copyij              ...     0.133 sec
copyil              ...     4.311 sec
transposeij         ...     0.081 sec
newMatInDoubleProj  ...    58.933 sec
BlasInDoubleProj    ...  3261.995 sec
ProjSingles         ...    51.089 sec
ProjDoubles         ...  6095.971 sec
overall Doubles for projection      ... 3313054
used Doubles for projection         ... 3313054


Number of Triples   (0, 1, 2, 3 weak pairs; overall):  17574   12224       0       0  ( 29798)
Number of Atoms     (0, 1, 2, 3 weak pairs; overall):   20.4    14.7     0.0     0.0  (    29)
Number of PAOs      (0, 1, 2, 3 weak pairs; overall):  783.2   595.0     0.0     0.0  (  1025)
Number of AuxFcns   (0, 1, 2, 3 weak pairs; overall):  969.1   569.6     0.0     0.0  (  2424)
Number of TNOs (0, 1, 2, 3 weak pairs         ):   78.4    56.1     0.0     0.0
Aver. Number of NTNO, Atoms, PAOs, AuxFcns / Triples:  29798    69.3    18.0   706.0   805.2

Triples Correction (T)                     ...     -0.119370641
    alpha-alpha-alpha ... -0.003908077 (  3.3%)
    alpha-alpha-beta  ... -0.056039528 ( 46.9%)
    alpha-beta -beta  ... -0.055291814 ( 46.3%)
    beta -beta -beta  ... -0.004131221 (  3.5%)
Final correlation energy                   ...     -3.027804718
E(CCSD)                                    ...  -3031.324620113
E(CCSD(T))                                 ...  -3031.443990754

----------------------------
STATISTICS FOR PAIR-ENERGIES
----------------------------
Minimum, maximum and average ratios of UMP and CCSD pair-energies ... 0.46, 1.43, 1.02


------------------------------------------------------------------------------- 
                                     TIMINGS                                   
------------------------------------------------------------------------------- 


Total execution time                   ...    57166.297 sec

Localization of occupied MO's          ...       10.097 sec (  0.0%)
Fock Matrix Formation                  ...     1401.059 sec (  2.5%)
Differential overlap integrals         ...        1.452 sec (  0.0%)
Organizing maps                        ...        1.704 sec (  0.0%)
RI 3-index integral generations        ...      274.678 sec (  0.5%)
RI-PNO integral transformation         ...     4845.733 sec (  8.5%)
Initial Guess                          ...     1878.599 sec (  3.3%)
DIIS Solver                            ...       16.260 sec (  0.0%)
State Vector Update                    ...        0.838 sec (  0.0%)
Sigma-vector construction              ...    30545.732 sec ( 53.4%)
  <0|H|D>                              ...        0.030 sec (  0.0% of sigma)
  <D|H|D>(0-ext)                       ...     5594.263 sec ( 18.3% of sigma)
  <D|H|D>(2-ext Fock)                  ...        1.787 sec (  0.0% of sigma)
  <D|H|D>(2-ext)                       ...     4674.114 sec ( 15.3% of sigma)
  <D|H|D>(4-ext)                       ...      143.918 sec (  0.5% of sigma)
  <D|H|D>(4-ext-corr)                  ...      907.900 sec (  3.0% of sigma)
  CCSD doubles correction              ...      563.649 sec (  1.8% of sigma)
  <S|H|S>                              ...      653.351 sec (  2.1% of sigma)
  <S|H|D>(1-ext)                       ...      283.151 sec (  0.9% of sigma)
  <D|H|S>(1-ext)                       ...        0.714 sec (  0.0% of sigma)
  <S|H|D>(3-ext)                       ...       23.204 sec (  0.1% of sigma)
  CCSD singles correction              ...        0.005 sec (  0.0% of sigma)
  Fock-dressing                        ...     8782.484 sec ( 28.8% of sigma)
  Singles amplitudes                   ...      116.638 sec (  0.4% of sigma)
  (ik|jl)-dressing                     ...     6816.766 sec ( 22.3% of sigma)
  (ij|ab),(ia|jb)-dressing             ...     1653.170 sec (  5.4% of sigma)
  Pair energies                        ...        0.133 sec (  0.0% of sigma)
Total Time for computing (T)           ...    18541.671 sec ( 32.4% of ALL)


-------------------------   --------------------
FINAL SINGLE POINT ENERGY     -3031.443990754065
-------------------------   --------------------


                            ***************************************
                            *     ORCA property calculations      *
                            ***************************************

                                    ---------------------
                                    Active property flags
                                    ---------------------
   (+) Dipole Moment


------------------------------------------------------------------------------
                       ORCA ELECTRIC PROPERTIES CALCULATION
------------------------------------------------------------------------------

Dipole Moment Calculation                       ... on
Quadrupole Moment Calculation                   ... off
Polarizability Calculation                      ... off
GBWName                                         ... simple-grid-195-210-b3lyp_d3bj-631gd-gas-singlepoint-DLPNO_CCSD_T1-NormalPNO-augtz-gas.gbw
Electron density file                           ... simple-grid-195-210-b3lyp_d3bj-631gd-gas-singlepoint-DLPNO_CCSD_T1-NormalPNO-augtz-gas.scfp.tmp
The origin for moment calculation is the CENTER OF MASS  = ( 0.302322,  0.022699  0.017758)

-------------
DIPOLE MOMENT
-------------
                                X             Y             Z
Electronic contribution:     40.54613       3.57123       2.15496
Nuclear contribution   :    -45.04592      -3.38213      -2.64601
                        -----------------------------------------
Total Dipole Moment    :     -4.49979       0.18910      -0.49105
                        -----------------------------------------
Magnitude (a.u.)       :      4.53046
Magnitude (Debye)      :     11.51550



--------------------
Rotational spectrum 
--------------------
 
Rotational constants in cm-1:     0.019091     0.011755     0.010727 
Rotational constants in MHz :   572.336440   352.407658   321.592454 

 Dipole components along the rotational axes: 
x,y,z [a.u.] :     4.501856     0.164475    -0.480909 
x,y,z [Debye]:    11.442808     0.418061    -1.222374 

 

Timings for individual modules:

Sum of individual times         ...    73616.285 sec (=1226.938 min)
GTO integral calculation        ...       12.610 sec (=   0.210 min)   0.0 %
SCF iterations                  ...    16418.529 sec (= 273.642 min)  22.3 %
MDCI module                     ...    57185.146 sec (= 953.086 min)  77.7 %
                             ****ORCA TERMINATED NORMALLY****
TOTAL RUN TIME: 0 days 20 hours 26 minutes 58 seconds 937 msec
