
                                 *****************
                                 * O   R   C   A *
                                 *****************

           --- An Ab Initio, DFT and Semiempirical electronic structure package ---

                  #######################################################
                  #                        -***-                        #
                  #          Department of theory and spectroscopy      #
                  #               Directorship: Frank Neese             #
                  #        Max Planck Institute fuer Kohlenforschung    #
                  #                Kaiser Wilhelm Platz 1               #
                  #                 D-45470 Muelheim/Ruhr               #
                  #                      Germany                        #
                  #                                                     #
                  #                  All rights reserved                #
                  #                        -***-                        #
                  #######################################################


                         Program Version 4.1.2  - RELEASE  -


 With contributions from (in alphabetic order):
   Daniel Aravena         : Magnetic Properties
   Michael Atanasov       : Ab Initio Ligand Field Theory
   Alexander A. Auer      : GIAO ZORA
   Ute Becker             : Parallelization
   Giovanni Bistoni       : ED, Open-shell LED
   Martin Brehm           : Molecular dynamics
   Dmytro Bykov           : SCF Hessian
   Vijay G. Chilkuri      : MRCI spin determinant printing
   Dipayan Datta          : RHF DLPNO-CCSD density
   Achintya Kumar Dutta   : EOM-CC, STEOM-CC
   Dmitry Ganyushin       : Spin-Orbit,Spin-Spin,Magnetic field MRCI
   Miquel Garcia          : C-PCM Hessian
   Yang Guo               : DLPNO-NEVPT2, CIM, IAO-localization
   Andreas Hansen         : Spin unrestricted coupled pair/coupled cluster methods
   Benjamin Helmich-Paris : CASSCF linear response (MC-RPA)
   Lee Huntington         : MR-EOM, pCC
   Robert Izsak           : Overlap fitted RIJCOSX, COSX-SCS-MP3, EOM
   Christian Kollmar      : KDIIS, OOCD, Brueckner-CCSD(T), CCSD density
   Simone Kossmann        : Meta GGA functionals, TD-DFT gradient, OOMP2, MP2 Hessian
   Martin Krupicka        : AUTO-CI
   Lucas Lang             : DCDCAS
   Dagmar Lenk            : GEPOL surface, SMD
   Dimitrios Liakos       : Extrapolation schemes; parallel MDCI
   Dimitrios Manganas     : ROCIS; embedding schemes
   Dimitrios Pantazis     : SARC Basis sets
   Taras Petrenko         : DFT Hessian,TD-DFT gradient, ASA, ECA, R-Raman, ABS, FL, XAS/XES, NRVS
   Peter Pinski           : DLPNO-MP2, DLPNO-MP2 Gradient
   Christoph Reimann      : Effective Core Potentials
   Marius Retegan         : Local ZFS, SOC
   Christoph Riplinger    : Optimizer, TS searches, QM/MM, DLPNO-CCSD(T), (RO)-DLPNO pert. Triples
   Tobias Risthaus        : Range-separated hybrids, TD-DFT gradient, RPA, STAB
   Michael Roemelt        : Restricted open shell CIS
   Masaaki Saitow         : Open-shell DLPNO
   Barbara Sandhoefer     : DKH picture change effects
   Avijit Sen             : IP-ROCIS
   Kantharuban Sivalingam : CASSCF convergence, NEVPT2, FIC-MRCI
   Bernardo de Souza      : ESD, SOC TD-DFT
   Georgi Stoychev        : AutoAux, RI-MP2 NMR
   Willem Van den Heuvel  : Paramagnetic NMR
   Boris Wezisla          : Elementary symmetry handling
   Frank Wennmohs         : Technical directorship


 We gratefully acknowledge several colleagues who have allowed us to
 interface, adapt or use parts of their codes:
   Stefan Grimme, W. Hujo, H. Kruse,             : VdW corrections, initial TS optimization,
                  C. Bannwarth                     DFT functionals, gCP, sTDA/sTD-DF
   Ed Valeev                                     : LibInt (2-el integral package), F12 methods
   Garnet Chan, S. Sharma, J. Yang, R. Olivares  : DMRG
   Ulf Ekstrom                                   : XCFun DFT Library
   Mihaly Kallay                                 : mrcc  (arbitrary order and MRCC methods)
   Andreas Klamt, Michael Diedenhofen            : otool_cosmo (COSMO solvation model)
   Jiri Pittner, Ondrej Demel                    : Mk-CCSD
   Frank Weinhold                                : gennbo (NPA and NBO analysis)
   Christopher J. Cramer and Donald G. Truhlar   : smd solvation model
   Lars Goerigk                                  : TD-DFT with DH, B97 family of functionals
   V. Asgeirsson, H. Jonsson                     : NEB implementation
   FAccTs GmbH                                   : IRC, NEB, NEB-TS, Multilevel


 Your calculation uses the libint2 library for the computation of 2-el integrals
 For citations please refer to: http://libint.valeyev.net

 This ORCA versions uses:
   CBLAS   interface :  Fast vector & matrix operations
   LAPACKE interface :  Fast linear algebra routines
   SCALAPACK package :  Parallel linear algebra routines


----- Orbital basis set information -----
Your calculation utilizes the basis: aug-cc-pVTZ 
    H, B-Ne : Obtained from the ccRepo (grant-hill.group.shef.ac.uk/ccrepo) Feb. 2017
              R. A. Kendall, T. H. Dunning, Jr., R. J. Harrison, J. Chem. Phys. 96, 6796 (1992)
         He : Obtained from the ccRepo (grant-hill.group.shef.ac.uk/ccrepo) Feb. 2017
              D. E. Woon, T. H. Dunning, Jr., J. Chem. Phys. 100, 2975 (1994)
  Li-Be, Na : Obtained from the ccRepo (grant-hill.group.shef.ac.uk/ccrepo) Feb. 2017
              B. P. Prascher, D. E. Woon, K. A. Peterson, T. H. Dunning, Jr., A. K. Wilson, Theor. Chem. Acc. 128, 69 (2011)
         Mg : Obtained from the Peterson Research Group Website (tyr0.chem.wsu.edu/~kipeters) Feb. 2017
              B. P. Prascher, D. E. Woon, K. A. Peterson, T. H. Dunning, Jr., A. K. Wilson, Theor. Chem. Acc. 128, 69 (2011)
      Al-Ar : Obtained from the ccRepo (grant-hill.group.shef.ac.uk/ccrepo) Feb. 2017
              D. E. Woon, T. H. Dunning, Jr., J. Chem. Phys. 98, 1358 (1993)
      Sc-Zn : Obtained from the ccRepo (grant-hill.group.shef.ac.uk/ccrepo) Feb. 2017
              N. B. Balabanov, K. A. Peterson, J. Chem. Phys. 123, 064107 (2005)
              N. B. Balabanov, K. A. Peterson, J. Chem. Phys. 125, 074110 (2006)
      Ga-Kr : Obtained from the ccRepo (grant-hill.group.shef.ac.uk/ccrepo) Feb. 2017
              A. K. Wilson, D. E. Woon, K. A. Peterson, T. H. Dunning, Jr., J. Chem. Phys. 110, 7667 (1999)
     Ag, Au : Obtained from the Peterson Research Group Website (tyr0.chem.wsu.edu/~kipeters) Feb. 2017
              K. A. Peterson, C. Puzzarini, Theor. Chem. Acc. 114, 283 (2005)

----- AuxJ basis set information -----
Your calculation utilizes the AutoAux generation procedure.
  G. L. Stoychev, A. A. Auer, F. Neese, J. Chem. Theory Comput. 13, 554 (2017)

----- AuxC basis set information -----
Your calculation utilizes the auxiliary basis: aug-cc-pVTZ/C 
  H-He, B-F, Al-Ar, Ga-Kr : Obtained from the EMSL Basis Set Exchange (bse.pnl.gov) Feb. 2017
                            F. Weigend, A. Kohn, C. Hattig, J. Chem. Phys. 116, 3175 (2002)
                   Be, Mg : Obtained from the TURBOMOLE 7.0 basis set library
                            C. Haettig, Phys. Chem. Chem. Phys. 7, 59 (2005)
                       Ne : Obtained from the EMSL Basis Set Exchange (bse.pnl.gov) Feb. 2017
                            C. Haettig, Phys. Chem. Chem. Phys. 7, 59 (2005)
                            F. Weigend, A. Kohn, C. Hattig, J. Chem. Phys. 116, 3175 (2002)
                    Sc-Zn : Obtained from the EMSL Basis Set Exchange (bse.pnl.gov) Feb. 2017
                            J. G. Hill, J. A. Platts, J. Chem. Phys. 128, 044104 (2008)

----- AuxJK basis set information -----
Your calculation utilizes the AutoAux generation procedure.
  G. L. Stoychev, A. A. Auer, F. Neese, J. Chem. Theory Comput. 13, 554 (2017)

================================================================================
                                        WARNINGS
                       Please study these warnings very carefully!
================================================================================


WARNING: your system is open-shell and RHF/RKS was chosen
  ===> : WILL SWITCH to UHF/UKS


WARNING: MDCI localization with Augmented Hessian Foster-Boys
  ===> : Switching off randomization!

WARNING: Post HF methods need fully converged wavefunctions
  ===> : Setting SCFConvForced true
         You can overwrite this default with %scf ConvForced false 


INFO   : the flag for use of LIBINT has been found!

================================================================================
                                       INPUT FILE
================================================================================
NAME = simple-grid-185-240-b3lyp_d3bj-631gd-gas-singlepoint-DLPNO_CCSD_T1-NormalPNO-augtz-gas.inp
|  1> ! aug-cc-pVTZ aug-cc-pVTZ/C DLPNO-CCSD(T1) TightSCF NormalPNO UNO MiniPrint AutoAux
|  2> %pal nproc 10 end
|  3> %maxcore 20000
|  4> %mdci
|  5>      density none
|  6> end
|  7> 
|  8> * xyz 0 6
|  9>  O     -0.33423600     -0.16700700     -0.68285000
| 10>  C     -1.29711300     -1.10009400     -0.54138400
| 11>  C     -2.74217700     -0.28326500      0.27536500
| 12>  C     -2.35360200      1.01050500     -0.13917500
| 13>  C     -2.69359900      1.54290600     -1.48086900
| 14> Fe      1.38195900      0.09658500     -0.00895300
| 15> Cl      1.87712300      2.12398100     -0.73268200
| 16>  C     -1.57287800      1.91205900      0.73315400
| 17> Cl      2.65323600     -1.54072000     -0.74244100
| 18> Cl      1.17126400      0.05294400      2.21770400
| 19>  H     -3.57256200     -0.69374700     -0.29862100
| 20>  H     -2.31267500      2.54291200      1.25626800
| 21>  H     -0.99350700      1.38950400      1.49381900
| 22>  H     -0.91940900      2.57136200      0.15571700
| 23>  H     -3.03520500      2.58079100     -1.38382400
| 24>  H     -1.76168400      1.58217500     -2.06257500
| 25>  H     -3.44316600      0.95602000     -2.01210300
| 26>  C     -2.82551200     -0.58906600      1.76427400
| 27>  H     -3.61668200      0.01323400      2.22579900
| 28>  H     -3.07747800     -1.63960400      1.92227200
| 29>  H     -1.89109000     -0.38367900      2.29051100
| 30>  C     -0.92917700     -2.26441600      0.36482300
| 31>  H     -1.75016800     -2.97697000      0.47872700
| 32>  H     -0.09147100     -2.77402000     -0.12817600
| 33>  H     -0.57950800     -1.93337900      1.34238100
| 34>  C     -1.81825600     -1.57843500     -1.89248900
| 35>  H     -0.98846800     -2.10614600     -2.37606100
| 36>  H     -2.66009800     -2.26897800     -1.78875000
| 37>  H     -2.09756200     -0.75127300     -2.54587900
| 38> *
| 39> 
| 40> 
| 41>                          ****END OF INPUT****
================================================================================

                       ****************************
                       * Single Point Calculation *
                       ****************************

---------------------------------
CARTESIAN COORDINATES (ANGSTROEM)
---------------------------------
  O     -0.334236   -0.167007   -0.682850
  C     -1.297113   -1.100094   -0.541384
  C     -2.742177   -0.283265    0.275365
  C     -2.353602    1.010505   -0.139175
  C     -2.693599    1.542906   -1.480869
  Fe     1.381959    0.096585   -0.008953
  Cl     1.877123    2.123981   -0.732682
  C     -1.572878    1.912059    0.733154
  Cl     2.653236   -1.540720   -0.742441
  Cl     1.171264    0.052944    2.217704
  H     -3.572562   -0.693747   -0.298621
  H     -2.312675    2.542912    1.256268
  H     -0.993507    1.389504    1.493819
  H     -0.919409    2.571362    0.155717
  H     -3.035205    2.580791   -1.383824
  H     -1.761684    1.582175   -2.062575
  H     -3.443166    0.956020   -2.012103
  C     -2.825512   -0.589066    1.764274
  H     -3.616682    0.013234    2.225799
  H     -3.077478   -1.639604    1.922272
  H     -1.891090   -0.383679    2.290511
  C     -0.929177   -2.264416    0.364823
  H     -1.750168   -2.976970    0.478727
  H     -0.091471   -2.774020   -0.128176
  H     -0.579508   -1.933379    1.342381
  C     -1.818256   -1.578435   -1.892489
  H     -0.988468   -2.106146   -2.376061
  H     -2.660098   -2.268978   -1.788750
  H     -2.097562   -0.751273   -2.545879

----------------------------
CARTESIAN COORDINATES (A.U.)
----------------------------
  NO LB      ZA    FRAG     MASS         X           Y           Z
   0 O     8.0000    0    15.999   -0.631615   -0.315597   -1.290399
   1 C     6.0000    0    12.011   -2.451188   -2.078876   -1.023067
   2 C     6.0000    0    12.011   -5.181964   -0.535293    0.520364
   3 C     6.0000    0    12.011   -4.447663    1.909578   -0.263003
   4 C     6.0000    0    12.011   -5.090164    2.915670   -2.798437
   5 Fe   26.0000    0    55.850    2.611524    0.182519   -0.016919
   6 Cl   17.0000    0    35.453    3.547248    4.013742   -1.384568
   7 C     6.0000    0    12.011   -2.972309    3.613268    1.385460
   8 Cl   17.0000    0    35.453    5.013889   -2.911539   -1.403010
   9 Cl   17.0000    0    35.453    2.213368    0.100050    4.190853
  10 H     1.0000    0     1.008   -6.751164   -1.310992   -0.564312
  11 H     1.0000    0     1.008   -4.370322    4.805407    2.374002
  12 H     1.0000    0     1.008   -1.877456    2.625782    2.822909
  13 H     1.0000    0     1.008   -1.737431    4.859170    0.294262
  14 H     1.0000    0     1.008   -5.735706    4.876988   -2.615048
  15 H     1.0000    0     1.008   -3.329100    2.989877   -3.897702
  16 H     1.0000    0     1.008   -6.506641    1.806616   -3.802324
  17 C     6.0000    0    12.011   -5.339444   -1.113173    3.333995
  18 H     1.0000    0     1.008   -6.834538    0.025009    4.206151
  19 H     1.0000    0     1.008   -5.815591   -3.098403    3.632568
  20 H     1.0000    0     1.008   -3.573642   -0.725048    4.328438
  21 C     6.0000    0    12.011   -1.755890   -4.279126    0.689416
  22 H     1.0000    0     1.008   -3.307338   -5.625658    0.904663
  23 H     1.0000    0     1.008   -0.172855   -5.242138   -0.242218
  24 H     1.0000    0     1.008   -1.095111   -3.653557    2.536732
  25 C     6.0000    0    12.011   -3.436006   -2.982810   -3.576286
  26 H     1.0000    0     1.008   -1.867934   -3.980039   -4.490105
  27 H     1.0000    0     1.008   -5.026857   -4.287747   -3.380248
  28 H     1.0000    0     1.008   -3.963818   -1.419700   -4.811014



           ************************************************************
           *        Program running with 10 parallel MPI-processes    *
           *              working on a common directory               *
           ************************************************************


           ************************************************************
           *        Program running with 10 parallel MPI-processes    *
           *              working on a common directory               *
           ************************************************************

Diagonalization of the overlap matrix:
Smallest eigenvalue                        ... 5.850e-07
Time for diagonalization                   ...    0.337 sec
Threshold for overlap eigenvalues          ... 1.000e-08
Number of eigenvalues below threshold      ... 0
Time for construction of square roots      ...    0.277 sec
Total time needed                          ...    0.619 sec

-------------------
DFT GRID GENERATION
-------------------

General Integration Accuracy     IntAcc      ...  4.340
Radial Grid Type                 RadialGrid  ... Gauss-Chebyshev
Angular Grid (max. acc.)         AngularGrid ... Lebedev-110
Angular grid pruning method      GridPruning ... 3 (G Style)
Weight generation scheme         WeightScheme... Becke
Basis function cutoff            BFCut       ...    1.0000e-11
Integration weight cutoff        WCut        ...    1.0000e-14
Grids for H and He will be reduced by one unit

# of grid points (after initial pruning)     ...  36112 (   0.0 sec)
# of grid points (after weights+screening)   ...  32270 (   0.1 sec)
nearest neighbour list constructed           ...    0.0 sec
Grid point re-assignment to atoms done       ...    0.0 sec
Grid point division into batches done        ...    0.0 sec
Reduced shell lists constructed in    0.2 sec

Total number of grid points                  ...    32270
Total number of batches                      ...      522
Average number of points per batch           ...       61
Average number of grid points per atom       ...     1113
Average number of shells per batch           ...   294.61 (85.89%)
Average number of basis functions per batch  ...   876.54 (85.52%)
Average number of large shells per batch     ...   243.30 (82.58%)
Average number of large basis fcns per batch ...   724.11 (82.61%)
Maximum spatial batch extension              ...   2.78,  3.27,  4.66 au
Average spatial batch extension              ...   0.17,  0.17,  0.18 au

Time for grid setup =    0.357 sec

Loading Hartree-Fock densities                     ... done
Calculating cut-offs                               ... done
Setting up the integral package                    ... done
Initializing the effective Hamiltonian             ... done
Starting the Coulomb interaction                   ... done (   1.1 sec)
Reading the grid                                   ... done
Mapping shells                                     ... done
Starting the XC term evaluation                    ... done (   0.9 sec)
Transforming the Hamiltonian                       ... done (   0.2 sec)
Diagonalizing the Hamiltonian                      ... done (   0.4 sec)
Back transforming the eigenvectors                 ... done (   0.1 sec)
Now organizing SCF variables                       ... done
--------------
SCF ITERATIONS
--------------
ITER       Energy         Delta-E        Max-DP      RMS-DP      [F,P]     Damp
               ***  Starting incremental Fock matrix formation  ***
  0  -3027.5711499703   0.000000000000 0.32799508  0.00123119  0.2935047 0.7000
  1  -3027.8199108562  -0.248760885866 0.24035169  0.00095140  0.1687434 0.7000
                               ***Turning on DIIS***
  2  -3027.9866679644  -0.166757108213 0.16944564  0.00069733  0.1095199 0.7000
  3  -3029.6784951454  -1.691827180981 0.38394654  0.00173765  0.0824262 0.0000
  4  -3028.2933495347   1.385145610659 0.04700437  0.00022602  0.0190512 0.0000
  5  -3028.4130521953  -0.119702660606 0.03989877  0.00017168  0.0116366 0.0000
  6  -3028.4395350531  -0.026482857809 0.02017066  0.00006921  0.0053567 0.0000
  7  -3028.4526186591  -0.013083605926 0.00906511  0.00003145  0.0032460 0.0000
  8  -3028.4496709327   0.002947726364 0.00582625  0.00001841  0.0013787 0.0000
  9  -3028.4404566408   0.009214291940 0.00229265  0.00001075  0.0006933 0.0000
 10  -3028.4300655435   0.010391097227 0.00087895  0.00000341  0.0004066 0.0000
 11  -3028.4359140427  -0.005848499181 0.00037606  0.00000192  0.0000850 0.0000
 12  -3028.4330868853   0.002827157443 0.00019031  0.00000107  0.0000285 0.0000
 13  -3028.4331958708  -0.000108985527 0.00111876  0.00000193  0.0000109 0.0000
 14  -3028.4332830937  -0.000087222893 0.00039970  0.00000210  0.0000060 0.0000
 15  -3028.4331983600   0.000084733642 0.00162519  0.00000306  0.0000033 0.0000
 16  -3028.4332298892  -0.000031529192 0.00079128  0.00000233  0.0000025 0.0000
 17  -3028.4332500645  -0.000020175252 0.00150742  0.00000270  0.0000013 0.0000
                            ***DIIS convergence achieved***

               *****************************************************
               *                     SUCCESS                       *
               *           SCF CONVERGED AFTER  18 CYCLES          *
               *****************************************************

Total Energy       :        -3028.43322873 Eh          -82407.85769 eV
  Last Energy change         ...    2.1336e-05  Tolerance :   1.0000e-08
  Last MAX-Density change    ...    1.8151e-03  Tolerance :   1.0000e-07
             **** THE GBW FILE WAS UPDATED (simple-grid-185-240-b3lyp_d3bj-631gd-gas-singlepoint-DLPNO_CCSD_T1-NormalPNO-augtz-gas.gbw) ****
             **** DENSITY FILE WAS UPDATED (simple-grid-185-240-b3lyp_d3bj-631gd-gas-singlepoint-DLPNO_CCSD_T1-NormalPNO-augtz-gas.scfp.tmp) ****
             **** ENERGY FILE WAS UPDATED (simple-grid-185-240-b3lyp_d3bj-631gd-gas-singlepoint-DLPNO_CCSD_T1-NormalPNO-augtz-gas.en.tmp) ****
----------------------
UHF SPIN CONTAMINATION
----------------------

Expectation value of <S**2>     :     8.764264
Ideal value S*(S+1) for S=2.5   :     8.750000
Deviation                       :     0.014264

----------------
ORBITAL ENERGIES
----------------
                 SPIN UP ORBITALS
  NO   OCC          E(Eh)            E(eV) 
   0   1.0000    -261.547050     -7117.0571 
   1   1.0000    -104.775441     -2851.0847 
   2   1.0000    -104.772454     -2851.0034 
   3   1.0000    -104.770188     -2850.9418 
   4   1.0000     -32.214957      -876.6135 
   5   1.0000     -27.690843      -753.5062 
   6   1.0000     -27.690682      -753.5018 
   7   1.0000     -27.690426      -753.4948 
   8   1.0000     -20.544766      -559.0515 
   9   1.0000     -11.385991      -309.8286 
  10   1.0000     -11.368913      -309.3639 
  11   1.0000     -11.286734      -307.1277 
  12   1.0000     -11.284247      -307.0600 
  13   1.0000     -11.270508      -306.6861 
  14   1.0000     -11.257065      -306.3203 
  15   1.0000     -11.248324      -306.0825 
  16   1.0000     -11.239447      -305.8409 
  17   1.0000     -10.502008      -285.7742 
  18   1.0000     -10.498995      -285.6922 
  19   1.0000     -10.496756      -285.6313 
  20   1.0000      -7.968912      -216.8451 
  21   1.0000      -7.968015      -216.8207 
  22   1.0000      -7.967973      -216.8196 
  23   1.0000      -7.965818      -216.7609 
  24   1.0000      -7.965091      -216.7411 
  25   1.0000      -7.965003      -216.7388 
  26   1.0000      -7.963575      -216.6999 
  27   1.0000      -7.962861      -216.6805 
  28   1.0000      -7.962785      -216.6784 
  29   1.0000      -4.570374      -124.3662 
  30   1.0000      -3.182859       -86.6100 
  31   1.0000      -3.182508       -86.6004 
  32   1.0000      -3.182020       -86.5872 
  33   1.0000      -1.379716       -37.5440 
  34   1.0000      -1.187630       -32.3171 
  35   1.0000      -1.085169       -29.5290 
  36   1.0000      -1.045482       -28.4490 
  37   1.0000      -1.044188       -28.4138 
  38   1.0000      -1.039823       -28.2950 
  39   1.0000      -1.037185       -28.2232 
  40   1.0000      -1.010056       -27.4850 
  41   1.0000      -0.974317       -26.5125 
  42   1.0000      -0.934395       -25.4262 
  43   1.0000      -0.911139       -24.7933 
  44   1.0000      -0.899941       -24.4886 
  45   1.0000      -0.899793       -24.4846 
  46   1.0000      -0.891695       -24.2643 
  47   1.0000      -0.891055       -24.2468 
  48   1.0000      -0.788055       -21.4441 
  49   1.0000      -0.765920       -20.8417 
  50   1.0000      -0.705504       -19.1977 
  51   1.0000      -0.692266       -18.8375 
  52   1.0000      -0.673922       -18.3383 
  53   1.0000      -0.649348       -17.6697 
  54   1.0000      -0.643480       -17.5100 
  55   1.0000      -0.627727       -17.0813 
  56   1.0000      -0.600833       -16.3495 
  57   1.0000      -0.596948       -16.2438 
  58   1.0000      -0.592825       -16.1316 
  59   1.0000      -0.580588       -15.7986 
  60   1.0000      -0.578463       -15.7408 
  61   1.0000      -0.559844       -15.2341 
  62   1.0000      -0.556751       -15.1500 
  63   1.0000      -0.544060       -14.8046 
  64   1.0000      -0.533637       -14.5210 
  65   1.0000      -0.528914       -14.3925 
  66   1.0000      -0.508922       -13.8485 
  67   1.0000      -0.471033       -12.8175 
  68   1.0000      -0.460077       -12.5193 
  69   1.0000      -0.449170       -12.2225 
  70   1.0000      -0.425243       -11.5715 
  71   1.0000      -0.424549       -11.5526 
  72   1.0000      -0.421814       -11.4781 
  73   1.0000      -0.413074       -11.2403 
  74   1.0000      -0.412126       -11.2145 
  75   1.0000      -0.410414       -11.1679 
  76   1.0000      -0.399590       -10.8734 
  77   0.0000       0.006360         0.1731 
  78   0.0000       0.015788         0.4296 
  79   0.0000       0.020102         0.5470 
  80   0.0000       0.020480         0.5573 
  81   0.0000       0.030440         0.8283 
  82   0.0000       0.037622         1.0237 
  83   0.0000       0.039241         1.0678 
  84   0.0000       0.044338         1.2065 
  85   0.0000       0.045372         1.2346 
  86   0.0000       0.046960         1.2779 
  87   0.0000       0.056718         1.5434 
  88   0.0000       0.059001         1.6055 
  89   0.0000       0.061580         1.6757 
  90   0.0000       0.065394         1.7795 
  91   0.0000       0.066240         1.8025 
  92   0.0000       0.071213         1.9378 
  93   0.0000       0.074198         2.0190 
  94   0.0000       0.077532         2.1098 
  95   0.0000       0.088426         2.4062 
  96   0.0000       0.089745         2.4421 
  97   0.0000       0.093978         2.5573 
  98   0.0000       0.095369         2.5951 
  99   0.0000       0.099131         2.6975 
 100   0.0000       0.099869         2.7176 
 101   0.0000       0.110138         2.9970 
 102   0.0000       0.113300         3.0830 
 103   0.0000       0.120596         3.2816 
 104   0.0000       0.122034         3.3207 
 105   0.0000       0.125783         3.4227 
 106   0.0000       0.127558         3.4710 
 107   0.0000       0.129944         3.5360 
 108   0.0000       0.132926         3.6171 
 109   0.0000       0.133177         3.6239 
 110   0.0000       0.138184         3.7602 
 111   0.0000       0.139934         3.8078 
 112   0.0000       0.142302         3.8722 
 113   0.0000       0.145676         3.9641 
 114   0.0000       0.151387         4.1195 
 115   0.0000       0.154664         4.2086 
 116   0.0000       0.157053         4.2736 
 117   0.0000       0.164386         4.4732 
 118   0.0000       0.165440         4.5019 
 119   0.0000       0.167670         4.5625 
 120   0.0000       0.168923         4.5966 
 121   0.0000       0.170862         4.6494 
 122   0.0000       0.174318         4.7434 
 123   0.0000       0.177555         4.8315 
 124   0.0000       0.181307         4.9336 
 125   0.0000       0.188751         5.1362 
 126   0.0000       0.189317         5.1516 
 127   0.0000       0.197364         5.3705 
 128   0.0000       0.198891         5.4121 
 129   0.0000       0.202157         5.5010 
 130   0.0000       0.203243         5.5305 
 131   0.0000       0.207278         5.6403 
 132   0.0000       0.209360         5.6970 
 133   0.0000       0.212274         5.7763 
 134   0.0000       0.216705         5.8968 
 135   0.0000       0.219301         5.9675 
 136   0.0000       0.224699         6.1144 
 137   0.0000       0.226866         6.1733 
 138   0.0000       0.227697         6.1960 
 139   0.0000       0.232005         6.3132 
 140   0.0000       0.233517         6.3543 
 141   0.0000       0.239904         6.5281 
 142   0.0000       0.241386         6.5685 
 143   0.0000       0.246507         6.7078 
 144   0.0000       0.247580         6.7370 
 145   0.0000       0.250323         6.8116 
 146   0.0000       0.252816         6.8795 
 147   0.0000       0.256042         6.9673 
 148   0.0000       0.262486         7.1426 
 149   0.0000       0.264739         7.2039 
 150   0.0000       0.269411         7.3310 
 151   0.0000       0.271964         7.4005 
 152   0.0000       0.276155         7.5146 
 153   0.0000       0.279639         7.6094 
 154   0.0000       0.281869         7.6701 
 155   0.0000       0.287216         7.8155 
 156   0.0000       0.291642         7.9360 
 157   0.0000       0.292827         7.9682 
 158   0.0000       0.300729         8.1833 
 159   0.0000       0.304017         8.2727 
 160   0.0000       0.307723         8.3736 
 161   0.0000       0.314792         8.5659 
 162   0.0000       0.319280         8.6881 
 163   0.0000       0.323016         8.7897 
 164   0.0000       0.323614         8.8060 
 165   0.0000       0.329093         8.9551 
 166   0.0000       0.333387         9.0719 
 167   0.0000       0.337887         9.1944 
 168   0.0000       0.341671         9.2973 
 169   0.0000       0.344675         9.3791 
 170   0.0000       0.346735         9.4351 
 171   0.0000       0.353717         9.6251 
 172   0.0000       0.356457         9.6997 
 173   0.0000       0.359645         9.7864 
 174   0.0000       0.361081         9.8255 
 175   0.0000       0.364722         9.9246 
 176   0.0000       0.369543        10.0558 
 177   0.0000       0.371212        10.1012 
 178   0.0000       0.376268        10.2388 
 179   0.0000       0.380229        10.3466 
 180   0.0000       0.382195        10.4000 
 181   0.0000       0.384739        10.4693 
 182   0.0000       0.385561        10.4917 
 183   0.0000       0.390866        10.6360 
 184   0.0000       0.393256        10.7010 
 185   0.0000       0.394706        10.7405 
 186   0.0000       0.396316        10.7843 
 187   0.0000       0.400494        10.8980 
 188   0.0000       0.404711        11.0128 
 189   0.0000       0.412224        11.2172 
 190   0.0000       0.414758        11.2861 
 191   0.0000       0.418353        11.3840 
 192   0.0000       0.422267        11.4905 
 193   0.0000       0.425104        11.5677 
 194   0.0000       0.429256        11.6807 
 195   0.0000       0.432615        11.7721 
 196   0.0000       0.434080        11.8119 
 197   0.0000       0.439693        11.9647 
 198   0.0000       0.444434        12.0937 
 199   0.0000       0.451145        12.2763 
 200   0.0000       0.452452        12.3119 
 201   0.0000       0.453596        12.3430 
 202   0.0000       0.457612        12.4523 
 203   0.0000       0.463155        12.6031 
 204   0.0000       0.467502        12.7214 
 205   0.0000       0.469332        12.7712 
 206   0.0000       0.472531        12.8582 
 207   0.0000       0.477477        12.9928 
 208   0.0000       0.480719        13.0810 
 209   0.0000       0.483543        13.1579 
 210   0.0000       0.486531        13.2392 
 211   0.0000       0.488151        13.2833 
 212   0.0000       0.489913        13.3312 
 213   0.0000       0.493632        13.4324 
 214   0.0000       0.497559        13.5393 
 215   0.0000       0.498295        13.5593 
 216   0.0000       0.501320        13.6416 
 217   0.0000       0.502994        13.6872 
 218   0.0000       0.506801        13.7908 
 219   0.0000       0.511984        13.9318 
 220   0.0000       0.517329        14.0772 
 221   0.0000       0.518357        14.1052 
 222   0.0000       0.522298        14.2124 
 223   0.0000       0.524207        14.2644 
 224   0.0000       0.528541        14.3823 
 225   0.0000       0.532552        14.4915 
 226   0.0000       0.536394        14.5960 
 227   0.0000       0.543187        14.7809 
 228   0.0000       0.544235        14.8094 
 229   0.0000       0.551342        15.0028 
 230   0.0000       0.552863        15.0442 
 231   0.0000       0.556785        15.1509 
 232   0.0000       0.559265        15.2184 
 233   0.0000       0.561990        15.2925 
 234   0.0000       0.566262        15.4088 
 235   0.0000       0.571031        15.5386 
 236   0.0000       0.572627        15.5820 
 237   0.0000       0.575376        15.6568 
 238   0.0000       0.582207        15.8427 
 239   0.0000       0.583456        15.8766 
 240   0.0000       0.589460        16.0400 
 241   0.0000       0.594553        16.1786 
 242   0.0000       0.597376        16.2554 
 243   0.0000       0.599039        16.3007 
 244   0.0000       0.603062        16.4102 
 245   0.0000       0.608135        16.5482 
 246   0.0000       0.612327        16.6623 
 247   0.0000       0.614557        16.7229 
 248   0.0000       0.618210        16.8223 
 249   0.0000       0.622822        16.9479 
 250   0.0000       0.629087        17.1183 
 251   0.0000       0.629225        17.1221 
 252   0.0000       0.634387        17.2626 
 253   0.0000       0.638459        17.3733 
 254   0.0000       0.641560        17.4577 
 255   0.0000       0.646282        17.5862 
 256   0.0000       0.648090        17.6354 
 257   0.0000       0.653713        17.7884 
 258   0.0000       0.654694        17.8151 
 259   0.0000       0.659389        17.9429 
 260   0.0000       0.663551        18.0561 
 261   0.0000       0.668629        18.1943 
 262   0.0000       0.676967        18.4212 
 263   0.0000       0.679975        18.5031 
 264   0.0000       0.681623        18.5479 
 265   0.0000       0.691106        18.8059 
 266   0.0000       0.693613        18.8742 
 267   0.0000       0.697672        18.9846 
 268   0.0000       0.698248        19.0003 
 269   0.0000       0.703219        19.1356 
 270   0.0000       0.707575        19.2541 
 271   0.0000       0.709054        19.2943 
 272   0.0000       0.714612        19.4456 
 273   0.0000       0.722891        19.6709 
 274   0.0000       0.725139        19.7320 
 275   0.0000       0.733397        19.9567 
 276   0.0000       0.736349        20.0371 
 277   0.0000       0.740115        20.1396 
 278   0.0000       0.742465        20.2035 
 279   0.0000       0.746571        20.3152 
 280   0.0000       0.755430        20.5563 
 281   0.0000       0.759006        20.6536 
 282   0.0000       0.762398        20.7459 
 283   0.0000       0.769109        20.9285 
 284   0.0000       0.778285        21.1782 
 285   0.0000       0.787007        21.4155 
 286   0.0000       0.792744        21.5716 
 287   0.0000       0.794704        21.6250 
 288   0.0000       0.801018        21.7968 
 289   0.0000       0.803747        21.8711 
 290   0.0000       0.808852        22.0100 
 291   0.0000       0.814881        22.1740 
 292   0.0000       0.821825        22.3630 
 293   0.0000       0.827847        22.5269 
 294   0.0000       0.833567        22.6825 
 295   0.0000       0.839160        22.8347 
 296   0.0000       0.840676        22.8760 
 297   0.0000       0.847310        23.0565 
 298   0.0000       0.854304        23.2468 
 299   0.0000       0.855720        23.2853 
 300   0.0000       0.861267        23.4363 
 301   0.0000       0.865007        23.5380 
 302   0.0000       0.871164        23.7056 
 303   0.0000       0.879451        23.9311 
 304   0.0000       0.884929        24.0802 
 305   0.0000       0.890253        24.2250 
 306   0.0000       0.893188        24.3049 
 307   0.0000       0.896659        24.3993 
 308   0.0000       0.897453        24.4209 
 309   0.0000       0.903868        24.5955 
 310   0.0000       0.907000        24.6807 
 311   0.0000       0.912006        24.8169 
 312   0.0000       0.920534        25.0490 
 313   0.0000       0.922684        25.1075 
 314   0.0000       0.927460        25.2375 
 315   0.0000       0.929666        25.2975 
 316   0.0000       0.934023        25.4161 
 317   0.0000       0.935491        25.4560 
 318   0.0000       0.940973        25.6052 
 319   0.0000       0.946200        25.7474 
 320   0.0000       0.947197        25.7745 
 321   0.0000       0.955381        25.9972 
 322   0.0000       0.958789        26.0900 
 323   0.0000       0.961467        26.1629 
 324   0.0000       0.963661        26.2226 
 325   0.0000       0.967728        26.3332 
 326   0.0000       0.969346        26.3773 
 327   0.0000       0.975667        26.5492 
 328   0.0000       0.978661        26.6307 
 329   0.0000       0.981945        26.7201 
 330   0.0000       0.987332        26.8667 
 331   0.0000       0.988892        26.9091 
 332   0.0000       0.993251        27.0277 
 333   0.0000       0.998109        27.1599 
 334   0.0000       1.000998        27.2385 
 335   0.0000       1.005131        27.3510 
 336   0.0000       1.009727        27.4761 
 337   0.0000       1.015644        27.6371 
 338   0.0000       1.020840        27.7785 
 339   0.0000       1.025016        27.8921 
 340   0.0000       1.028221        27.9793 
 341   0.0000       1.029853        28.0237 
 342   0.0000       1.033962        28.1355 
 343   0.0000       1.039858        28.2960 
 344   0.0000       1.041302        28.3353 
 345   0.0000       1.045697        28.4548 
 346   0.0000       1.048486        28.5308 
 347   0.0000       1.049636        28.5621 
 348   0.0000       1.052635        28.6437 
 349   0.0000       1.055389        28.7186 
 350   0.0000       1.060393        28.8548 
 351   0.0000       1.062025        28.8992 
 352   0.0000       1.066621        29.0242 
 353   0.0000       1.073663        29.2158 
 354   0.0000       1.080115        29.3914 
 355   0.0000       1.080858        29.4117 
 356   0.0000       1.081796        29.4372 
 357   0.0000       1.088498        29.6195 
 358   0.0000       1.093804        29.7639 
 359   0.0000       1.094151        29.7734 
 360   0.0000       1.100344        29.9419 
 361   0.0000       1.110803        30.2265 
 362   0.0000       1.112926        30.2843 
 363   0.0000       1.117587        30.4111 
 364   0.0000       1.119731        30.4694 
 365   0.0000       1.122370        30.5412 
 366   0.0000       1.127259        30.6743 
 367   0.0000       1.131604        30.7925 
 368   0.0000       1.136268        30.9194 
 369   0.0000       1.141161        31.0526 
 370   0.0000       1.142130        31.0789 
 371   0.0000       1.147803        31.2333 
 372   0.0000       1.151805        31.3422 
 373   0.0000       1.156801        31.4782 
 374   0.0000       1.158999        31.5380 
 375   0.0000       1.160488        31.5785 
 376   0.0000       1.165622        31.7182 
 377   0.0000       1.170709        31.8566 
 378   0.0000       1.177731        32.0477 
 379   0.0000       1.184091        32.2208 
 380   0.0000       1.188419        32.3385 
 381   0.0000       1.194856        32.5137 
 382   0.0000       1.198560        32.6145 
 383   0.0000       1.203449        32.7475 
 384   0.0000       1.207157        32.8484 
 385   0.0000       1.212731        33.0001 
 386   0.0000       1.216284        33.0968 
 387   0.0000       1.223369        33.2896 
 388   0.0000       1.228088        33.4180 
 389   0.0000       1.232332        33.5335 
 390   0.0000       1.235964        33.6323 
 391   0.0000       1.239193        33.7202 
 392   0.0000       1.247501        33.9462 
 393   0.0000       1.250442        34.0263 
 394   0.0000       1.252790        34.0902 
 395   0.0000       1.256393        34.1882 
 396   0.0000       1.263947        34.3938 
 397   0.0000       1.270628        34.5755 
 398   0.0000       1.275252        34.7014 
 399   0.0000       1.277290        34.7568 
 400   0.0000       1.283587        34.9282 
 401   0.0000       1.288260        35.0553 
 402   0.0000       1.294066        35.2133 
 403   0.0000       1.298448        35.3326 
 404   0.0000       1.306753        35.5585 
 405   0.0000       1.310442        35.6589 
 406   0.0000       1.316174        35.8149 
 407   0.0000       1.320135        35.9227 
 408   0.0000       1.328797        36.1584 
 409   0.0000       1.333287        36.2806 
 410   0.0000       1.339627        36.4531 
 411   0.0000       1.343398        36.5557 
 412   0.0000       1.345329        36.6083 
 413   0.0000       1.347814        36.6759 
 414   0.0000       1.353000        36.8170 
 415   0.0000       1.358851        36.9762 
 416   0.0000       1.361842        37.0576 
 417   0.0000       1.369155        37.2566 
 418   0.0000       1.378090        37.4997 
 419   0.0000       1.383560        37.6486 
 420   0.0000       1.387913        37.7670 
 421   0.0000       1.393857        37.9288 
 422   0.0000       1.398011        38.0418 
 423   0.0000       1.407342        38.2957 
 424   0.0000       1.412794        38.4441 
 425   0.0000       1.418125        38.5891 
 426   0.0000       1.425889        38.8004 
 427   0.0000       1.428433        38.8697 
 428   0.0000       1.432924        38.9918 
 429   0.0000       1.436389        39.0861 
 430   0.0000       1.440566        39.1998 
 431   0.0000       1.447619        39.3917 
 432   0.0000       1.453281        39.5458 
 433   0.0000       1.464206        39.8431 
 434   0.0000       1.466463        39.9045 
 435   0.0000       1.470874        40.0245 
 436   0.0000       1.475646        40.1544 
 437   0.0000       1.482092        40.3298 
 438   0.0000       1.491280        40.5798 
 439   0.0000       1.492925        40.6246 
 440   0.0000       1.498710        40.7820 
 441   0.0000       1.500808        40.8391 
 442   0.0000       1.508854        41.0580 
 443   0.0000       1.515728        41.2451 
 444   0.0000       1.519360        41.3439 
 445   0.0000       1.522791        41.4372 
 446   0.0000       1.528294        41.5870 
 447   0.0000       1.532067        41.6897 
 448   0.0000       1.534516        41.7563 
 449   0.0000       1.538472        41.8640 
 450   0.0000       1.545665        42.0597 
 451   0.0000       1.550929        42.2029 
 452   0.0000       1.559283        42.4303 
 453   0.0000       1.561405        42.4880 
 454   0.0000       1.567636        42.6575 
 455   0.0000       1.574595        42.8469 
 456   0.0000       1.581129        43.0247 
 457   0.0000       1.583274        43.0831 
 458   0.0000       1.586527        43.1716 
 459   0.0000       1.593054        43.3492 
 460   0.0000       1.600147        43.5422 
 461   0.0000       1.602903        43.6172 
 462   0.0000       1.604725        43.6668 
 463   0.0000       1.613550        43.9069 
 464   0.0000       1.618752        44.0485 
 465   0.0000       1.626419        44.2571 
 466   0.0000       1.627825        44.2954 
 467   0.0000       1.637005        44.5452 
 468   0.0000       1.643393        44.7190 
 469   0.0000       1.647087        44.8195 
 470   0.0000       1.649870        44.8952 
 471   0.0000       1.659138        45.1474 
 472   0.0000       1.667028        45.3621 
 473   0.0000       1.671498        45.4838 
 474   0.0000       1.674451        45.5641 
 475   0.0000       1.680304        45.7234 
 476   0.0000       1.682301        45.7777 
 477   0.0000       1.685659        45.8691 
 478   0.0000       1.693391        46.0795 
 479   0.0000       1.695023        46.1239 
 480   0.0000       1.703861        46.3644 
 481   0.0000       1.710168        46.5360 
 482   0.0000       1.714737        46.6604 
 483   0.0000       1.724077        46.9145 
 484   0.0000       1.728327        47.0302 
 485   0.0000       1.730402        47.0866 
 486   0.0000       1.737430        47.2779 
 487   0.0000       1.743215        47.4353 
 488   0.0000       1.749619        47.6096 
 489   0.0000       1.754020        47.7293 
 490   0.0000       1.759480        47.8779 
 491   0.0000       1.761333        47.9283 
 492   0.0000       1.766058        48.0569 
 493   0.0000       1.776405        48.3384 
 494   0.0000       1.780654        48.4541 
 495   0.0000       1.786491        48.6129 
 496   0.0000       1.788788        48.6754 
 497   0.0000       1.798036        48.9271 
 498   0.0000       1.802023        49.0355 
 499   0.0000       1.807489        49.1843 
 500   0.0000       1.814170        49.3661 
 501   0.0000       1.816974        49.4424 
 502   0.0000       1.826499        49.7016 
 503   0.0000       1.831214        49.8299 
 504   0.0000       1.836800        49.9819 
 505   0.0000       1.841096        50.0988 
 506   0.0000       1.842202        50.1289 
 507   0.0000       1.845652        50.2227 
 508   0.0000       1.853390        50.4333 
 509   0.0000       1.854366        50.4599 
 510   0.0000       1.859452        50.5983 
 511   0.0000       1.861608        50.6569 
 512   0.0000       1.873104        50.9697 
 513   0.0000       1.877069        51.0776 
 514   0.0000       1.884429        51.2779 
 515   0.0000       1.889852        51.4255 
 516   0.0000       1.894446        51.5505 
 517   0.0000       1.901964        51.7551 
 518   0.0000       1.905128        51.8412 
 519   0.0000       1.910240        51.9803 
 520   0.0000       1.911769        52.0219 
 521   0.0000       1.914821        52.1049 
 522   0.0000       1.925407        52.3930 
 523   0.0000       1.927366        52.4463 
 524   0.0000       1.933534        52.6141 
 525   0.0000       1.941729        52.8371 
 526   0.0000       1.950922        53.0873 
 527   0.0000       1.957846        53.2757 
 528   0.0000       1.960686        53.3530 
 529   0.0000       1.964843        53.4661 
 530   0.0000       1.965452        53.4827 
 531   0.0000       1.975268        53.7498 
 532   0.0000       1.982695        53.9519 
 533   0.0000       1.984400        53.9983 
 534   0.0000       1.989477        54.1364 
 535   0.0000       1.992930        54.2304 
 536   0.0000       1.999319        54.4042 
 537   0.0000       2.005296        54.5669 
 538   0.0000       2.014208        54.8094 
 539   0.0000       2.024220        55.0818 
 540   0.0000       2.025725        55.1228 
 541   0.0000       2.032700        55.3126 
 542   0.0000       2.043380        55.6032 
 543   0.0000       2.048657        55.7468 
 544   0.0000       2.056091        55.9491 
 545   0.0000       2.068184        56.2782 
 546   0.0000       2.077596        56.5343 
 547   0.0000       2.088728        56.8372 
 548   0.0000       2.090520        56.8859 
 549   0.0000       2.093955        56.9794 
 550   0.0000       2.107934        57.3598 
 551   0.0000       2.112407        57.4815 
 552   0.0000       2.115395        57.5628 
 553   0.0000       2.121174        57.7201 
 554   0.0000       2.126606        57.8679 
 555   0.0000       2.131245        57.9941 
 556   0.0000       2.134765        58.0899 
 557   0.0000       2.142150        58.2909 
 558   0.0000       2.145081        58.3706 
 559   0.0000       2.155185        58.6456 
 560   0.0000       2.162411        58.8422 
 561   0.0000       2.169933        59.0469 
 562   0.0000       2.180250        59.3276 
 563   0.0000       2.185239        59.4634 
 564   0.0000       2.193530        59.6890 
 565   0.0000       2.198265        59.8178 
 566   0.0000       2.205967        60.0274 
 567   0.0000       2.213888        60.2430 
 568   0.0000       2.218663        60.3729 
 569   0.0000       2.229702        60.6733 
 570   0.0000       2.231624        60.7256 
 571   0.0000       2.243827        61.0576 
 572   0.0000       2.248129        61.1747 
 573   0.0000       2.254118        61.3377 
 574   0.0000       2.256826        61.4114 
 575   0.0000       2.264479        61.6196 
 576   0.0000       2.271579        61.8128 
 577   0.0000       2.274010        61.8790 
 578   0.0000       2.298098        62.5344 
 579   0.0000       2.303384        62.6783 
 580   0.0000       2.307814        62.7988 
 581   0.0000       2.321507        63.1714 
 582   0.0000       2.327977        63.3475 
 583   0.0000       2.329618        63.3921 
 584   0.0000       2.334095        63.5139 
 585   0.0000       2.345625        63.8277 
 586   0.0000       2.349463        63.9321 
 587   0.0000       2.352536        64.0158 
 588   0.0000       2.366254        64.3890 
 589   0.0000       2.378786        64.7301 
 590   0.0000       2.383930        64.8700 
 591   0.0000       2.391410        65.0736 
 592   0.0000       2.398301        65.2611 
 593   0.0000       2.404841        65.4390 
 594   0.0000       2.409862        65.5757 
 595   0.0000       2.412545        65.6487 
 596   0.0000       2.414627        65.7053 
 597   0.0000       2.429650        66.1141 
 598   0.0000       2.436345        66.2963 
 599   0.0000       2.444824        66.5270 
 600   0.0000       2.457380        66.8687 
 601   0.0000       2.470845        67.2351 
 602   0.0000       2.474813        67.3431 
 603   0.0000       2.481140        67.5152 
 604   0.0000       2.493274        67.8454 
 605   0.0000       2.506159        68.1961 
 606   0.0000       2.521157        68.6042 
 607   0.0000       2.527935        68.7886 
 608   0.0000       2.534363        68.9635 
 609   0.0000       2.538237        69.0689 
 610   0.0000       2.558226        69.6129 
 611   0.0000       2.558936        69.6322 
 612   0.0000       2.574751        70.0625 
 613   0.0000       2.591749        70.5251 
 614   0.0000       2.607661        70.9581 
 615   0.0000       2.619882        71.2906 
 616   0.0000       2.634807        71.6967 
 617   0.0000       2.638470        71.7964 
 618   0.0000       2.648960        72.0819 
 619   0.0000       2.660754        72.4028 
 620   0.0000       2.665316        72.5269 
 621   0.0000       2.675285        72.7982 
 622   0.0000       2.678795        72.8937 
 623   0.0000       2.687337        73.1262 
 624   0.0000       2.701556        73.5131 
 625   0.0000       2.709211        73.7214 
 626   0.0000       2.718972        73.9870 
 627   0.0000       2.725495        74.1645 
 628   0.0000       2.746034        74.7234 
 629   0.0000       2.749433        74.8159 
 630   0.0000       2.760042        75.1046 
 631   0.0000       2.768367        75.3311 
 632   0.0000       2.773547        75.4721 
 633   0.0000       2.780998        75.6748 
 634   0.0000       2.789133        75.8962 
 635   0.0000       2.809129        76.4403 
 636   0.0000       2.820105        76.7389 
 637   0.0000       2.826267        76.9066 
 638   0.0000       2.838498        77.2394 
 639   0.0000       2.859454        77.8097 
 640   0.0000       2.872179        78.1560 
 641   0.0000       2.880847        78.3918 
 642   0.0000       2.891168        78.6727 
 643   0.0000       2.908744        79.1510 
 644   0.0000       2.914356        79.3036 
 645   0.0000       2.927501        79.6614 
 646   0.0000       2.942013        80.0563 
 647   0.0000       2.947845        80.2149 
 648   0.0000       2.961878        80.5968 
 649   0.0000       2.972890        80.8964 
 650   0.0000       2.993661        81.4617 
 651   0.0000       2.996251        81.5321 
 652   0.0000       3.045110        82.8617 
 653   0.0000       3.052763        83.0699 
 654   0.0000       3.059230        83.2459 
 655   0.0000       3.087322        84.0103 
 656   0.0000       3.096931        84.2718 
 657   0.0000       3.100047        84.3566 
 658   0.0000       3.117222        84.8239 
 659   0.0000       3.132443        85.2381 
 660   0.0000       3.144372        85.5627 
 661   0.0000       3.166585        86.1672 
 662   0.0000       3.180080        86.5344 
 663   0.0000       3.183265        86.6210 
 664   0.0000       3.184148        86.6451 
 665   0.0000       3.197069        86.9967 
 666   0.0000       3.213052        87.4316 
 667   0.0000       3.226243        87.7905 
 668   0.0000       3.231485        87.9332 
 669   0.0000       3.244944        88.2994 
 670   0.0000       3.253632        88.5358 
 671   0.0000       3.260256        88.7161 
 672   0.0000       3.269711        88.9734 
 673   0.0000       3.283575        89.3506 
 674   0.0000       3.294133        89.6379 
 675   0.0000       3.303819        89.9015 
 676   0.0000       3.308520        90.0294 
 677   0.0000       3.324845        90.4736 
 678   0.0000       3.327205        90.5379 
 679   0.0000       3.331817        90.6633 
 680   0.0000       3.340125        90.8894 
 681   0.0000       3.353022        91.2404 
 682   0.0000       3.359804        91.4249 
 683   0.0000       3.369210        91.6809 
 684   0.0000       3.390681        92.2651 
 685   0.0000       3.392688        92.3197 
 686   0.0000       3.395705        92.4018 
 687   0.0000       3.399346        92.5009 
 688   0.0000       3.427128        93.2569 
 689   0.0000       3.437191        93.5307 
 690   0.0000       3.447679        93.8161 
 691   0.0000       3.449990        93.8790 
 692   0.0000       3.460268        94.1587 
 693   0.0000       3.470717        94.4430 
 694   0.0000       3.481388        94.7334 
 695   0.0000       3.484600        94.8208 
 696   0.0000       3.499470        95.2254 
 697   0.0000       3.502348        95.3037 
 698   0.0000       3.509833        95.5074 
 699   0.0000       3.514590        95.6369 
 700   0.0000       3.531768        96.1043 
 701   0.0000       3.540602        96.3447 
 702   0.0000       3.542833        96.4054 
 703   0.0000       3.553638        96.6994 
 704   0.0000       3.563753        96.9747 
 705   0.0000       3.568735        97.1102 
 706   0.0000       3.578057        97.3639 
 707   0.0000       3.582770        97.4921 
 708   0.0000       3.598933        97.9320 
 709   0.0000       3.600942        97.9866 
 710   0.0000       3.615623        98.3861 
 711   0.0000       3.618989        98.4777 
 712   0.0000       3.628143        98.7268 
 713   0.0000       3.637321        98.9765 
 714   0.0000       3.644790        99.1798 
 715   0.0000       3.666064        99.7587 
 716   0.0000       3.670378        99.8761 
 717   0.0000       3.671056        99.8945 
 718   0.0000       3.681427       100.1767 
 719   0.0000       3.690386       100.4205 
 720   0.0000       3.700499       100.6957 
 721   0.0000       3.705739       100.8383 
 722   0.0000       3.712333       101.0177 
 723   0.0000       3.714685       101.0817 
 724   0.0000       3.725374       101.3726 
 725   0.0000       3.728055       101.4455 
 726   0.0000       3.747656       101.9789 
 727   0.0000       3.756088       102.2083 
 728   0.0000       3.759163       102.2920 
 729   0.0000       3.762103       102.3720 
 730   0.0000       3.771341       102.6234 
 731   0.0000       3.774436       102.7076 
 732   0.0000       3.788068       103.0786 
 733   0.0000       3.790639       103.1485 
 734   0.0000       3.798712       103.3682 
 735   0.0000       3.804297       103.5202 
 736   0.0000       3.818480       103.9061 
 737   0.0000       3.825893       104.1078 
 738   0.0000       3.832501       104.2877 
 739   0.0000       3.840785       104.5131 
 740   0.0000       3.846495       104.6684 
 741   0.0000       3.851083       104.7933 
 742   0.0000       3.857203       104.9598 
 743   0.0000       3.862586       105.1063 
 744   0.0000       3.872978       105.3891 
 745   0.0000       3.875672       105.4624 
 746   0.0000       3.887299       105.7788 
 747   0.0000       3.899761       106.1179 
 748   0.0000       3.901174       106.1564 
 749   0.0000       3.907939       106.3404 
 750   0.0000       3.915356       106.5422 
 751   0.0000       3.920241       106.6752 
 752   0.0000       3.928944       106.9120 
 753   0.0000       3.932491       107.0085 
 754   0.0000       3.938460       107.1709 
 755   0.0000       3.944034       107.3226 
 756   0.0000       3.946205       107.3817 
 757   0.0000       3.951495       107.5257 
 758   0.0000       3.963004       107.8388 
 759   0.0000       3.972299       108.0917 
 760   0.0000       3.977390       108.2303 
 761   0.0000       3.989113       108.5493 
 762   0.0000       3.998163       108.7955 
 763   0.0000       4.008302       109.0714 
 764   0.0000       4.012327       109.1810 
 765   0.0000       4.016096       109.2835 
 766   0.0000       4.026427       109.5647 
 767   0.0000       4.031686       109.7078 
 768   0.0000       4.037754       109.8729 
 769   0.0000       4.050019       110.2066 
 770   0.0000       4.058752       110.4443 
 771   0.0000       4.059890       110.4752 
 772   0.0000       4.066982       110.6682 
 773   0.0000       4.076760       110.9343 
 774   0.0000       4.086285       111.1935 
 775   0.0000       4.089001       111.2674 
 776   0.0000       4.094910       111.4282 
 777   0.0000       4.106007       111.7301 
 778   0.0000       4.116114       112.0052 
 779   0.0000       4.120985       112.1377 
 780   0.0000       4.134825       112.5143 
 781   0.0000       4.138571       112.6162 
 782   0.0000       4.146687       112.8371 
 783   0.0000       4.158882       113.1689 
 784   0.0000       4.161500       113.2402 
 785   0.0000       4.180470       113.7564 
 786   0.0000       4.186901       113.9314 
 787   0.0000       4.189243       113.9951 
 788   0.0000       4.203524       114.3837 
 789   0.0000       4.208437       114.5174 
 790   0.0000       4.225301       114.9763 
 791   0.0000       4.230221       115.1102 
 792   0.0000       4.239528       115.3634 
 793   0.0000       4.250433       115.6602 
 794   0.0000       4.259637       115.9106 
 795   0.0000       4.262307       115.9833 
 796   0.0000       4.271355       116.2295 
 797   0.0000       4.274709       116.3208 
 798   0.0000       4.279937       116.4630 
 799   0.0000       4.284708       116.5928 
 800   0.0000       4.293911       116.8433 
 801   0.0000       4.311642       117.3257 
 802   0.0000       4.315488       117.4304 
 803   0.0000       4.320392       117.5639 
 804   0.0000       4.329965       117.8243 
 805   0.0000       4.349828       118.3648 
 806   0.0000       4.354691       118.4972 
 807   0.0000       4.367911       118.8569 
 808   0.0000       4.375360       119.0596 
 809   0.0000       4.386612       119.3658 
 810   0.0000       4.395439       119.6060 
 811   0.0000       4.407096       119.9232 
 812   0.0000       4.413594       120.1000 
 813   0.0000       4.424563       120.3985 
 814   0.0000       4.431222       120.5797 
 815   0.0000       4.442550       120.8879 
 816   0.0000       4.445833       120.9773 
 817   0.0000       4.456536       121.2685 
 818   0.0000       4.470519       121.6490 
 819   0.0000       4.476930       121.8235 
 820   0.0000       4.482196       121.9668 
 821   0.0000       4.496986       122.3692 
 822   0.0000       4.503496       122.5464 
 823   0.0000       4.505790       122.6088 
 824   0.0000       4.513719       122.8245 
 825   0.0000       4.523412       123.0883 
 826   0.0000       4.539584       123.5284 
 827   0.0000       4.546268       123.7103 
 828   0.0000       4.554285       123.9284 
 829   0.0000       4.560950       124.1098 
 830   0.0000       4.579543       124.6157 
 831   0.0000       4.589760       124.8937 
 832   0.0000       4.594740       125.0292 
 833   0.0000       4.613508       125.5399 
 834   0.0000       4.626996       125.9070 
 835   0.0000       4.639719       126.2532 
 836   0.0000       4.646951       126.4500 
 837   0.0000       4.667139       126.9993 
 838   0.0000       4.670695       127.0961 
 839   0.0000       4.675720       127.2328 
 840   0.0000       4.679089       127.3245 
 841   0.0000       4.694495       127.7437 
 842   0.0000       4.699263       127.8734 
 843   0.0000       4.704839       128.0252 
 844   0.0000       4.732750       128.7847 
 845   0.0000       4.745850       129.1411 
 846   0.0000       4.775051       129.9358 
 847   0.0000       4.779992       130.0702 
 848   0.0000       4.781630       130.1148 
 849   0.0000       4.791303       130.3780 
 850   0.0000       4.812399       130.9520 
 851   0.0000       4.817277       131.0848 
 852   0.0000       4.836499       131.6078 
 853   0.0000       4.841181       131.7352 
 854   0.0000       4.841841       131.7532 
 855   0.0000       4.845147       131.8432 
 856   0.0000       4.869883       132.5163 
 857   0.0000       4.874582       132.6441 
 858   0.0000       4.889649       133.0541 
 859   0.0000       4.897996       133.2813 
 860   0.0000       4.911006       133.6353 
 861   0.0000       4.920786       133.9014 
 862   0.0000       4.939558       134.4122 
 863   0.0000       4.945978       134.5869 
 864   0.0000       4.951885       134.7476 
 865   0.0000       4.964452       135.0896 
 866   0.0000       4.974183       135.3544 
 867   0.0000       4.976233       135.4102 
 868   0.0000       5.004374       136.1759 
 869   0.0000       5.009124       136.3052 
 870   0.0000       5.021758       136.6490 
 871   0.0000       5.030354       136.8829 
 872   0.0000       5.044059       137.2558 
 873   0.0000       5.053624       137.5161 
 874   0.0000       5.066822       137.8752 
 875   0.0000       5.090100       138.5087 
 876   0.0000       5.093320       138.5963 
 877   0.0000       5.103232       138.8660 
 878   0.0000       5.114226       139.1652 
 879   0.0000       5.125758       139.4790 
 880   0.0000       5.143191       139.9533 
 881   0.0000       5.160026       140.4114 
 882   0.0000       5.169904       140.6802 
 883   0.0000       5.182319       141.0181 
 884   0.0000       5.189537       141.2145 
 885   0.0000       5.218971       142.0154 
 886   0.0000       5.229407       142.2994 
 887   0.0000       5.236848       142.5019 
 888   0.0000       5.248467       142.8181 
 889   0.0000       5.251000       142.8870 
 890   0.0000       5.260737       143.1519 
 891   0.0000       5.276136       143.5710 
 892   0.0000       5.286222       143.8454 
 893   0.0000       5.309796       144.4869 
 894   0.0000       5.315313       144.6370 
 895   0.0000       5.329200       145.0149 
 896   0.0000       5.337982       145.2539 
 897   0.0000       5.353821       145.6849 
 898   0.0000       5.371833       146.1750 
 899   0.0000       5.381143       146.4284 
 900   0.0000       5.398416       146.8984 
 901   0.0000       5.402799       147.0176 
 902   0.0000       5.413387       147.3057 
 903   0.0000       5.421445       147.5250 
 904   0.0000       5.428480       147.7164 
 905   0.0000       5.446034       148.1941 
 906   0.0000       5.447626       148.2374 
 907   0.0000       5.457404       148.5035 
 908   0.0000       5.467824       148.7870 
 909   0.0000       5.481457       149.1580 
 910   0.0000       5.495023       149.5272 
 911   0.0000       5.510910       149.9595 
 912   0.0000       5.535212       150.6208 
 913   0.0000       5.551158       151.0547 
 914   0.0000       5.561545       151.3373 
 915   0.0000       5.571798       151.6163 
 916   0.0000       5.587257       152.0370 
 917   0.0000       5.604333       152.5017 
 918   0.0000       5.607899       152.5987 
 919   0.0000       5.615531       152.8064 
 920   0.0000       5.619943       152.9264 
 921   0.0000       5.635696       153.3551 
 922   0.0000       5.643063       153.5556 
 923   0.0000       5.660155       154.0207 
 924   0.0000       5.671921       154.3408 
 925   0.0000       5.675646       154.4422 
 926   0.0000       5.693885       154.9385 
 927   0.0000       5.699913       155.1025 
 928   0.0000       5.717790       155.5890 
 929   0.0000       5.726794       155.8340 
 930   0.0000       5.745788       156.3508 
 931   0.0000       5.754190       156.5795 
 932   0.0000       5.764811       156.8685 
 933   0.0000       5.771707       157.0561 
 934   0.0000       5.776021       157.1735 
 935   0.0000       5.790348       157.5634 
 936   0.0000       5.814320       158.2157 
 937   0.0000       5.835900       158.8029 
 938   0.0000       5.839226       158.8934 
 939   0.0000       5.845067       159.0524 
 940   0.0000       5.851966       159.2401 
 941   0.0000       5.871021       159.7586 
 942   0.0000       5.905785       160.7046 
 943   0.0000       5.915212       160.9611 
 944   0.0000       5.932068       161.4198 
 945   0.0000       5.987204       162.9201 
 946   0.0000       6.065883       165.0611 
 947   0.0000       6.084950       165.5799 
 948   0.0000       6.109719       166.2539 
 949   0.0000       6.123615       166.6320 
 950   0.0000       6.144503       167.2004 
 951   0.0000       6.174379       168.0134 
 952   0.0000       6.190380       168.4488 
 953   0.0000       6.201328       168.7467 
 954   0.0000       6.214260       169.0986 
 955   0.0000       6.222217       169.3151 
 956   0.0000       6.229852       169.5229 
 957   0.0000       6.253894       170.1771 
 958   0.0000       6.275684       170.7701 
 959   0.0000       6.320396       171.9867 
 960   0.0000       6.326509       172.1531 
 961   0.0000       6.344457       172.6414 
 962   0.0000       6.349668       172.7832 
 963   0.0000       6.377145       173.5309 
 964   0.0000       6.393530       173.9768 
 965   0.0000       6.411560       174.4674 
 966   0.0000       6.442938       175.3213 
 967   0.0000       6.462274       175.8474 
 968   0.0000       6.483887       176.4355 
 969   0.0000       6.502341       176.9377 
 970   0.0000       6.639850       180.6795 
 971   0.0000       6.746988       183.5949 
 972   0.0000       6.838626       186.0885 
 973   0.0000       6.850976       186.4245 
 974   0.0000       6.885911       187.3752 
 975   0.0000       6.924594       188.4278 
 976   0.0000       6.937922       188.7905 
 977   0.0000       6.963177       189.4777 
 978   0.0000       6.976623       189.8436 
 979   0.0000       6.986511       190.1126 
 980   0.0000       6.996762       190.3916 
 981   0.0000       7.040894       191.5925 
 982   0.0000       7.092214       192.9890 
 983   0.0000       7.094210       193.0433 
 984   0.0000       7.161667       194.8789 
 985   0.0000       7.206624       196.1022 
 986   0.0000       7.340168       199.7361 
 987   0.0000       7.381377       200.8575 
 988   0.0000       7.481524       203.5826 
 989   0.0000       7.541424       205.2126 
 990   0.0000       7.577092       206.1832 
 991   0.0000       7.668401       208.6678 
 992   0.0000       7.713907       209.9061 
 993   0.0000       7.789916       211.9744 
 994   0.0000       7.845441       213.4853 
 995   0.0000       7.894522       214.8209 
 996   0.0000       8.057246       219.2488 
 997   0.0000       8.127191       221.1521 
 998   0.0000       8.374287       227.8759 
 999   0.0000       9.440730       256.8953 
 1000   0.0000       9.457975       257.3646 
 1001   0.0000       9.480022       257.9645 
 1002   0.0000       9.486821       258.1495 
 1003   0.0000       9.497350       258.4360 
 1004   0.0000       9.536313       259.4963 
 1005   0.0000       9.774735       265.9841 
 1006   0.0000      10.107123       275.0288 
 1007   0.0000      10.133973       275.7594 
 1008   0.0000      10.152920       276.2750 
 1009   0.0000      10.222797       278.1765 
 1010   0.0000      10.233427       278.4657 
 1011   0.0000      10.256326       279.0888 
 1012   0.0000      10.410187       283.2756 
 1013   0.0000      10.446510       284.2640 
 1014   0.0000      10.577808       287.8368 
 1015   0.0000      16.285621       443.1543 
 1016   0.0000      17.726602       482.3654 
 1017   0.0000      18.464414       502.4422 
 1018   0.0000      18.556402       504.9454 
 1019   0.0000      18.741553       509.9836 
 1020   0.0000      18.964214       516.0425 
 1021   0.0000      19.095261       519.6085 
 1022   0.0000      20.097235       546.8736 
 1023   0.0000      20.428124       555.8775 
 1024   0.0000      21.946593       597.1971 

                 SPIN DOWN ORBITALS
  NO   OCC          E(Eh)            E(eV) 
   0   1.0000    -261.543508     -7116.9607 
   1   1.0000    -104.774139     -2851.0493 
   2   1.0000    -104.771117     -2850.9670 
   3   1.0000    -104.768759     -2850.9029 
   4   1.0000     -32.052898      -872.2037 
   5   1.0000     -27.530992      -749.1564 
   6   1.0000     -27.530827      -749.1519 
   7   1.0000     -27.530285      -749.1371 
   8   1.0000     -20.539035      -558.8956 
   9   1.0000     -11.385989      -309.8285 
  10   1.0000     -11.368838      -309.3618 
  11   1.0000     -11.286731      -307.1276 
  12   1.0000     -11.284034      -307.0542 
  13   1.0000     -11.270536      -306.6869 
  14   1.0000     -11.257086      -306.3209 
  15   1.0000     -11.248215      -306.0795 
  16   1.0000     -11.239409      -305.8399 
  17   1.0000     -10.500603      -285.7359 
  18   1.0000     -10.497562      -285.6532 
  19   1.0000     -10.495226      -285.5896 
  20   1.0000      -7.966438      -216.7778 
  21   1.0000      -7.966028      -216.7667 
  22   1.0000      -7.965947      -216.7644 
  23   1.0000      -7.963533      -216.6988 
  24   1.0000      -7.962887      -216.6812 
  25   1.0000      -7.962797      -216.6787 
  26   1.0000      -7.961189      -216.6350 
  27   1.0000      -7.960469      -216.6154 
  28   1.0000      -7.960396      -216.6134 
  29   1.0000      -4.128109      -112.3316 
  30   1.0000      -2.649959       -72.1091 
  31   1.0000      -2.649883       -72.1070 
  32   1.0000      -2.649028       -72.0837 
  33   1.0000      -1.364926       -37.1415 
  34   1.0000      -1.186607       -32.2892 
  35   1.0000      -1.082565       -29.4581 
  36   1.0000      -1.042773       -28.3753 
  37   1.0000      -1.031668       -28.0731 
  38   1.0000      -1.020406       -27.7667 
  39   1.0000      -1.017092       -27.6765 
  40   1.0000      -1.009616       -27.4730 
  41   1.0000      -0.973481       -26.4898 
  42   1.0000      -0.932956       -25.3870 
  43   1.0000      -0.795640       -21.6505 
  44   1.0000      -0.770863       -20.9762 
  45   1.0000      -0.705924       -19.2092 
  46   1.0000      -0.691361       -18.8129 
  47   1.0000      -0.674877       -18.3643 
  48   1.0000      -0.651446       -17.7268 
  49   1.0000      -0.642028       -17.4705 
  50   1.0000      -0.626919       -17.0593 
  51   1.0000      -0.600903       -16.3514 
  52   1.0000      -0.595854       -16.2140 
  53   1.0000      -0.592885       -16.1332 
  54   1.0000      -0.580770       -15.8036 
  55   1.0000      -0.577322       -15.7097 
  56   1.0000      -0.559200       -15.2166 
  57   1.0000      -0.556421       -15.1410 
  58   1.0000      -0.543334       -14.7849 
  59   1.0000      -0.528718       -14.3872 
  60   1.0000      -0.527352       -14.3500 
  61   1.0000      -0.501228       -13.6391 
  62   1.0000      -0.469985       -12.7890 
  63   1.0000      -0.463892       -12.6231 
  64   1.0000      -0.457111       -12.4386 
  65   1.0000      -0.435342       -11.8463 
  66   1.0000      -0.432229       -11.7615 
  67   1.0000      -0.430798       -11.7226 
  68   1.0000      -0.423896       -11.5348 
  69   1.0000      -0.410465       -11.1693 
  70   1.0000      -0.398373       -10.8403 
  71   1.0000      -0.391862       -10.6631 
  72   0.0000       0.006356         0.1730 
  73   0.0000       0.015564         0.4235 
  74   0.0000       0.020095         0.5468 
  75   0.0000       0.020460         0.5568 
  76   0.0000       0.030465         0.8290 
  77   0.0000       0.037611         1.0234 
  78   0.0000       0.039237         1.0677 
  79   0.0000       0.044224         1.2034 
  80   0.0000       0.045264         1.2317 
  81   0.0000       0.047011         1.2792 
  82   0.0000       0.056719         1.5434 
  83   0.0000       0.058945         1.6040 
  84   0.0000       0.061552         1.6749 
  85   0.0000       0.065318         1.7774 
  86   0.0000       0.066217         1.8019 
  87   0.0000       0.071208         1.9377 
  88   0.0000       0.074095         2.0162 
  89   0.0000       0.077355         2.1049 
  90   0.0000       0.088289         2.4025 
  91   0.0000       0.089474         2.4347 
  92   0.0000       0.093942         2.5563 
  93   0.0000       0.095360         2.5949 
  94   0.0000       0.099110         2.6969 
  95   0.0000       0.099872         2.7177 
  96   0.0000       0.109875         2.9899 
  97   0.0000       0.113202         3.0804 
  98   0.0000       0.120612         3.2820 
  99   0.0000       0.121746         3.3129 
 100   0.0000       0.124145         3.3782 
 101   0.0000       0.125621         3.4183 
 102   0.0000       0.126673         3.4470 
 103   0.0000       0.127824         3.4783 
 104   0.0000       0.130073         3.5395 
 105   0.0000       0.131296         3.5728 
 106   0.0000       0.133594         3.6353 
 107   0.0000       0.135844         3.6965 
 108   0.0000       0.138767         3.7760 
 109   0.0000       0.140003         3.8097 
 110   0.0000       0.140194         3.8149 
 111   0.0000       0.141635         3.8541 
 112   0.0000       0.146460         3.9854 
 113   0.0000       0.149062         4.0562 
 114   0.0000       0.152638         4.1535 
 115   0.0000       0.156307         4.2533 
 116   0.0000       0.158447         4.3116 
 117   0.0000       0.165098         4.4925 
 118   0.0000       0.165752         4.5103 
 119   0.0000       0.168433         4.5833 
 120   0.0000       0.169394         4.6094 
 121   0.0000       0.173194         4.7128 
 122   0.0000       0.175725         4.7817 
 123   0.0000       0.178926         4.8688 
 124   0.0000       0.184241         5.0135 
 125   0.0000       0.189765         5.1638 
 126   0.0000       0.191413         5.2086 
 127   0.0000       0.199208         5.4207 
 128   0.0000       0.199643         5.4326 
 129   0.0000       0.202772         5.5177 
 130   0.0000       0.206491         5.6189 
 131   0.0000       0.209611         5.7038 
 132   0.0000       0.210871         5.7381 
 133   0.0000       0.216975         5.9042 
 134   0.0000       0.219319         5.9680 
 135   0.0000       0.220634         6.0038 
 136   0.0000       0.227688         6.1957 
 137   0.0000       0.229128         6.2349 
 138   0.0000       0.231430         6.2975 
 139   0.0000       0.234579         6.3832 
 140   0.0000       0.236915         6.4468 
 141   0.0000       0.243450         6.6246 
 142   0.0000       0.245147         6.6708 
 143   0.0000       0.249876         6.7995 
 144   0.0000       0.250746         6.8231 
 145   0.0000       0.253519         6.8986 
 146   0.0000       0.255231         6.9452 
 147   0.0000       0.260607         7.0915 
 148   0.0000       0.264052         7.1852 
 149   0.0000       0.272922         7.4266 
 150   0.0000       0.275263         7.4903 
 151   0.0000       0.277895         7.5619 
 152   0.0000       0.278922         7.5899 
 153   0.0000       0.285159         7.7596 
 154   0.0000       0.289933         7.8895 
 155   0.0000       0.290223         7.8974 
 156   0.0000       0.300321         8.1721 
 157   0.0000       0.302480         8.2309 
 158   0.0000       0.305316         8.3081 
 159   0.0000       0.308172         8.3858 
 160   0.0000       0.309665         8.4264 
 161   0.0000       0.316605         8.6153 
 162   0.0000       0.323721         8.8089 
 163   0.0000       0.326700         8.8900 
 164   0.0000       0.332199         9.0396 
 165   0.0000       0.333144         9.0653 
 166   0.0000       0.336236         9.1495 
 167   0.0000       0.342203         9.3118 
 168   0.0000       0.343489         9.3468 
 169   0.0000       0.348420         9.4810 
 170   0.0000       0.351984         9.5780 
 171   0.0000       0.356880         9.7112 
 172   0.0000       0.359877         9.7927 
 173   0.0000       0.361948         9.8491 
 174   0.0000       0.364517         9.9190 
 175   0.0000       0.369053        10.0425 
 176   0.0000       0.371538        10.1101 
 177   0.0000       0.374391        10.1877 
 178   0.0000       0.380109        10.3433 
 179   0.0000       0.384952        10.4751 
 180   0.0000       0.386697        10.5225 
 181   0.0000       0.391656        10.6575 
 182   0.0000       0.392301        10.6750 
 183   0.0000       0.394032        10.7222 
 184   0.0000       0.397920        10.8280 
 185   0.0000       0.400822        10.9069 
 186   0.0000       0.402402        10.9499 
 187   0.0000       0.404024        10.9941 
 188   0.0000       0.406814        11.0700 
 189   0.0000       0.416216        11.3258 
 190   0.0000       0.418996        11.4015 
 191   0.0000       0.419819        11.4239 
 192   0.0000       0.426723        11.6117 
 193   0.0000       0.429371        11.6838 
 194   0.0000       0.431567        11.7435 
 195   0.0000       0.435402        11.8479 
 196   0.0000       0.438583        11.9344 
 197   0.0000       0.444204        12.0874 
 198   0.0000       0.449721        12.2375 
 199   0.0000       0.453010        12.3270 
 200   0.0000       0.453466        12.3394 
 201   0.0000       0.455090        12.3836 
 202   0.0000       0.464791        12.6476 
 203   0.0000       0.467975        12.7343 
 204   0.0000       0.471646        12.8341 
 205   0.0000       0.475292        12.9334 
 206   0.0000       0.478644        13.0246 
 207   0.0000       0.481710        13.1080 
 208   0.0000       0.484842        13.1932 
 209   0.0000       0.487956        13.2780 
 210   0.0000       0.490012        13.3339 
 211   0.0000       0.490664        13.3516 
 212   0.0000       0.494362        13.4523 
 213   0.0000       0.497726        13.5438 
 214   0.0000       0.500155        13.6099 
 215   0.0000       0.502314        13.6687 
 216   0.0000       0.504108        13.7175 
 217   0.0000       0.509346        13.8600 
 218   0.0000       0.510083        13.8801 
 219   0.0000       0.515908        14.0386 
 220   0.0000       0.519038        14.1237 
 221   0.0000       0.525322        14.2947 
 222   0.0000       0.527587        14.3564 
 223   0.0000       0.528906        14.3923 
 224   0.0000       0.531264        14.4564 
 225   0.0000       0.534547        14.5458 
 226   0.0000       0.539096        14.6696 
 227   0.0000       0.544913        14.8278 
 228   0.0000       0.547936        14.9101 
 229   0.0000       0.554342        15.0844 
 230   0.0000       0.555458        15.1148 
 231   0.0000       0.559546        15.2260 
 232   0.0000       0.560099        15.2411 
 233   0.0000       0.565090        15.3769 
 234   0.0000       0.569256        15.4902 
 235   0.0000       0.572260        15.5720 
 236   0.0000       0.574584        15.6352 
 237   0.0000       0.577155        15.7052 
 238   0.0000       0.583426        15.8758 
 239   0.0000       0.586138        15.9496 
 240   0.0000       0.592215        16.1150 
 241   0.0000       0.595387        16.2013 
 242   0.0000       0.599246        16.3063 
 243   0.0000       0.602369        16.3913 
 244   0.0000       0.607522        16.5315 
 245   0.0000       0.609154        16.5759 
 246   0.0000       0.613315        16.6892 
 247   0.0000       0.617485        16.8026 
 248   0.0000       0.619282        16.8515 
 249   0.0000       0.625681        17.0257 
 250   0.0000       0.631101        17.1731 
 251   0.0000       0.633232        17.2311 
 252   0.0000       0.635817        17.3014 
 253   0.0000       0.641561        17.4577 
 254   0.0000       0.643535        17.5115 
 255   0.0000       0.648121        17.6363 
 256   0.0000       0.649557        17.6753 
 257   0.0000       0.656318        17.8593 
 258   0.0000       0.659425        17.9439 
 259   0.0000       0.661645        18.0043 
 260   0.0000       0.667213        18.1558 
 261   0.0000       0.670940        18.2572 
 262   0.0000       0.679063        18.4782 
 263   0.0000       0.682602        18.5745 
 264   0.0000       0.684063        18.6143 
 265   0.0000       0.694032        18.8856 
 266   0.0000       0.695699        18.9309 
 267   0.0000       0.700191        19.0532 
 268   0.0000       0.702961        19.1285 
 269   0.0000       0.706146        19.2152 
 270   0.0000       0.709802        19.3147 
 271   0.0000       0.712900        19.3990 
 272   0.0000       0.718989        19.5647 
 273   0.0000       0.729407        19.8482 
 274   0.0000       0.730593        19.8804 
 275   0.0000       0.737718        20.0743 
 276   0.0000       0.741580        20.1794 
 277   0.0000       0.741985        20.1904 
 278   0.0000       0.745353        20.2821 
 279   0.0000       0.751499        20.4493 
 280   0.0000       0.759506        20.6672 
 281   0.0000       0.762173        20.7398 
 282   0.0000       0.765284        20.8244 
 283   0.0000       0.774918        21.0866 
 284   0.0000       0.782835        21.3020 
[...]
  | Av. % of trace(Dpq) retained        ...  99.515523155138
  | sigma^2 in % of trace(Dij) retained ...   8.92e+00
  | sigma^2 in % of trace(Dip) retained ...   1.95e+01
  | sigma^2 in % of trace(Dpq) retained ...   1.32e-01
  | Av. % of trace(Di) retained         ...  99.998506372737
  | Av. % of trace(Dp) retained         ...  99.999999058620
  | sigma^2 in % of trace(Di) retained  ...   7.56e-07
  | sigma^2 in % of trace(Dp) retained  ...   6.77e-13
 Distributions of % trace(Dij) recovered:
  |       >= 99.9  ...   105 ( 20.3 % of all IJ-pairs)
  |   [80.0, 90.0) ...    36 (  7.0 % of all IJ-pairs)
  |   [90.0, 99.0) ...   281 ( 54.4 % of all IJ-pairs)
  |   [99.0, 99.9) ...    95 ( 18.4 % of all IJ-pairs)
 Distributions of % trace(Dip) recovered:
  |   [70.0, 80.0) ...     2 (  1.7 % of all IP-pairs)
  |   [80.0, 90.0) ...     7 (  5.9 % of all IP-pairs)
  |   [90.0, 99.0) ...    68 ( 57.1 % of all IP-pairs)
  |   [99.0, 99.9) ...    42 ( 35.3 % of all IP-pairs)
 Distributions of % trace(Dpq) recovered:
  |       >= 99.9  ...     5 ( 33.3 % of all PQ-pairs)
  |   [99.0, 99.9) ...    10 ( 66.7 % of all PQ-pairs)
 Distributions of % trace(Di) recovered :
  |       >= 99.9  ...    43 (100.0 % of all I-pairs )
 Distributions of % trace(Dp) recovered :
  |       >= 99.9  ...     5 (100.0 % of all P-pairs )

                       ===========================
                       1135 OF 1711 PAIRS ARE KEPT
                       ===========================

 Initial PAO correlation energy (all pairs)    ...  -2.6934553370 Eh
 Energy constituents in PAO basis (Eh):
  | Vijab(+0) ...  -2.2637118801
  | Viab (-1) ...  -0.1755050651
  | Vab  (-2) ...  -0.0573653413
  | Va   (-1) ...  -0.0000410865
  | Vija (+1) ...  -0.0729956078
  | Vij  (+2) ...  -0.0154949305
  | Via  (+0) ...  -0.1081831334
  | Vi   (+1) ...  -0.0001582924
 Initial PNO correlation energy                ...  -2.6589844492 Eh
 Energy constituents in PNO basis (Eh):
  | Vijab(+0) ...  -2.2452031479 (err=  0.0185087322)
  | Viab (-1) ...  -0.1612285325 (err=  0.0142765326)
  | Vab  (-2) ...  -0.0568963614 (err=  0.0004689799)
  | Va   (-1) ...  -0.0000235686 (err=  0.0000175179)
  | Vija (+1) ...  -0.0719533702 (err=  0.0010422376)
  | Vij  (+2) ...  -0.0154395521 (err=  0.0000553784)
  | Via  (+0) ...  -0.1080819320 (err=  0.0001012014)
  | Vi   (+1) ...  -0.0001579845 (err=  0.0000003079)
 Sum of total truncation errors ...   0.0344708878 Eh
  | Pair screening ...   0.0113321245 Eh
  | PNO truncation ...   0.0231387634 Eh

 UMP2 correlation energy (PAO) ...  -2.6886151835
  | alpha-alpha ...  -0.3867031017 (NP_aa=  928)
  | alpha-beta  ...  -1.9947561394 (NP_ab= 1686)
  | beta -beta  ...  -0.3071559424 (NP_bb=  725)
 UMP2 correlation energy (PNO) ...  -2.6537707739
  | alpha-alpha ...  -0.3746588345 (err=  0.0120442672, NP_aa=  603)
  | alpha-beta  ...  -1.9759961102 (err=  0.0187600292, NP_ab= 1110)
  | beta -beta  ...  -0.3031158292 (err=  0.0040401132, NP_bb=  474)
 Sum of total UMP2 truncation errors ...   0.0348444097 Eh
  | Pair screening ...   0.0113495962 Eh
  | PNO truncation ...   0.0234948135 Eh
 Timing for NEV-PNO construction (sec.)
  | Intermediate construction  ..           49.606
  | Amplitude construction     ..           69.586
  | Total time                 ..          119.192
 Making pair pair interaction lists ...      ok
 Total size for 2-ext PNO integrals ...     11.1 MB
Checking the number of SOMO/SOMO doubles PNOs ... 
 #Truncate: (72, 72)[171] -> [85] .. 
 #Truncate: (73, 73)[170] -> [85] .. 
 #Truncate: (74, 74)[170] -> [85] .. 
 #Truncate: (75, 75)[169] -> [85] .. 
 #Truncate: (76, 76)[169] -> [85] .. 

--------------------------------
LOCAL RI TRANSFORMATION (VABPAO)
--------------------------------

Number of PAOs:    1030
Basis functions:   1025 (343 shells)
Aux. functions:    2424 (644 shells)

Processing maps (0.0 sec)
Average map sizes:
   Aux shells -> PAOs           1030.0
   PAOs       -> AO shells       343.0

Calculating integrals (199.6 sec, 37370.165 MB)
Finished
-----------------------------
LOCAL RI TRANSFORMATION (IJV)
-----------------------------

Orbital window:      29 to 76
Basis functions:   1025 (343 shells)
Aux. functions:    2424 (644 shells)

Processing maps (0.0 sec)
Average map sizes:
   Aux shells -> MOs(i)           47.0
   Aux shells -> MOs(j)           48.0
   MOs        -> AO shells       338.7

Calculating integrals (23.3 sec, 41.775 MB)
Sorting integrals (0.3 sec, 41.748 MB)
Total time for the integral transformation: 23.7 sec


-------------------------------------
Pair Pair Term precalculation with     
RI-(ij|mn) and (im|jn) transformation  
ON THE FLY                             
-------------------------------------

   IBatch   1 (of   2)              ... done ( 1079.467 sec)
   IBatch   2 (of   2)              ... done ( 1241.913 sec)
Total EXT                           ...        2321.380 sec

---------------------
RI-PNO TRANSFORMATION
---------------------

Total Number of PNOs                   ... 35184
Total Number of IJ-PNOs                ... 30988
Total Number of IP-PNOs                ...  3247
Total Number of PQ-PNOs                ...   949
Total Number of IJ-pairs               ...   991
Total Number of PI-pairs               ...   119
Total Number of PQ-pairs               ...    25
Average number of PNOs per pair        ...    31
Maximal number of PNOs per pair        ...    85
>> Statistics for ij-pairs..
   #pairs with  1 -  5 PNOs   :    0
   #pairs with  6 - 10 PNOs   :    0
   #pairs with 11 - 15 PNOs   :   42
   #pairs with 16 - 20 PNOs   :  266
   #pairs with 21 - 25 PNOs   :  168
   #pairs with 26 - 30 PNOs   :  154
   #pairs with 31 - 35 PNOs   :   70
   #pairs with 36 - 40 PNOs   :   50
   #pairs with 41 - 45 PNOs   :   50
   #pairs with 46 - 50 PNOs   :   15
   #pairs with 51 - 55 PNOs   :   43
   #pairs with 56 - 60 PNOs   :   53
   #pairs with 61 - 65 PNOs   :   71
   #pairs with 66 - 70 PNOs   :    6
   #pairs with 71 - 75 PNOs   :    3
>> Statistics for ip-pairs..
   #pairs with  1 -  5 PNOs   :    0
   #pairs with  6 - 10 PNOs   :    3
   #pairs with 11 - 15 PNOs   :   15
   #pairs with 16 - 20 PNOs   :    4
   #pairs with 21 - 25 PNOs   :   24
   #pairs with 26 - 30 PNOs   :   13
   #pairs with 31 - 35 PNOs   :   48
   #pairs with 36 - 40 PNOs   :   12
   #pairs with 41 - 45 PNOs   :    0
   #pairs with 46 - 50 PNOs   :    0
>> Statistics for pq-pairs..
   #pairs with  1 -  5 PNOs   :    0
   #pairs with  6 - 10 PNOs   :    0
   #pairs with 11 - 15 PNOs   :    0
   #pairs with 16 - 20 PNOs   :    0
   #pairs with 21 - 25 PNOs   :   10
   #pairs with 26 - 30 PNOs   :   10
   #pairs with 31 - 35 PNOs   :    0
   #pairs with 36 - 40 PNOs   :    0
   #pairs with 41 - 45 PNOs   :    0
   #pairs with 46 - 50 PNOs   :    0
   #pairs with 81 - 85 PNOs   :    5

Generation of (ij|ab)[P] integrals            ... on
Generation of (ia|bc)[P],(ja|bc)[P] integrals ... on
Storage of 3 and 4 external integrals         ... on
Generation of ALL (ka|bc)[P] integrals        ... on
Keep RI integrals in memory                   ... off

Ibatch:  1 (of  1)
Starting 2-4 index PNO integral generation ... done

Timings:
Total PNO integral transformation time     ...       2376.812 sec
Size of the 3-external file                ...       288 MB
Size of the 4-external file                ...      1942 MB
Size of the IKJL file                      ...        19 MB
Size of the all 3-external file            ...      6913 MB
Size of the 1-external file                ...        22 MB

Size of the PAO/PNO coefficient matrices   ...     229.5 MB

Making pair/pair overlap matrices          ... done (  415.373 sec)
Size of the pair overlap file              ...    2512.0 MB
Total # unrestricted pairs ...       2187
  # of alpha-alpha pairs   ...        603
  # of alpha-beta pairs    ...       1110
  # of beta-beta pairs     ...        474
Constructing the guess amplitudes          ... done (    0.633 sec)

-------------------------
FINAL STARTUP INFORMATION
-------------------------

E(0)                                       ...  -3028.425273944
E(SL-UMP2 in NEV-PNO space)                ...     -2.689602854
Initial E(tot)                             ...  -3031.114876798
<T|T>                                      ...      0.534113621
Number of unrestricted pairs included      ... 2187
Total number of pairs                      ... 4095
----------------------------------------------------------
                     OPEN-SHELL COUPLED CLUSTER ITERATIONS
----------------------------------------------------------

Number of PNO amplitudes to be optimized        ...          2142914
Number of canonical amplitudes for strong pairs ...       1975318901
Untruncated number of canonical amplitudes      ...       3698645738

Iter       E(tot)           E(Corr)          Delta-E          Residual     Time
  0  -3031.122005086     -2.660899061      0.028703793      0.021946122 2202.82
                           *** Turning on DIIS ***
  1  -3031.235319886     -2.774213861     -0.113314800      0.009267497 2194.46
  2  -3031.299317227     -2.838211203     -0.063997342      0.008929850 2231.09
  3  -3031.320096654     -2.858990629     -0.020779426      0.003519165 2272.87
  4  -3031.327037433     -2.865931409     -0.006940780      0.002856590 2236.77
  5  -3031.330605559     -2.869499535     -0.003568126      0.002124882 2222.58
  6  -3031.331925520     -2.870819496     -0.001319961      0.000890875 2197.45
  7  -3031.332715131     -2.871609106     -0.000789611      0.000518530 2243.36
  8  -3031.332863910     -2.871757885     -0.000148779      0.000179546 2278.29
  9  -3031.332908700     -2.871802676     -0.000044791      0.000088636 2230.52
 10  -3031.332904217     -2.871798192      0.000004484      0.000058690 2240.45
 11  -3031.332913207     -2.871807182     -0.000008990      0.000030935 2255.00
 12  -3031.332918567     -2.871812543     -0.000005360      0.000016884 1960.94
 13  -3031.332920744     -2.871814720     -0.000002177      0.000009825 1922.22
               --- The CCSD iterations have converged ---

E(0)                                       ...  -3028.425273944
E(CORR)(strong-pairs)                      ...     -2.871814720
E(CORR)(weak-pairs)                        ...     -0.035832080
E(CORR)(corrected)                         ...     -2.907646800
E(TOT)                                     ...  -3031.332920744
Singles norm <S|S>**1/2                    ...      0.187641732 ( 0.062989019, 0.124652713)  
T1 diagnostic                              ...      0.019670198                              
<S**2>(linearized)                         ...      8.7507215 (ideal value:      8.7500000)

----------------------
LARGEST PNO AMPLITUDES
----------------------
  51b-> 76b  -1b-> -1b       0.056892
  45a-> 78a  45b-> 78b       0.055030
  45a-> 77a  45b-> 77b       0.054122
  30b-> 76b  -1b-> -1b       0.049669
  49b-> 74b  -1b-> -1b       0.047035
  49b-> 72b  -1b-> -1b       0.046211
  52b-> 76b  -1b-> -1b       0.045856
  63a-> 77a  63b-> 77b       0.044529
  67a-> 77a  67b-> 77b       0.044110
  49b-> 75b  -1b-> -1b       0.043483
  69a-> 77a  69b-> 77b       0.043292
  44a-> 78a  44b-> 78b       0.043149
  71a-> 77a  71b-> 77b       0.042931
  59a-> 77a  59b-> 77b       0.042782
  62a-> 77a  62b-> 77b       0.042330
  65a-> 77a  65b-> 77b       0.041917

Total # unrestricted pairs ...       1152
  # of alpha-alpha pairs   ...        325
  # of alpha-beta pairs    ...        576
  # of beta-beta pairs     ...        251

-------------------------------------------
DLPNO BASED TRIPLES CORRECTION
-------------------------------------------

Singles multiplier          ...  1.000000
Fragment selection                          .... not used
TCutTNO                     ... 1.000e-09
TCutMP2Pairs                ... 1.000e-05
TCutDOStrong                ... 2.000e-02
TCutMKNStrong               ... 1.000e-02
TCutDOWeak                  ... 4.000e-02
TCutMKNWeak                 ... 1.000e-01
NTCutTNO                    ... 1

Number of Triples that are to be computed         ...     35644

 . . . . . . . . .
10% done  
20% done  
30% done  
40% done  
50% done  
60% done  
70% done  
80% done  
90% done  
          Batch   1   done (  17426.805 sec)

Triples-Correction TCutTNO=   1.000e-09 (NWeakPairs = 0  1  2  3)  -0.116997577251   -0.001830028421    0.000000000000    0.000000000000
Triples-Correction  -0.118827605672

Triples timings:
Total time                      ... 18124.143 sec

Triples List generation         ...     0.000 sec
TNO generation                  ...   697.097 sec
Pair density generation         ...     0.088 sec
Look up tables                  ...     0.120 sec
Generating 3-index integrals    ... 11159.834 sec
Make 4-ind.int. from 3-ind.int  ...     3.975 sec
Projecting amplitudes (D + S)   ...  5992.084 sec
Sorting integrals for spin cases...    56.023 sec
Calculate W0/W1                 ...   173.717 sec
Energy contr. (sum over a,b,c)  ...    41.014 sec

Everything after 3-index        ...  6415.337 sec

Energy contribution AAA         ...    26.338 sec
Energy contribution AAB         ...   120.124 sec
Energy contribution ABB         ...   109.563 sec
Energy contribution BBB         ...    14.777 sec
prep                ...     3.339 sec
makeTTNO            ...  5931.326 sec
copyij              ...     0.134 sec
copyil              ...     4.350 sec
transposeij         ...     0.081 sec
newMatInDoubleProj  ...    57.038 sec
BlasInDoubleProj    ...  3206.701 sec
ProjSingles         ...    50.237 sec
ProjDoubles         ...  5941.847 sec
overall Doubles for projection      ... 3243692
used Doubles for projection         ... 3243692


Number of Triples   (0, 1, 2, 3 weak pairs; overall):  17364   12188       0       0  ( 29552)
Number of Atoms     (0, 1, 2, 3 weak pairs; overall):   20.5    14.8     0.0     0.0  (    29)
Number of PAOs      (0, 1, 2, 3 weak pairs; overall):  789.9   602.1     0.0     0.0  (  1025)
Number of AuxFcns   (0, 1, 2, 3 weak pairs; overall):  984.0   583.3     0.0     0.0  (  2424)
Number of TNOs (0, 1, 2, 3 weak pairs         ):   79.1    56.0     0.0     0.0
Aver. Number of NTNO, Atoms, PAOs, AuxFcns / Triples:  29552    69.5    18.2   712.5   818.7

Triples Correction (T)                     ...     -0.118827606
    alpha-alpha-alpha ... -0.003917372 (  3.3%)
    alpha-alpha-beta  ... -0.055794104 ( 47.0%)
    alpha-beta -beta  ... -0.054998943 ( 46.3%)
    beta -beta -beta  ... -0.004117187 (  3.5%)
Final correlation energy                   ...     -3.026474406
E(CCSD)                                    ...  -3031.332920744
E(CCSD(T))                                 ...  -3031.451748350

----------------------------
STATISTICS FOR PAIR-ENERGIES
----------------------------
Minimum, maximum and average ratios of UMP and CCSD pair-energies ... 0.49, 1.42, 1.02


------------------------------------------------------------------------------- 
                                     TIMINGS                                   
------------------------------------------------------------------------------- 


Total execution time                   ...    57791.002 sec

Localization of occupied MO's          ...       10.781 sec (  0.0%)
Fock Matrix Formation                  ...     1503.652 sec (  2.6%)
Differential overlap integrals         ...        1.502 sec (  0.0%)
Organizing maps                        ...        1.714 sec (  0.0%)
RI 3-index integral generations        ...      287.204 sec (  0.5%)
RI-PNO integral transformation         ...     5437.642 sec (  9.4%)
Initial Guess                          ...     1886.003 sec (  3.3%)
DIIS Solver                            ...       15.065 sec (  0.0%)
State Vector Update                    ...        0.821 sec (  0.0%)
Sigma-vector construction              ...    30688.796 sec ( 53.1%)
  <0|H|D>                              ...        0.029 sec (  0.0% of sigma)
  <D|H|D>(0-ext)                       ...     5582.287 sec ( 18.2% of sigma)
  <D|H|D>(2-ext Fock)                  ...        1.794 sec (  0.0% of sigma)
  <D|H|D>(2-ext)                       ...     4552.233 sec ( 14.8% of sigma)
  <D|H|D>(4-ext)                       ...      136.101 sec (  0.4% of sigma)
  <D|H|D>(4-ext-corr)                  ...      855.394 sec (  2.8% of sigma)
  CCSD doubles correction              ...      521.708 sec (  1.7% of sigma)
  <S|H|S>                              ...      746.864 sec (  2.4% of sigma)
  <S|H|D>(1-ext)                       ...      257.762 sec (  0.8% of sigma)
  <D|H|S>(1-ext)                       ...        1.114 sec (  0.0% of sigma)
  <S|H|D>(3-ext)                       ...       20.522 sec (  0.1% of sigma)
  CCSD singles correction              ...        0.004 sec (  0.0% of sigma)
  Fock-dressing                        ...     9709.611 sec ( 31.6% of sigma)
  Singles amplitudes                   ...      114.315 sec (  0.4% of sigma)
  (ik|jl)-dressing                     ...     6478.617 sec ( 21.1% of sigma)
  (ij|ab),(ia|jb)-dressing             ...     1524.160 sec (  5.0% of sigma)
  Pair energies                        ...        0.118 sec (  0.0% of sigma)
Total Time for computing (T)           ...    18317.773 sec ( 31.7% of ALL)


-------------------------   --------------------
FINAL SINGLE POINT ENERGY     -3031.451748350109
-------------------------   --------------------


                            ***************************************
                            *     ORCA property calculations      *
                            ***************************************

                                    ---------------------
                                    Active property flags
                                    ---------------------
   (+) Dipole Moment


------------------------------------------------------------------------------
                       ORCA ELECTRIC PROPERTIES CALCULATION
------------------------------------------------------------------------------

Dipole Moment Calculation                       ... on
Quadrupole Moment Calculation                   ... off
Polarizability Calculation                      ... off
GBWName                                         ... simple-grid-185-240-b3lyp_d3bj-631gd-gas-singlepoint-DLPNO_CCSD_T1-NormalPNO-augtz-gas.gbw
Electron density file                           ... simple-grid-185-240-b3lyp_d3bj-631gd-gas-singlepoint-DLPNO_CCSD_T1-NormalPNO-augtz-gas.scfp.tmp
The origin for moment calculation is the CENTER OF MASS  = ( 0.299021,  0.033460  0.015969)

-------------
DIPOLE MOMENT
-------------
                                X             Y             Z
Electronic contribution:     39.62289       5.14725       1.92499
Nuclear contribution   :    -44.55405      -4.98546      -2.37933
                        -----------------------------------------
Total Dipole Moment    :     -4.93116       0.16179      -0.45434
                        -----------------------------------------
Magnitude (a.u.)       :      4.95469
Magnitude (Debye)      :     12.59382



--------------------
Rotational spectrum 
--------------------
 
Rotational constants in cm-1:     0.019029     0.011734     0.010866 
Rotational constants in MHz :   570.460261   351.785965   325.760054 

 Dipole components along the rotational axes: 
x,y,z [a.u.] :    -4.927738    -0.154121    -0.492530 
x,y,z [Debye]:   -12.525314    -0.391745    -1.251911 

 

Timings for individual modules:

Sum of individual times         ...    74140.815 sec (=1235.680 min)
GTO integral calculation        ...       12.318 sec (=   0.205 min)   0.0 %
SCF iterations                  ...    16320.590 sec (= 272.010 min)  22.0 %
MDCI module                     ...    57807.907 sec (= 963.465 min)  78.0 %
                             ****ORCA TERMINATED NORMALLY****
TOTAL RUN TIME: 0 days 20 hours 35 minutes 43 seconds 209 msec
