
                                 *****************
                                 * O   R   C   A *
                                 *****************

           --- An Ab Initio, DFT and Semiempirical electronic structure package ---

                  #######################################################
                  #                        -***-                        #
                  #          Department of theory and spectroscopy      #
                  #               Directorship: Frank Neese             #
                  #        Max Planck Institute fuer Kohlenforschung    #
                  #                Kaiser Wilhelm Platz 1               #
                  #                 D-45470 Muelheim/Ruhr               #
                  #                      Germany                        #
                  #                                                     #
                  #                  All rights reserved                #
                  #                        -***-                        #
                  #######################################################


                         Program Version 4.1.2  - RELEASE  -


 With contributions from (in alphabetic order):
   Daniel Aravena         : Magnetic Properties
   Michael Atanasov       : Ab Initio Ligand Field Theory
   Alexander A. Auer      : GIAO ZORA
   Ute Becker             : Parallelization
   Giovanni Bistoni       : ED, Open-shell LED
   Martin Brehm           : Molecular dynamics
   Dmytro Bykov           : SCF Hessian
   Vijay G. Chilkuri      : MRCI spin determinant printing
   Dipayan Datta          : RHF DLPNO-CCSD density
   Achintya Kumar Dutta   : EOM-CC, STEOM-CC
   Dmitry Ganyushin       : Spin-Orbit,Spin-Spin,Magnetic field MRCI
   Miquel Garcia          : C-PCM Hessian
   Yang Guo               : DLPNO-NEVPT2, CIM, IAO-localization
   Andreas Hansen         : Spin unrestricted coupled pair/coupled cluster methods
   Benjamin Helmich-Paris : CASSCF linear response (MC-RPA)
   Lee Huntington         : MR-EOM, pCC
   Robert Izsak           : Overlap fitted RIJCOSX, COSX-SCS-MP3, EOM
   Christian Kollmar      : KDIIS, OOCD, Brueckner-CCSD(T), CCSD density
   Simone Kossmann        : Meta GGA functionals, TD-DFT gradient, OOMP2, MP2 Hessian
   Martin Krupicka        : AUTO-CI
   Lucas Lang             : DCDCAS
   Dagmar Lenk            : GEPOL surface, SMD
   Dimitrios Liakos       : Extrapolation schemes; parallel MDCI
   Dimitrios Manganas     : ROCIS; embedding schemes
   Dimitrios Pantazis     : SARC Basis sets
   Taras Petrenko         : DFT Hessian,TD-DFT gradient, ASA, ECA, R-Raman, ABS, FL, XAS/XES, NRVS
   Peter Pinski           : DLPNO-MP2, DLPNO-MP2 Gradient
   Christoph Reimann      : Effective Core Potentials
   Marius Retegan         : Local ZFS, SOC
   Christoph Riplinger    : Optimizer, TS searches, QM/MM, DLPNO-CCSD(T), (RO)-DLPNO pert. Triples
   Tobias Risthaus        : Range-separated hybrids, TD-DFT gradient, RPA, STAB
   Michael Roemelt        : Restricted open shell CIS
   Masaaki Saitow         : Open-shell DLPNO
   Barbara Sandhoefer     : DKH picture change effects
   Avijit Sen             : IP-ROCIS
   Kantharuban Sivalingam : CASSCF convergence, NEVPT2, FIC-MRCI
   Bernardo de Souza      : ESD, SOC TD-DFT
   Georgi Stoychev        : AutoAux, RI-MP2 NMR
   Willem Van den Heuvel  : Paramagnetic NMR
   Boris Wezisla          : Elementary symmetry handling
   Frank Wennmohs         : Technical directorship


 We gratefully acknowledge several colleagues who have allowed us to
 interface, adapt or use parts of their codes:
   Stefan Grimme, W. Hujo, H. Kruse,             : VdW corrections, initial TS optimization,
                  C. Bannwarth                     DFT functionals, gCP, sTDA/sTD-DF
   Ed Valeev                                     : LibInt (2-el integral package), F12 methods
   Garnet Chan, S. Sharma, J. Yang, R. Olivares  : DMRG
   Ulf Ekstrom                                   : XCFun DFT Library
   Mihaly Kallay                                 : mrcc  (arbitrary order and MRCC methods)
   Andreas Klamt, Michael Diedenhofen            : otool_cosmo (COSMO solvation model)
   Jiri Pittner, Ondrej Demel                    : Mk-CCSD
   Frank Weinhold                                : gennbo (NPA and NBO analysis)
   Christopher J. Cramer and Donald G. Truhlar   : smd solvation model
   Lars Goerigk                                  : TD-DFT with DH, B97 family of functionals
   V. Asgeirsson, H. Jonsson                     : NEB implementation
   FAccTs GmbH                                   : IRC, NEB, NEB-TS, Multilevel


 Your calculation uses the libint2 library for the computation of 2-el integrals
 For citations please refer to: http://libint.valeyev.net

 This ORCA versions uses:
   CBLAS   interface :  Fast vector & matrix operations
   LAPACKE interface :  Fast linear algebra routines
   SCALAPACK package :  Parallel linear algebra routines


----- Orbital basis set information -----
Your calculation utilizes the basis: aug-cc-pVTZ 
    H, B-Ne : Obtained from the ccRepo (grant-hill.group.shef.ac.uk/ccrepo) Feb. 2017
              R. A. Kendall, T. H. Dunning, Jr., R. J. Harrison, J. Chem. Phys. 96, 6796 (1992)
         He : Obtained from the ccRepo (grant-hill.group.shef.ac.uk/ccrepo) Feb. 2017
              D. E. Woon, T. H. Dunning, Jr., J. Chem. Phys. 100, 2975 (1994)
  Li-Be, Na : Obtained from the ccRepo (grant-hill.group.shef.ac.uk/ccrepo) Feb. 2017
              B. P. Prascher, D. E. Woon, K. A. Peterson, T. H. Dunning, Jr., A. K. Wilson, Theor. Chem. Acc. 128, 69 (2011)
         Mg : Obtained from the Peterson Research Group Website (tyr0.chem.wsu.edu/~kipeters) Feb. 2017
              B. P. Prascher, D. E. Woon, K. A. Peterson, T. H. Dunning, Jr., A. K. Wilson, Theor. Chem. Acc. 128, 69 (2011)
      Al-Ar : Obtained from the ccRepo (grant-hill.group.shef.ac.uk/ccrepo) Feb. 2017
              D. E. Woon, T. H. Dunning, Jr., J. Chem. Phys. 98, 1358 (1993)
      Sc-Zn : Obtained from the ccRepo (grant-hill.group.shef.ac.uk/ccrepo) Feb. 2017
              N. B. Balabanov, K. A. Peterson, J. Chem. Phys. 123, 064107 (2005)
              N. B. Balabanov, K. A. Peterson, J. Chem. Phys. 125, 074110 (2006)
      Ga-Kr : Obtained from the ccRepo (grant-hill.group.shef.ac.uk/ccrepo) Feb. 2017
              A. K. Wilson, D. E. Woon, K. A. Peterson, T. H. Dunning, Jr., J. Chem. Phys. 110, 7667 (1999)
     Ag, Au : Obtained from the Peterson Research Group Website (tyr0.chem.wsu.edu/~kipeters) Feb. 2017
              K. A. Peterson, C. Puzzarini, Theor. Chem. Acc. 114, 283 (2005)

----- AuxJ basis set information -----
Your calculation utilizes the AutoAux generation procedure.
  G. L. Stoychev, A. A. Auer, F. Neese, J. Chem. Theory Comput. 13, 554 (2017)

----- AuxC basis set information -----
Your calculation utilizes the auxiliary basis: aug-cc-pVTZ/C 
  H-He, B-F, Al-Ar, Ga-Kr : Obtained from the EMSL Basis Set Exchange (bse.pnl.gov) Feb. 2017
                            F. Weigend, A. Kohn, C. Hattig, J. Chem. Phys. 116, 3175 (2002)
                   Be, Mg : Obtained from the TURBOMOLE 7.0 basis set library
                            C. Haettig, Phys. Chem. Chem. Phys. 7, 59 (2005)
                       Ne : Obtained from the EMSL Basis Set Exchange (bse.pnl.gov) Feb. 2017
                            C. Haettig, Phys. Chem. Chem. Phys. 7, 59 (2005)
                            F. Weigend, A. Kohn, C. Hattig, J. Chem. Phys. 116, 3175 (2002)
                    Sc-Zn : Obtained from the EMSL Basis Set Exchange (bse.pnl.gov) Feb. 2017
                            J. G. Hill, J. A. Platts, J. Chem. Phys. 128, 044104 (2008)

----- AuxJK basis set information -----
Your calculation utilizes the AutoAux generation procedure.
  G. L. Stoychev, A. A. Auer, F. Neese, J. Chem. Theory Comput. 13, 554 (2017)

================================================================================
                                        WARNINGS
                       Please study these warnings very carefully!
================================================================================


WARNING: your system is open-shell and RHF/RKS was chosen
  ===> : WILL SWITCH to UHF/UKS


WARNING: MDCI localization with Augmented Hessian Foster-Boys
  ===> : Switching off randomization!

WARNING: Post HF methods need fully converged wavefunctions
  ===> : Setting SCFConvForced true
         You can overwrite this default with %scf ConvForced false 


INFO   : the flag for use of LIBINT has been found!

================================================================================
                                       INPUT FILE
================================================================================
NAME = simple-grid-190-250-b3lyp_d3bj-631gd-gas-singlepoint-DLPNO_CCSD_T1-NormalPNO-augtz-gas.inp
|  1> ! aug-cc-pVTZ aug-cc-pVTZ/C DLPNO-CCSD(T1) TightSCF NormalPNO UNO MiniPrint AutoAux
|  2> %pal nproc 10 end
|  3> %maxcore 20000
|  4> %mdci
|  5>      density none
|  6> end
|  7> 
|  8> * xyz 0 6
|  9>  O     -0.32129200     -0.18164400     -0.70953000
| 10>  C     -1.26758400     -1.10004700     -0.55213500
| 11>  C     -2.72747800     -0.31147800      0.37354100
| 12>  C     -2.45218800      0.97526500     -0.10057000
| 13>  C     -2.92736000      1.44977000     -1.42597700
| 14> Fe      1.39671300      0.11344100     -0.02231600
| 15> Cl      1.90464200      2.12372800     -0.76768500
| 16>  C     -1.61106500      1.93167300      0.65573700
| 17> Cl      2.66232200     -1.53428900     -0.73748700
| 18> Cl      1.18575800      0.09183500      2.19904900
| 19>  H     -3.55099000     -0.81113100     -0.13506300
| 20>  H     -2.29576300      2.65369600      1.13065900
| 21>  H     -1.01680300      1.46852800      1.44161400
| 22>  H     -0.95552000      2.49844700     -0.01313100
| 23>  H     -3.31339400      2.47206100     -1.33088000
| 24>  H     -2.05662800      1.51575800     -2.09414900
| 25>  H     -3.69127600      0.81239700     -1.87278500
| 26>  C     -2.66374800     -0.59615900      1.86711900
| 27>  H     -3.43231000     -0.01143300      2.38576300
| 28>  H     -2.86497900     -1.65060500      2.06485700
| 29>  H     -1.69536600     -0.34850700      2.30629500
| 30>  C     -0.89506800     -2.27656100      0.33832800
| 31>  H     -1.72540200     -2.97272900      0.47887700
| 32>  H     -0.08693700     -2.79880200     -0.18962800
| 33>  H     -0.50165200     -1.95771800      1.30297000
| 34>  C     -1.86109400     -1.55563400     -1.88087000
| 35>  H     -1.06557900     -2.10585600     -2.39628100
| 36>  H     -2.71604700     -2.22398100     -1.74798300
| 37>  H     -2.13829700     -0.71906100     -2.52164800
| 38> *
| 39> 
| 40> 
| 41>                          ****END OF INPUT****
================================================================================

                       ****************************
                       * Single Point Calculation *
                       ****************************

---------------------------------
CARTESIAN COORDINATES (ANGSTROEM)
---------------------------------
  O     -0.321292   -0.181644   -0.709530
  C     -1.267584   -1.100047   -0.552135
  C     -2.727478   -0.311478    0.373541
  C     -2.452188    0.975265   -0.100570
  C     -2.927360    1.449770   -1.425977
  Fe     1.396713    0.113441   -0.022316
  Cl     1.904642    2.123728   -0.767685
  C     -1.611065    1.931673    0.655737
  Cl     2.662322   -1.534289   -0.737487
  Cl     1.185758    0.091835    2.199049
  H     -3.550990   -0.811131   -0.135063
  H     -2.295763    2.653696    1.130659
  H     -1.016803    1.468528    1.441614
  H     -0.955520    2.498447   -0.013131
  H     -3.313394    2.472061   -1.330880
  H     -2.056628    1.515758   -2.094149
  H     -3.691276    0.812397   -1.872785
  C     -2.663748   -0.596159    1.867119
  H     -3.432310   -0.011433    2.385763
  H     -2.864979   -1.650605    2.064857
  H     -1.695366   -0.348507    2.306295
  C     -0.895068   -2.276561    0.338328
  H     -1.725402   -2.972729    0.478877
  H     -0.086937   -2.798802   -0.189628
  H     -0.501652   -1.957718    1.302970
  C     -1.861094   -1.555634   -1.880870
  H     -1.065579   -2.105856   -2.396281
  H     -2.716047   -2.223981   -1.747983
  H     -2.138297   -0.719061   -2.521648

----------------------------
CARTESIAN COORDINATES (A.U.)
----------------------------
  NO LB      ZA    FRAG     MASS         X           Y           Z
   0 O     8.0000    0    15.999   -0.607154   -0.343257   -1.340817
   1 C     6.0000    0    12.011   -2.395387   -2.078788   -1.043384
   2 C     6.0000    0    12.011   -5.154186   -0.588608    0.705890
   3 C     6.0000    0    12.011   -4.633964    1.842984   -0.190050
   4 C     6.0000    0    12.011   -5.531909    2.739668   -2.694706
   5 Fe   26.0000    0    55.850    2.639405    0.214372   -0.042171
   6 Cl   17.0000    0    35.453    3.599252    4.013264   -1.450714
   7 C     6.0000    0    12.011   -3.044472    3.650333    1.239163
   8 Cl   17.0000    0    35.453    5.031059   -2.899386   -1.393648
   9 Cl   17.0000    0    35.453    2.240758    0.173543    4.155600
  10 H     1.0000    0     1.008   -6.710399   -1.532815   -0.255232
  11 H     1.0000    0     1.008   -4.338363    5.014759    2.136636
  12 H     1.0000    0     1.008   -1.921479    2.775116    2.724256
  13 H     1.0000    0     1.008   -1.805671    4.721381   -0.024814
  14 H     1.0000    0     1.008   -6.261407    4.671518   -2.514999
  15 H     1.0000    0     1.008   -3.886464    2.864368   -3.957368
  16 H     1.0000    0     1.008   -6.975501    1.535208   -3.539051
  17 C     6.0000    0    12.011   -5.033754   -1.126577    3.528344
  18 H     1.0000    0     1.008   -6.486126   -0.021605    4.508439
  19 H     1.0000    0     1.008   -5.414026   -3.119191    3.902014
  20 H     1.0000    0     1.008   -3.203777   -0.658583    4.358266
  21 C     6.0000    0    12.011   -1.691433   -4.302077    0.639347
  22 H     1.0000    0     1.008   -3.260537   -5.617644    0.904946
  23 H     1.0000    0     1.008   -0.164287   -5.288969   -0.358345
  24 H     1.0000    0     1.008   -0.947985   -3.699551    2.462256
  25 C     6.0000    0    12.011   -3.516958   -2.939722   -3.554329
  26 H     1.0000    0     1.008   -2.013652   -3.979491   -4.528315
  27 H     1.0000    0     1.008   -5.132585   -4.202715   -3.303209
  28 H     1.0000    0     1.008   -4.040796   -1.358828   -4.765224



           ************************************************************
           *        Program running with 10 parallel MPI-processes    *
           *              working on a common directory               *
           ************************************************************


           ************************************************************
           *        Program running with 10 parallel MPI-processes    *
           *              working on a common directory               *
           ************************************************************

Diagonalization of the overlap matrix:
Smallest eigenvalue                        ... 6.315e-07
Time for diagonalization                   ...    0.412 sec
Threshold for overlap eigenvalues          ... 1.000e-08
Number of eigenvalues below threshold      ... 0
Time for construction of square roots      ...    0.326 sec
Total time needed                          ...    0.743 sec

-------------------
DFT GRID GENERATION
-------------------

General Integration Accuracy     IntAcc      ...  4.340
Radial Grid Type                 RadialGrid  ... Gauss-Chebyshev
Angular Grid (max. acc.)         AngularGrid ... Lebedev-110
Angular grid pruning method      GridPruning ... 3 (G Style)
Weight generation scheme         WeightScheme... Becke
Basis function cutoff            BFCut       ...    1.0000e-11
Integration weight cutoff        WCut        ...    1.0000e-14
Grids for H and He will be reduced by one unit

# of grid points (after initial pruning)     ...  36112 (   0.0 sec)
# of grid points (after weights+screening)   ...  32283 (   0.1 sec)
nearest neighbour list constructed           ...    0.0 sec
Grid point re-assignment to atoms done       ...    0.0 sec
Grid point division into batches done        ...    0.0 sec
Reduced shell lists constructed in    0.3 sec

Total number of grid points                  ...    32283
Total number of batches                      ...      522
Average number of points per batch           ...       61
Average number of grid points per atom       ...     1113
Average number of shells per batch           ...   293.80 (85.65%)
Average number of basis functions per batch  ...   874.09 (85.28%)
Average number of large shells per batch     ...   242.43 (82.51%)
Average number of large basis fcns per batch ...   721.46 (82.54%)
Maximum spatial batch extension              ...   3.47,  3.99,  3.34 au
Average spatial batch extension              ...   0.18,  0.17,  0.17 au

Time for grid setup =    0.412 sec

Loading Hartree-Fock densities                     ... done
Calculating cut-offs                               ... done
Setting up the integral package                    ... done
Initializing the effective Hamiltonian             ... done
Starting the Coulomb interaction                   ... done (   1.1 sec)
Reading the grid                                   ... done
Mapping shells                                     ... done
Starting the XC term evaluation                    ... done (   0.8 sec)
Transforming the Hamiltonian                       ... done (   0.2 sec)
Diagonalizing the Hamiltonian                      ... done (   0.3 sec)
Back transforming the eigenvectors                 ... done (   0.1 sec)
Now organizing SCF variables                       ... done
--------------
SCF ITERATIONS
--------------
ITER       Energy         Delta-E        Max-DP      RMS-DP      [F,P]     Damp
               ***  Starting incremental Fock matrix formation  ***
  0  -3027.5703469408   0.000000000000 0.36447216  0.00121898  0.2912916 0.7000
  1  -3027.8191164629  -0.248769522055 0.26670691  0.00094383  0.1678352 0.7000
                               ***Turning on DIIS***
  2  -3027.9859750863  -0.166858623432 0.18724342  0.00069244  0.1095527 0.7000
  3  -3029.6613442801  -1.675369193750 0.42429585  0.00172833  0.0824199 0.0000
  4  -3028.2922562909   1.369087989196 0.04713156  0.00022277  0.0194782 0.0000
  5  -3028.4103518397  -0.118095548856 0.04032996  0.00017170  0.0117300 0.0000
  6  -3028.4411038297  -0.030751990018 0.02053926  0.00006998  0.0053807 0.0000
  7  -3028.4537150525  -0.012611222774 0.00915039  0.00003203  0.0033070 0.0000
  8  -3028.4494996649   0.004215387650 0.00590877  0.00001873  0.0014287 0.0000
  9  -3028.4413543930   0.008145271814 0.00233879  0.00001105  0.0007035 0.0000
 10  -3028.4309415037   0.010412889340 0.00088105  0.00000344  0.0003956 0.0000
 11  -3028.4365160234  -0.005574519742 0.00059379  0.00000201  0.0000901 0.0000
 12  -3028.4335420558   0.002973967663 0.00041727  0.00000134  0.0000335 0.0000
 13  -3028.4337353160  -0.000193260189 0.00156348  0.00000273  0.0000120 0.0000
 14  -3028.4338759878  -0.000140671827 0.00063132  0.00000245  0.0000068 0.0000
 15  -3028.4337696237   0.000106364053 0.00134624  0.00000264  0.0000033 0.0000
 16  -3028.4338123894  -0.000042765638 0.00080671  0.00000239  0.0000024 0.0000
 17  -3028.4338289475  -0.000016558077 0.00133165  0.00000246  0.0000016 0.0000
 18  -3028.4338057467   0.000023200711 0.00180448  0.00000355  0.0000015 0.0000
 19  -3028.4338177785  -0.000012031779 0.00235884  0.00000419  0.0000013 0.0000
               *** Restarting incremental Fock matrix formation ***
                                   *** Resetting DIIS ***
                            ***DIIS convergence achieved***

               *****************************************************
               *                     SUCCESS                       *
               *           SCF CONVERGED AFTER  20 CYCLES          *
               *****************************************************

Total Energy       :        -3028.43381674 Eh          -82407.87369 eV
  Last Energy change         ...    1.0431e-06  Tolerance :   1.0000e-08
  Last MAX-Density change    ...    8.9149e-03  Tolerance :   1.0000e-07
             **** THE GBW FILE WAS UPDATED (simple-grid-190-250-b3lyp_d3bj-631gd-gas-singlepoint-DLPNO_CCSD_T1-NormalPNO-augtz-gas.gbw) ****
             **** DENSITY FILE WAS UPDATED (simple-grid-190-250-b3lyp_d3bj-631gd-gas-singlepoint-DLPNO_CCSD_T1-NormalPNO-augtz-gas.scfp.tmp) ****
             **** ENERGY FILE WAS UPDATED (simple-grid-190-250-b3lyp_d3bj-631gd-gas-singlepoint-DLPNO_CCSD_T1-NormalPNO-augtz-gas.en.tmp) ****
----------------------
UHF SPIN CONTAMINATION
----------------------

Expectation value of <S**2>     :     8.764282
Ideal value S*(S+1) for S=2.5   :     8.750000
Deviation                       :     0.014282

----------------
ORBITAL ENERGIES
----------------
                 SPIN UP ORBITALS
  NO   OCC          E(Eh)            E(eV) 
   0   1.0000    -261.549234     -7117.1165 
   1   1.0000    -104.777011     -2851.1274 
   2   1.0000    -104.773038     -2851.0193 
   3   1.0000    -104.771259     -2850.9709 
   4   1.0000     -32.217138      -876.6729 
   5   1.0000     -27.693061      -753.5665 
   6   1.0000     -27.692836      -753.5604 
   7   1.0000     -27.692586      -753.5536 
   8   1.0000     -20.550120      -559.1972 
   9   1.0000     -11.378210      -309.6168 
  10   1.0000     -11.372161      -309.4522 
  11   1.0000     -11.284622      -307.0702 
  12   1.0000     -11.281058      -306.9732 
  13   1.0000     -11.266461      -306.5760 
  14   1.0000     -11.254087      -306.2393 
  15   1.0000     -11.251897      -306.1797 
  16   1.0000     -11.243693      -305.9564 
  17   1.0000     -10.503606      -285.8176 
  18   1.0000     -10.499609      -285.7089 
  19   1.0000     -10.497859      -285.6613 
  20   1.0000      -7.970506      -216.8885 
  21   1.0000      -7.969617      -216.8643 
  22   1.0000      -7.969580      -216.8633 
  23   1.0000      -7.966427      -216.7775 
  24   1.0000      -7.965710      -216.7580 
  25   1.0000      -7.965625      -216.7557 
  26   1.0000      -7.964692      -216.7303 
  27   1.0000      -7.963964      -216.7105 
  28   1.0000      -7.963887      -216.7084 
  29   1.0000      -4.572503      -124.4241 
  30   1.0000      -3.185040       -86.6693 
  31   1.0000      -3.184567       -86.6565 
  32   1.0000      -3.184126       -86.6445 
  33   1.0000      -1.389465       -37.8093 
  34   1.0000      -1.183603       -32.2075 
  35   1.0000      -1.083649       -29.4876 
  36   1.0000      -1.047187       -28.4954 
  37   1.0000      -1.044038       -28.4097 
  38   1.0000      -1.041131       -28.3306 
  39   1.0000      -1.038515       -28.2594 
  40   1.0000      -1.005373       -27.3576 
  41   1.0000      -0.977929       -26.6108 
  42   1.0000      -0.932199       -25.3664 
  43   1.0000      -0.914148       -24.8752 
  44   1.0000      -0.901973       -24.5439 
  45   1.0000      -0.901845       -24.5404 
  46   1.0000      -0.893506       -24.3135 
  47   1.0000      -0.892750       -24.2930 
  48   1.0000      -0.787226       -21.4215 
  49   1.0000      -0.766274       -20.8514 
  50   1.0000      -0.702630       -19.1195 
  51   1.0000      -0.690743       -18.7961 
  52   1.0000      -0.672421       -18.2975 
  53   1.0000      -0.653086       -17.7714 
  54   1.0000      -0.647907       -17.6304 
  55   1.0000      -0.628498       -17.1023 
  56   1.0000      -0.599063       -16.3013 
  57   1.0000      -0.597477       -16.2582 
  58   1.0000      -0.589887       -16.0516 
  59   1.0000      -0.578142       -15.7320 
  60   1.0000      -0.576562       -15.6891 
  61   1.0000      -0.561837       -15.2884 
  62   1.0000      -0.555736       -15.1223 
  63   1.0000      -0.546387       -14.8679 
  64   1.0000      -0.536810       -14.6073 
  65   1.0000      -0.527700       -14.3594 
  66   1.0000      -0.511512       -13.9189 
  67   1.0000      -0.472575       -12.8594 
  68   1.0000      -0.460853       -12.5405 
  69   1.0000      -0.451125       -12.2757 
  70   1.0000      -0.426200       -11.5975 
  71   1.0000      -0.425453       -11.5772 
  72   1.0000      -0.423081       -11.5126 
  73   1.0000      -0.413969       -11.2647 
  74   1.0000      -0.412874       -11.2349 
  75   1.0000      -0.411452       -11.1962 
  76   1.0000      -0.395390       -10.7591 
  77   0.0000       0.007070         0.1924 
  78   0.0000       0.016350         0.4449 
  79   0.0000       0.020322         0.5530 
  80   0.0000       0.020775         0.5653 
  81   0.0000       0.030744         0.8366 
  82   0.0000       0.037866         1.0304 
  83   0.0000       0.039479         1.0743 
  84   0.0000       0.044234         1.2037 
  85   0.0000       0.045567         1.2399 
  86   0.0000       0.046808         1.2737 
  87   0.0000       0.056947         1.5496 
  88   0.0000       0.059319         1.6142 
  89   0.0000       0.061548         1.6748 
  90   0.0000       0.064207         1.7472 
  91   0.0000       0.065843         1.7917 
  92   0.0000       0.071355         1.9417 
  93   0.0000       0.075061         2.0425 
  94   0.0000       0.078635         2.1398 
  95   0.0000       0.088675         2.4130 
  96   0.0000       0.089481         2.4349 
  97   0.0000       0.093802         2.5525 
  98   0.0000       0.095700         2.6041 
  99   0.0000       0.098516         2.6808 
 100   0.0000       0.100451         2.7334 
 101   0.0000       0.109384         2.9765 
 102   0.0000       0.113586         3.0908 
 103   0.0000       0.121082         3.2948 
 104   0.0000       0.122303         3.3280 
 105   0.0000       0.125369         3.4115 
 106   0.0000       0.128052         3.4845 
 107   0.0000       0.130509         3.5513 
 108   0.0000       0.131088         3.5671 
 109   0.0000       0.133337         3.6283 
 110   0.0000       0.137871         3.7517 
 111   0.0000       0.138795         3.7768 
 112   0.0000       0.143089         3.8936 
 113   0.0000       0.146148         3.9769 
 114   0.0000       0.151223         4.1150 
 115   0.0000       0.154749         4.2109 
 116   0.0000       0.158187         4.3045 
 117   0.0000       0.163621         4.4524 
 118   0.0000       0.164293         4.4706 
 119   0.0000       0.167348         4.5538 
 120   0.0000       0.169621         4.6156 
 121   0.0000       0.171461         4.6657 
 122   0.0000       0.175665         4.7801 
 123   0.0000       0.179418         4.8822 
 124   0.0000       0.180591         4.9141 
 125   0.0000       0.188543         5.1305 
 126   0.0000       0.189118         5.1462 
 127   0.0000       0.196323         5.3422 
 128   0.0000       0.198701         5.4069 
 129   0.0000       0.200554         5.4574 
 130   0.0000       0.202709         5.5160 
 131   0.0000       0.206839         5.6284 
 132   0.0000       0.208807         5.6819 
 133   0.0000       0.212604         5.7852 
 134   0.0000       0.216191         5.8829 
 135   0.0000       0.219320         5.9680 
 136   0.0000       0.224650         6.1130 
 137   0.0000       0.225416         6.1339 
 138   0.0000       0.227034         6.1779 
 139   0.0000       0.231896         6.3102 
 140   0.0000       0.234023         6.3681 
 141   0.0000       0.239175         6.5083 
 142   0.0000       0.241886         6.5820 
 143   0.0000       0.244590         6.6556 
 144   0.0000       0.246856         6.7173 
 145   0.0000       0.249534         6.7902 
 146   0.0000       0.252691         6.8761 
 147   0.0000       0.258115         7.0237 
 148   0.0000       0.261177         7.1070 
 149   0.0000       0.263190         7.1618 
 150   0.0000       0.268636         7.3100 
 151   0.0000       0.270621         7.3640 
 152   0.0000       0.277799         7.5593 
 153   0.0000       0.281054         7.6479 
 154   0.0000       0.282758         7.6942 
 155   0.0000       0.286440         7.7944 
 156   0.0000       0.290385         7.9018 
 157   0.0000       0.291216         7.9244 
 158   0.0000       0.298809         8.1310 
 159   0.0000       0.302152         8.2220 
 160   0.0000       0.307703         8.3730 
 161   0.0000       0.315985         8.5984 
 162   0.0000       0.318844         8.6762 
 163   0.0000       0.322385         8.7725 
 164   0.0000       0.323128         8.7927 
 165   0.0000       0.328307         8.9337 
 166   0.0000       0.331726         9.0267 
 167   0.0000       0.338533         9.2119 
 168   0.0000       0.341004         9.2792 
 169   0.0000       0.343036         9.3345 
 170   0.0000       0.347909         9.4671 
 171   0.0000       0.353574         9.6212 
 172   0.0000       0.355603         9.6764 
 173   0.0000       0.359765         9.7897 
 174   0.0000       0.361417         9.8347 
 175   0.0000       0.364773         9.9260 
 176   0.0000       0.370757        10.0888 
 177   0.0000       0.372728        10.1424 
 178   0.0000       0.378189        10.2911 
 179   0.0000       0.378792        10.3075 
 180   0.0000       0.382366        10.4047 
 181   0.0000       0.383982        10.4487 
 182   0.0000       0.384895        10.4735 
 183   0.0000       0.389471        10.5981 
 184   0.0000       0.391834        10.6623 
 185   0.0000       0.394948        10.7471 
 186   0.0000       0.395311        10.7570 
 187   0.0000       0.401083        10.9140 
 188   0.0000       0.404738        11.0135 
 189   0.0000       0.412394        11.2218 
 190   0.0000       0.415970        11.3191 
 191   0.0000       0.417439        11.3591 
 192   0.0000       0.420585        11.4447 
 193   0.0000       0.423885        11.5345 
 194   0.0000       0.426829        11.6146 
 195   0.0000       0.433311        11.7910 
 196   0.0000       0.435204        11.8425 
 197   0.0000       0.439420        11.9572 
 198   0.0000       0.442988        12.0543 
 199   0.0000       0.452571        12.3151 
 200   0.0000       0.453180        12.3316 
 201   0.0000       0.455206        12.3868 
 202   0.0000       0.457384        12.4460 
 203   0.0000       0.459028        12.4908 
 204   0.0000       0.463934        12.6243 
 205   0.0000       0.469732        12.7820 
 206   0.0000       0.473921        12.8960 
 207   0.0000       0.477355        12.9895 
 208   0.0000       0.480389        13.0721 
 209   0.0000       0.484048        13.1716 
 210   0.0000       0.486057        13.2263 
 211   0.0000       0.489570        13.3219 
 212   0.0000       0.491183        13.3658 
 213   0.0000       0.493039        13.4163 
 214   0.0000       0.495587        13.4856 
 215   0.0000       0.498901        13.5758 
 216   0.0000       0.500131        13.6093 
 217   0.0000       0.507925        13.8213 
 218   0.0000       0.509877        13.8745 
 219   0.0000       0.513666        13.9776 
 220   0.0000       0.514999        14.0138 
 221   0.0000       0.519233        14.1291 
 222   0.0000       0.522720        14.2239 
 223   0.0000       0.524715        14.2782 
 224   0.0000       0.528743        14.3878 
 225   0.0000       0.532868        14.5001 
 226   0.0000       0.536175        14.5901 
 227   0.0000       0.539884        14.6910 
 228   0.0000       0.542329        14.7575 
 229   0.0000       0.548877        14.9357 
 230   0.0000       0.550754        14.9868 
 231   0.0000       0.556945        15.1552 
 232   0.0000       0.561172        15.2703 
 233   0.0000       0.562232        15.2991 
 234   0.0000       0.567318        15.4375 
 235   0.0000       0.569648        15.5009 
 236   0.0000       0.570513        15.5245 
 237   0.0000       0.573736        15.6122 
 238   0.0000       0.580308        15.7910 
 239   0.0000       0.584223        15.8975 
 240   0.0000       0.589080        16.0297 
 241   0.0000       0.592208        16.1148 
 242   0.0000       0.593901        16.1609 
 243   0.0000       0.601001        16.3541 
 244   0.0000       0.602147        16.3852 
 245   0.0000       0.604836        16.4584 
 246   0.0000       0.607673        16.5356 
 247   0.0000       0.614044        16.7090 
 248   0.0000       0.615867        16.7586 
 249   0.0000       0.623533        16.9672 
 250   0.0000       0.627222        17.0676 
 251   0.0000       0.629627        17.1330 
 252   0.0000       0.631792        17.1919 
 253   0.0000       0.638790        17.3823 
 254   0.0000       0.640837        17.4381 
 255   0.0000       0.643184        17.5019 
 256   0.0000       0.648756        17.6536 
 257   0.0000       0.654093        17.7988 
 258   0.0000       0.659991        17.9593 
 259   0.0000       0.661090        17.9892 
 260   0.0000       0.662481        18.0270 
 261   0.0000       0.666828        18.1453 
 262   0.0000       0.674213        18.3463 
 263   0.0000       0.680306        18.5121 
 264   0.0000       0.682298        18.5663 
 265   0.0000       0.689822        18.7710 
 266   0.0000       0.692177        18.8351 
 267   0.0000       0.695860        18.9353 
 268   0.0000       0.698860        19.0169 
 269   0.0000       0.700249        19.0548 
 270   0.0000       0.707169        19.2430 
 271   0.0000       0.712439        19.3864 
 272   0.0000       0.715328        19.4651 
 273   0.0000       0.721816        19.6416 
 274   0.0000       0.726812        19.7776 
 275   0.0000       0.729608        19.8536 
 276   0.0000       0.733046        19.9472 
 277   0.0000       0.736305        20.0359 
 278   0.0000       0.741176        20.1684 
 279   0.0000       0.747571        20.3424 
 280   0.0000       0.752759        20.4836 
 281   0.0000       0.758003        20.6263 
 282   0.0000       0.762261        20.7422 
 283   0.0000       0.766584        20.8598 
 284   0.0000       0.776113        21.1191 
 285   0.0000       0.787743        21.4356 
 286   0.0000       0.793829        21.6012 
 287   0.0000       0.798168        21.7193 
 288   0.0000       0.801941        21.8219 
 289   0.0000       0.804977        21.9045 
 290   0.0000       0.814000        22.1501 
 291   0.0000       0.814909        22.1748 
 292   0.0000       0.822430        22.3795 
 293   0.0000       0.829771        22.5792 
 294   0.0000       0.829948        22.5840 
 295   0.0000       0.839695        22.8493 
 296   0.0000       0.842545        22.9268 
 297   0.0000       0.845688        23.0123 
 298   0.0000       0.851785        23.1782 
 299   0.0000       0.856998        23.3201 
 300   0.0000       0.861232        23.4353 
 301   0.0000       0.865163        23.5423 
 302   0.0000       0.868787        23.6409 
 303   0.0000       0.878879        23.9155 
 304   0.0000       0.882355        24.0101 
 305   0.0000       0.886232        24.1156 
 306   0.0000       0.892945        24.2983 
 307   0.0000       0.895503        24.3679 
 308   0.0000       0.902339        24.5539 
 309   0.0000       0.904576        24.6148 
 310   0.0000       0.909960        24.7613 
 311   0.0000       0.912569        24.8323 
 312   0.0000       0.920821        25.0568 
 313   0.0000       0.923195        25.1214 
 314   0.0000       0.926822        25.2201 
 315   0.0000       0.929372        25.2895 
 316   0.0000       0.930238        25.3131 
 317   0.0000       0.935399        25.4535 
 318   0.0000       0.940931        25.6040 
 319   0.0000       0.946205        25.7476 
 320   0.0000       0.949912        25.8484 
 321   0.0000       0.955528        26.0012 
 322   0.0000       0.959617        26.1125 
 323   0.0000       0.962250        26.1842 
 324   0.0000       0.966426        26.2978 
 325   0.0000       0.968246        26.3473 
 326   0.0000       0.971080        26.4244 
 327   0.0000       0.977210        26.5912 
 328   0.0000       0.979582        26.6558 
 329   0.0000       0.982858        26.7449 
 330   0.0000       0.985034        26.8041 
 331   0.0000       0.987658        26.8755 
 332   0.0000       0.988120        26.8881 
 333   0.0000       0.996675        27.1209 
 334   0.0000       1.001697        27.2575 
 335   0.0000       1.004731        27.3401 
 336   0.0000       1.009608        27.4728 
 337   0.0000       1.013485        27.5783 
 338   0.0000       1.017705        27.6932 
 339   0.0000       1.026733        27.9388 
 340   0.0000       1.028150        27.9774 
 341   0.0000       1.030285        28.0355 
 342   0.0000       1.032975        28.1087 
 343   0.0000       1.038440        28.2574 
 344   0.0000       1.041972        28.3535 
 345   0.0000       1.042941        28.3799 
 346   0.0000       1.045322        28.4446 
 347   0.0000       1.049524        28.5590 
 348   0.0000       1.052692        28.6452 
 349   0.0000       1.054260        28.6879 
 350   0.0000       1.057602        28.7788 
 351   0.0000       1.060617        28.8609 
 352   0.0000       1.066705        29.0265 
 353   0.0000       1.070902        29.1407 
 354   0.0000       1.075790        29.2737 
 355   0.0000       1.080277        29.3958 
 356   0.0000       1.085675        29.5427 
 357   0.0000       1.087973        29.6052 
 358   0.0000       1.093192        29.7473 
 359   0.0000       1.095211        29.8022 
 360   0.0000       1.097157        29.8551 
 361   0.0000       1.106516        30.1098 
 362   0.0000       1.107544        30.1378 
 363   0.0000       1.114662        30.3315 
 364   0.0000       1.118766        30.4432 
 365   0.0000       1.121497        30.5175 
 366   0.0000       1.124269        30.5929 
 367   0.0000       1.132021        30.8038 
 368   0.0000       1.135162        30.8893 
 369   0.0000       1.139376        31.0040 
 370   0.0000       1.141730        31.0681 
 371   0.0000       1.145793        31.1786 
 372   0.0000       1.152670        31.3658 
 373   0.0000       1.154599        31.4182 
 374   0.0000       1.159705        31.5572 
 375   0.0000       1.166239        31.7350 
 376   0.0000       1.169295        31.8181 
 377   0.0000       1.170988        31.8642 
 378   0.0000       1.174991        31.9731 
 379   0.0000       1.180521        32.1236 
 380   0.0000       1.184585        32.2342 
 381   0.0000       1.190197        32.3869 
 382   0.0000       1.198606        32.6157 
 383   0.0000       1.204495        32.7760 
 384   0.0000       1.211917        32.9779 
 385   0.0000       1.212479        32.9932 
 386   0.0000       1.215253        33.0687 
 387   0.0000       1.220578        33.2136 
 388   0.0000       1.224310        33.3152 
 389   0.0000       1.228782        33.4369 
 390   0.0000       1.234300        33.5870 
 391   0.0000       1.239713        33.7343 
 392   0.0000       1.243161        33.8281 
 393   0.0000       1.244846        33.8740 
 394   0.0000       1.256065        34.1793 
 395   0.0000       1.260680        34.3048 
 396   0.0000       1.267988        34.5037 
 397   0.0000       1.271709        34.6050 
 398   0.0000       1.273409        34.6512 
 399   0.0000       1.274417        34.6787 
 400   0.0000       1.277826        34.7714 
 401   0.0000       1.288372        35.0584 
 402   0.0000       1.291230        35.1362 
 403   0.0000       1.298891        35.3446 
 404   0.0000       1.301544        35.4168 
 405   0.0000       1.309522        35.6339 
 406   0.0000       1.313061        35.7302 
 407   0.0000       1.318285        35.8724 
 408   0.0000       1.320239        35.9255 
 409   0.0000       1.326059        36.0839 
 410   0.0000       1.339142        36.4399 
 411   0.0000       1.340729        36.4831 
 412   0.0000       1.343368        36.5549 
 413   0.0000       1.346224        36.6326 
 414   0.0000       1.350715        36.7548 
 415   0.0000       1.356435        36.9105 
 416   0.0000       1.365612        37.1602 
 417   0.0000       1.373303        37.3695 
 418   0.0000       1.378142        37.5011 
 419   0.0000       1.380710        37.5710 
 420   0.0000       1.383634        37.6506 
 421   0.0000       1.385896        37.7122 
 422   0.0000       1.403019        38.1781 
 423   0.0000       1.404932        38.2302 
 424   0.0000       1.414775        38.4980 
 425   0.0000       1.416347        38.5408 
 426   0.0000       1.422176        38.6994 
 427   0.0000       1.427365        38.8406 
 428   0.0000       1.427892        38.8549 
 429   0.0000       1.435223        39.0544 
 430   0.0000       1.441643        39.2291 
 431   0.0000       1.446629        39.3648 
 432   0.0000       1.452215        39.5168 
 433   0.0000       1.457852        39.6702 
 434   0.0000       1.467879        39.9430 
 435   0.0000       1.471217        40.0338 
 436   0.0000       1.476021        40.1646 
 437   0.0000       1.482705        40.3465 
 438   0.0000       1.486953        40.4620 
 439   0.0000       1.495512        40.6950 
 440   0.0000       1.495913        40.7059 
 441   0.0000       1.498035        40.7636 
 442   0.0000       1.504118        40.9291 
 443   0.0000       1.508355        41.0444 
 444   0.0000       1.518141        41.3107 
 445   0.0000       1.522657        41.4336 
 446   0.0000       1.523990        41.4699 
 447   0.0000       1.527630        41.5689 
 448   0.0000       1.532787        41.7093 
 449   0.0000       1.539218        41.8843 
 450   0.0000       1.547291        42.1039 
 451   0.0000       1.552695        42.2510 
 452   0.0000       1.555786        42.3351 
 453   0.0000       1.563418        42.5428 
 454   0.0000       1.569062        42.6963 
 455   0.0000       1.572060        42.7779 
 456   0.0000       1.580125        42.9974 
 457   0.0000       1.581880        43.0451 
 458   0.0000       1.586724        43.1770 
 459   0.0000       1.590989        43.2930 
 460   0.0000       1.592385        43.3310 
 461   0.0000       1.599658        43.5289 
 462   0.0000       1.607710        43.7480 
 463   0.0000       1.616375        43.9838 
 464   0.0000       1.617558        44.0160 
 465   0.0000       1.625797        44.2402 
 466   0.0000       1.626362        44.2556 
 467   0.0000       1.633112        44.4392 
 468   0.0000       1.638916        44.5972 
 469   0.0000       1.641396        44.6647 
 470   0.0000       1.651189        44.9311 
 471   0.0000       1.657769        45.1102 
 472   0.0000       1.666056        45.3357 
 473   0.0000       1.668665        45.4067 
 474   0.0000       1.674742        45.5720 
 475   0.0000       1.677721        45.6531 
 476   0.0000       1.679712        45.7073 
 477   0.0000       1.687063        45.9073 
 478   0.0000       1.693622        46.0858 
 479   0.0000       1.699174        46.2369 
 480   0.0000       1.701754        46.3071 
 481   0.0000       1.706253        46.4295 
 482   0.0000       1.714655        46.6581 
 483   0.0000       1.721334        46.8399 
 484   0.0000       1.725163        46.9441 
 485   0.0000       1.733988        47.1842 
 486   0.0000       1.737610        47.2828 
 487   0.0000       1.742494        47.4157 
 488   0.0000       1.747352        47.5479 
 489   0.0000       1.750892        47.6442 
 490   0.0000       1.752995        47.7014 
 491   0.0000       1.764065        48.0026 
 492   0.0000       1.768258        48.1168 
 493   0.0000       1.770850        48.1873 
 494   0.0000       1.778651        48.3996 
 495   0.0000       1.779356        48.4187 
 496   0.0000       1.787378        48.6370 
 497   0.0000       1.792903        48.7874 
 498   0.0000       1.800409        48.9916 
 499   0.0000       1.805003        49.1166 
 500   0.0000       1.811808        49.3018 
 501   0.0000       1.815920        49.4137 
 502   0.0000       1.823280        49.6140 
 503   0.0000       1.829246        49.7763 
 504   0.0000       1.836227        49.9663 
 505   0.0000       1.840227        50.0751 
 506   0.0000       1.842239        50.1299 
 507   0.0000       1.848532        50.3011 
 508   0.0000       1.853818        50.4450 
 509   0.0000       1.859492        50.5993 
 510   0.0000       1.862060        50.6692 
 511   0.0000       1.864629        50.7391 
 512   0.0000       1.869029        50.8589 
 513   0.0000       1.870934        50.9107 
 514   0.0000       1.874927        51.0193 
 515   0.0000       1.887104        51.3507 
 516   0.0000       1.891150        51.4608 
 517   0.0000       1.891698        51.4757 
 518   0.0000       1.896728        51.6126 
 519   0.0000       1.902937        51.7815 
 520   0.0000       1.908522        51.9335 
 521   0.0000       1.911757        52.0216 
 522   0.0000       1.924361        52.3645 
 523   0.0000       1.929570        52.5063 
 524   0.0000       1.933308        52.6080 
 525   0.0000       1.940403        52.8011 
 526   0.0000       1.946279        52.9610 
 527   0.0000       1.951238        53.0959 
 528   0.0000       1.956215        53.2313 
 529   0.0000       1.956978        53.2521 
 530   0.0000       1.963844        53.4389 
 531   0.0000       1.968657        53.5699 
 532   0.0000       1.974352        53.7249 
 533   0.0000       1.983351        53.9697 
 534   0.0000       1.984323        53.9962 
 535   0.0000       1.996567        54.3294 
 536   0.0000       2.000359        54.4325 
 537   0.0000       2.003169        54.5090 
 538   0.0000       2.012389        54.7599 
 539   0.0000       2.019712        54.9592 
 540   0.0000       2.029961        55.2381 
 541   0.0000       2.041508        55.5523 
 542   0.0000       2.043803        55.6147 
 543   0.0000       2.047215        55.7075 
 544   0.0000       2.056813        55.9687 
 545   0.0000       2.063359        56.1468 
 546   0.0000       2.075338        56.4728 
 547   0.0000       2.078128        56.5487 
 548   0.0000       2.082801        56.6759 
 549   0.0000       2.092497        56.9397 
 550   0.0000       2.102834        57.2210 
 551   0.0000       2.107279        57.3420 
 552   0.0000       2.110705        57.4352 
 553   0.0000       2.116624        57.5963 
 554   0.0000       2.124404        57.8080 
 555   0.0000       2.126120        57.8547 
 556   0.0000       2.134268        58.0764 
 557   0.0000       2.139945        58.2309 
 558   0.0000       2.146241        58.4022 
 559   0.0000       2.154821        58.6357 
 560   0.0000       2.159093        58.7519 
 561   0.0000       2.163982        58.8849 
 562   0.0000       2.172702        59.1222 
 563   0.0000       2.182608        59.3918 
 564   0.0000       2.187599        59.5276 
 565   0.0000       2.192484        59.6605 
 566   0.0000       2.204938        59.9994 
 567   0.0000       2.208645        60.1003 
 568   0.0000       2.216476        60.3134 
 569   0.0000       2.225510        60.5592 
 570   0.0000       2.233412        60.7742 
 571   0.0000       2.239633        60.9435 
 572   0.0000       2.253731        61.3271 
 573   0.0000       2.258490        61.4566 
 574   0.0000       2.262932        61.5775 
 575   0.0000       2.266402        61.6719 
 576   0.0000       2.267881        61.7122 
 577   0.0000       2.287629        62.2496 
 578   0.0000       2.289203        62.2924 
 579   0.0000       2.294769        62.4438 
 580   0.0000       2.297180        62.5094 
 581   0.0000       2.315994        63.0214 
 582   0.0000       2.320789        63.1519 
 583   0.0000       2.331775        63.4508 
 584   0.0000       2.335165        63.5431 
 585   0.0000       2.347136        63.8688 
 586   0.0000       2.350139        63.9505 
 587   0.0000       2.357203        64.1428 
 588   0.0000       2.368052        64.4380 
 589   0.0000       2.377482        64.6946 
 590   0.0000       2.380756        64.7837 
 591   0.0000       2.387551        64.9686 
 592   0.0000       2.392730        65.1095 
 593   0.0000       2.399380        65.2905 
 594   0.0000       2.402515        65.3758 
 595   0.0000       2.407489        65.5111 
 596   0.0000       2.417701        65.7890 
 597   0.0000       2.429589        66.1125 
 598   0.0000       2.435146        66.2637 
 599   0.0000       2.443329        66.4864 
 600   0.0000       2.452999        66.7495 
 601   0.0000       2.462756        67.0150 
 602   0.0000       2.476021        67.3760 
 603   0.0000       2.485146        67.6243 
 604   0.0000       2.493708        67.8572 
 605   0.0000       2.501705        68.0749 
 606   0.0000       2.515936        68.4621 
 607   0.0000       2.523682        68.6729 
 608   0.0000       2.527172        68.7678 
 609   0.0000       2.540332        69.1259 
 610   0.0000       2.550052        69.3904 
 611   0.0000       2.561558        69.7035 
 612   0.0000       2.580157        70.2096 
 613   0.0000       2.588690        70.4418 
 614   0.0000       2.605419        70.8970 
 615   0.0000       2.617408        71.2233 
 616   0.0000       2.626424        71.4686 
 617   0.0000       2.638786        71.8050 
 618   0.0000       2.647163        72.0330 
 619   0.0000       2.648799        72.0775 
 620   0.0000       2.658173        72.3326 
 621   0.0000       2.664169        72.4957 
 622   0.0000       2.676550        72.8326 
 623   0.0000       2.690239        73.2051 
 624   0.0000       2.699682        73.4621 
 625   0.0000       2.708177        73.6933 
 626   0.0000       2.720643        74.0325 
 627   0.0000       2.721234        74.0486 
 628   0.0000       2.742210        74.6193 
 629   0.0000       2.751552        74.8735 
 630   0.0000       2.757882        75.0458 
 631   0.0000       2.770329        75.3845 
 632   0.0000       2.775682        75.5302 
 633   0.0000       2.782043        75.7032 
 634   0.0000       2.794419        76.0400 
 635   0.0000       2.805935        76.3534 
 636   0.0000       2.822846        76.8135 
 637   0.0000       2.830863        77.0317 
 638   0.0000       2.838811        77.2480 
 639   0.0000       2.855711        77.7078 
 640   0.0000       2.869938        78.0950 
 641   0.0000       2.878550        78.3293 
 642   0.0000       2.883585        78.4663 
 643   0.0000       2.894523        78.7640 
 644   0.0000       2.911220        79.2183 
 645   0.0000       2.926793        79.6421 
 646   0.0000       2.934867        79.8618 
 647   0.0000       2.937640        79.9372 
 648   0.0000       2.956982        80.4636 
 649   0.0000       2.967400        80.7471 
 650   0.0000       2.985999        81.2532 
 651   0.0000       2.987774        81.3015 
 652   0.0000       3.033846        82.5552 
 653   0.0000       3.044531        82.8459 
 654   0.0000       3.057741        83.2054 
 655   0.0000       3.078244        83.7633 
 656   0.0000       3.088611        84.0454 
 657   0.0000       3.091491        84.1238 
 658   0.0000       3.113186        84.7141 
 659   0.0000       3.136061        85.3366 
 660   0.0000       3.138557        85.4045 
 661   0.0000       3.153419        85.8089 
 662   0.0000       3.172579        86.3303 
 663   0.0000       3.182131        86.5902 
 664   0.0000       3.183182        86.6188 
 665   0.0000       3.200666        87.0946 
 666   0.0000       3.219991        87.6204 
 667   0.0000       3.224278        87.7371 
 668   0.0000       3.228449        87.8506 
 669   0.0000       3.244456        88.2861 
 670   0.0000       3.251772        88.4852 
 671   0.0000       3.262702        88.7826 
 672   0.0000       3.267763        88.9203 
 673   0.0000       3.281100        89.2833 
 674   0.0000       3.292593        89.5960 
 675   0.0000       3.298029        89.7439 
 676   0.0000       3.303103        89.8820 
 677   0.0000       3.313303        90.1596 
 678   0.0000       3.325566        90.4932 
 679   0.0000       3.333130        90.6991 
 680   0.0000       3.341258        90.9203 
 681   0.0000       3.346181        91.0542 
 682   0.0000       3.355363        91.3041 
 683   0.0000       3.358551        91.3908 
 684   0.0000       3.380053        91.9759 
 685   0.0000       3.387062        92.1666 
 686   0.0000       3.395681        92.4012 
 687   0.0000       3.398893        92.4886 
 688   0.0000       3.429189        93.3130 
 689   0.0000       3.437093        93.5281 
 690   0.0000       3.443641        93.7062 
 691   0.0000       3.451606        93.9230 
 692   0.0000       3.463242        94.2396 
 693   0.0000       3.470236        94.4299 
 694   0.0000       3.476279        94.5944 
 695   0.0000       3.491393        95.0056 
 696   0.0000       3.495391        95.1144 
 697   0.0000       3.501242        95.2736 
 698   0.0000       3.512700        95.5854 
 699   0.0000       3.516233        95.6816 
 700   0.0000       3.525074        95.9221 
 701   0.0000       3.537006        96.2468 
 702   0.0000       3.544510        96.4510 
 703   0.0000       3.557393        96.8016 
 704   0.0000       3.562494        96.9404 
 705   0.0000       3.567525        97.0773 
 706   0.0000       3.577194        97.3404 
 707   0.0000       3.579141        97.3934 
 708   0.0000       3.591204        97.7216 
 709   0.0000       3.595092        97.8274 
 710   0.0000       3.617591        98.4397 
 711   0.0000       3.624461        98.6266 
 712   0.0000       3.633471        98.8718 
 713   0.0000       3.640256        99.0564 
 714   0.0000       3.649094        99.2969 
 715   0.0000       3.660674        99.6120 
 716   0.0000       3.661628        99.6380 
 717   0.0000       3.669608        99.8551 
 718   0.0000       3.679368       100.1207 
 719   0.0000       3.692099       100.4671 
 720   0.0000       3.693120       100.4949 
 721   0.0000       3.698624       100.6447 
 722   0.0000       3.702889       100.7607 
 723   0.0000       3.707694       100.8915 
 724   0.0000       3.722055       101.2823 
 725   0.0000       3.723329       101.3169 
 726   0.0000       3.736294       101.6697 
 727   0.0000       3.738585       101.7321 
 728   0.0000       3.750062       102.0444 
 729   0.0000       3.757073       102.2352 
 730   0.0000       3.764739       102.4437 
 731   0.0000       3.779700       102.8509 
 732   0.0000       3.785856       103.0184 
 733   0.0000       3.793255       103.2197 
 734   0.0000       3.797830       103.3442 
 735   0.0000       3.806671       103.5848 
 736   0.0000       3.815499       103.8250 
 737   0.0000       3.822706       104.0211 
 738   0.0000       3.833693       104.3201 
 739   0.0000       3.841536       104.5335 
 740   0.0000       3.843083       104.5756 
 741   0.0000       3.846510       104.6688 
 742   0.0000       3.852142       104.8221 
 743   0.0000       3.859003       105.0088 
 744   0.0000       3.871507       105.3491 
 745   0.0000       3.877804       105.5204 
 746   0.0000       3.882762       105.6553 
 747   0.0000       3.891411       105.8907 
 748   0.0000       3.899020       106.0977 
 749   0.0000       3.905303       106.2687 
 750   0.0000       3.912070       106.4528 
 751   0.0000       3.913760       106.4988 
 752   0.0000       3.927396       106.8699 
 753   0.0000       3.928248       106.8931 
 754   0.0000       3.939086       107.1880 
 755   0.0000       3.942279       107.2749 
 756   0.0000       3.947237       107.4098 
 757   0.0000       3.951036       107.5132 
 758   0.0000       3.957143       107.6793 
 759   0.0000       3.968727       107.9945 
 760   0.0000       3.977202       108.2252 
 761   0.0000       3.979381       108.2845 
 762   0.0000       3.992004       108.6280 
 763   0.0000       4.003520       108.9413 
 764   0.0000       4.011431       109.1566 
 765   0.0000       4.017173       109.3128 
 766   0.0000       4.021559       109.4322 
 767   0.0000       4.024503       109.5123 
 768   0.0000       4.033136       109.7472 
 769   0.0000       4.040163       109.9384 
 770   0.0000       4.052890       110.2847 
 771   0.0000       4.059472       110.4639 
 772   0.0000       4.062462       110.5452 
 773   0.0000       4.072656       110.8226 
 774   0.0000       4.077983       110.9676 
 775   0.0000       4.087696       111.2319 
 776   0.0000       4.089898       111.2918 
 777   0.0000       4.104753       111.6960 
 778   0.0000       4.105856       111.7260 
 779   0.0000       4.123156       112.1968 
 780   0.0000       4.126535       112.2887 
 781   0.0000       4.131950       112.4361 
 782   0.0000       4.141778       112.7035 
 783   0.0000       4.157270       113.1251 
 784   0.0000       4.166239       113.3691 
 785   0.0000       4.172832       113.5485 
 786   0.0000       4.176487       113.6480 
 787   0.0000       4.186419       113.9183 
 788   0.0000       4.198192       114.2386 
 789   0.0000       4.207623       114.4952 
 790   0.0000       4.221028       114.8600 
 791   0.0000       4.225538       114.9827 
 792   0.0000       4.231942       115.1570 
 793   0.0000       4.241890       115.4277 
 794   0.0000       4.258923       115.8912 
 795   0.0000       4.265610       116.0731 
 796   0.0000       4.267695       116.1299 
 797   0.0000       4.273042       116.2754 
 798   0.0000       4.278549       116.4252 
 799   0.0000       4.291378       116.7743 
 800   0.0000       4.296214       116.9059 
 801   0.0000       4.301290       117.0441 
 802   0.0000       4.321179       117.5853 
 803   0.0000       4.322526       117.6219 
 804   0.0000       4.329684       117.8167 
 805   0.0000       4.345572       118.2490 
 806   0.0000       4.354958       118.5044 
 807   0.0000       4.364349       118.7600 
 808   0.0000       4.377885       119.1283 
 809   0.0000       4.381000       119.2131 
 810   0.0000       4.398036       119.6766 
 811   0.0000       4.405103       119.8689 
 812   0.0000       4.406736       119.9134 
 813   0.0000       4.421615       120.3183 
 814   0.0000       4.429884       120.5433 
 815   0.0000       4.430913       120.5713 
 816   0.0000       4.450453       121.1030 
 817   0.0000       4.458261       121.3155 
 818   0.0000       4.475120       121.7742 
 819   0.0000       4.477850       121.8485 
 820   0.0000       4.489312       122.1604 
 821   0.0000       4.495889       122.3394 
 822   0.0000       4.496510       122.3563 
 823   0.0000       4.507949       122.6675 
 824   0.0000       4.511348       122.7600 
 825   0.0000       4.523860       123.1005 
 826   0.0000       4.531085       123.2971 
 827   0.0000       4.535796       123.4253 
 828   0.0000       4.550489       123.8251 
 829   0.0000       4.559228       124.0629 
 830   0.0000       4.562674       124.1567 
 831   0.0000       4.575391       124.5027 
 832   0.0000       4.590283       124.9079 
 833   0.0000       4.600203       125.1779 
 834   0.0000       4.631983       126.0427 
 835   0.0000       4.637036       126.1802 
 836   0.0000       4.647472       126.4641 
 837   0.0000       4.658154       126.7548 
 838   0.0000       4.663647       126.9043 
 839   0.0000       4.675608       127.2298 
 840   0.0000       4.683596       127.4471 
 841   0.0000       4.690336       127.6305 
 842   0.0000       4.701279       127.9283 
 843   0.0000       4.713344       128.2566 
 844   0.0000       4.733367       128.8015 
 845   0.0000       4.753436       129.3476 
 846   0.0000       4.764827       129.6575 
 847   0.0000       4.772794       129.8743 
 848   0.0000       4.783490       130.1654 
 849   0.0000       4.786141       130.2375 
 850   0.0000       4.804003       130.7236 
 851   0.0000       4.821586       131.2020 
 852   0.0000       4.825932       131.3203 
 853   0.0000       4.829830       131.4264 
 854   0.0000       4.839041       131.6770 
 855   0.0000       4.853213       132.0626 
 856   0.0000       4.870470       132.5322 
 857   0.0000       4.875711       132.6748 
 858   0.0000       4.886114       132.9579 
 859   0.0000       4.897677       133.2726 
 860   0.0000       4.898689       133.3001 
 861   0.0000       4.913606       133.7060 
 862   0.0000       4.927958       134.0966 
 863   0.0000       4.940615       134.4410 
 864   0.0000       4.945609       134.5769 
 865   0.0000       4.950802       134.7182 
 866   0.0000       4.972450       135.3073 
 867   0.0000       4.988700       135.7494 
 868   0.0000       5.001723       136.1038 
 869   0.0000       5.006802       136.2420 
 870   0.0000       5.011888       136.3804 
 871   0.0000       5.032942       136.9533 
 872   0.0000       5.043073       137.2290 
 873   0.0000       5.049444       137.4023 
 874   0.0000       5.072494       138.0296 
 875   0.0000       5.082609       138.3048 
 876   0.0000       5.091095       138.5357 
 877   0.0000       5.098735       138.7436 
 878   0.0000       5.113042       139.1330 
 879   0.0000       5.126991       139.5125 
 880   0.0000       5.137041       139.7860 
 881   0.0000       5.153486       140.2335 
 882   0.0000       5.166557       140.5892 
 883   0.0000       5.175984       140.8457 
 884   0.0000       5.194141       141.3398 
 885   0.0000       5.214556       141.8953 
 886   0.0000       5.217836       141.9845 
 887   0.0000       5.229722       142.3080 
 888   0.0000       5.235765       142.4724 
 889   0.0000       5.256100       143.0258 
 890   0.0000       5.264675       143.2591 
 891   0.0000       5.273981       143.5123 
 892   0.0000       5.281848       143.7264 
 893   0.0000       5.304648       144.3468 
 894   0.0000       5.314723       144.6210 
 895   0.0000       5.327121       144.9583 
 896   0.0000       5.338763       145.2751 
 897   0.0000       5.352876       145.6592 
 898   0.0000       5.368808       146.0927 
 899   0.0000       5.370728       146.1449 
 900   0.0000       5.389553       146.6572 
 901   0.0000       5.401902       146.9932 
 902   0.0000       5.403464       147.0357 
 903   0.0000       5.413711       147.3146 
 904   0.0000       5.429602       147.7470 
 905   0.0000       5.440692       148.0488 
 906   0.0000       5.447527       148.2347 
 907   0.0000       5.450107       148.3050 
 908   0.0000       5.463529       148.6702 
 909   0.0000       5.481342       149.1549 
 910   0.0000       5.491764       149.4385 
 911   0.0000       5.511450       149.9742 
 912   0.0000       5.536800       150.6640 
 913   0.0000       5.538367       150.7066 
 914   0.0000       5.558211       151.2466 
 915   0.0000       5.565070       151.4333 
 916   0.0000       5.581283       151.8744 
 917   0.0000       5.589593       152.1006 
 918   0.0000       5.604967       152.5189 
 919   0.0000       5.619025       152.9014 
 920   0.0000       5.628320       153.1544 
 921   0.0000       5.632528       153.2689 
 922   0.0000       5.644644       153.5986 
 923   0.0000       5.654478       153.8662 
 924   0.0000       5.664523       154.1395 
 925   0.0000       5.677872       154.5027 
 926   0.0000       5.682012       154.6154 
 927   0.0000       5.706426       155.2798 
 928   0.0000       5.718384       155.6051 
 929   0.0000       5.729959       155.9201 
 930   0.0000       5.736246       156.0912 
 931   0.0000       5.744623       156.3191 
 932   0.0000       5.762641       156.8094 
 933   0.0000       5.765521       156.8878 
 934   0.0000       5.781417       157.3204 
 935   0.0000       5.796136       157.7209 
 936   0.0000       5.807474       158.0294 
 937   0.0000       5.826989       158.5604 
 938   0.0000       5.836325       158.8145 
 939   0.0000       5.845678       159.0690 
 940   0.0000       5.852444       159.2531 
 941   0.0000       5.866291       159.6299 
 942   0.0000       5.909206       160.7977 
 943   0.0000       5.911043       160.8477 
 944   0.0000       5.931427       161.4023 
 945   0.0000       5.982484       162.7917 
 946   0.0000       6.067857       165.1148 
 947   0.0000       6.085447       165.5934 
 948   0.0000       6.103092       166.0736 
 949   0.0000       6.123376       166.6255 
 950   0.0000       6.151677       167.3956 
 951   0.0000       6.186759       168.3503 
 952   0.0000       6.190279       168.4461 
 953   0.0000       6.201694       168.7567 
 954   0.0000       6.212160       169.0415 
 955   0.0000       6.227431       169.4570 
 956   0.0000       6.229717       169.5192 
 957   0.0000       6.260503       170.3569 
 958   0.0000       6.278711       170.8524 
 959   0.0000       6.312769       171.7792 
 960   0.0000       6.322133       172.0340 
 961   0.0000       6.342229       172.5808 
 962   0.0000       6.357806       173.0047 
 963   0.0000       6.379684       173.6000 
 964   0.0000       6.391707       173.9272 
 965   0.0000       6.401610       174.1967 
 966   0.0000       6.435025       175.1059 
 967   0.0000       6.451736       175.5607 
 968   0.0000       6.484285       176.4464 
 969   0.0000       6.510219       177.1521 
 970   0.0000       6.605223       179.7372 
 971   0.0000       6.739541       183.3922 
 972   0.0000       6.832503       185.9218 
 973   0.0000       6.854613       186.5235 
 974   0.0000       6.889604       187.4757 
 975   0.0000       6.922793       188.3788 
 976   0.0000       6.935398       188.7218 
 977   0.0000       6.980127       189.9389 
 978   0.0000       6.981806       189.9846 
 979   0.0000       6.989990       190.2073 
 980   0.0000       6.997223       190.4041 
 981   0.0000       7.041184       191.6004 
 982   0.0000       7.080776       192.6777 
 983   0.0000       7.088930       192.8996 
 984   0.0000       7.141479       194.3295 
 985   0.0000       7.198994       195.8946 
 986   0.0000       7.327598       199.3941 
 987   0.0000       7.365294       200.4198 
 988   0.0000       7.469227       203.2480 
 989   0.0000       7.517222       204.5540 
 990   0.0000       7.551991       205.5001 
 991   0.0000       7.666538       208.6171 
 992   0.0000       7.688219       209.2071 
 993   0.0000       7.777278       211.6305 
 994   0.0000       7.831794       213.1139 
 995   0.0000       7.908050       215.1890 
 996   0.0000       8.049359       219.0342 
 997   0.0000       8.107837       220.6255 
 998   0.0000       8.368547       227.7197 
 999   0.0000       9.437381       256.8042 
 1000   0.0000       9.454010       257.2567 
 1001   0.0000       9.473436       257.7853 
 1002   0.0000       9.480362       257.9738 
 1003   0.0000       9.493025       258.3183 
 1004   0.0000       9.530159       259.3288 
 1005   0.0000       9.763904       265.6893 
 1006   0.0000      10.106540       275.0129 
 1007   0.0000      10.129923       275.6492 
 1008   0.0000      10.146593       276.1028 
 1009   0.0000      10.221546       278.1424 
 1010   0.0000      10.232364       278.4368 
 1011   0.0000      10.251634       278.9611 
 1012   0.0000      10.403078       283.0821 
 1013   0.0000      10.440959       284.1129 
 1014   0.0000      10.565089       287.4907 
 1015   0.0000      15.196632       413.5214 
 1016   0.0000      17.603339       479.0112 
 1017   0.0000      18.236122       496.2301 
 1018   0.0000      18.474042       502.7042 
 1019   0.0000      18.658789       507.7315 
 1020   0.0000      18.955936       515.8172 
 1021   0.0000      19.124466       520.4032 
 1022   0.0000      20.188622       549.3603 
 1023   0.0000      20.399166       555.0895 
 1024   0.0000      21.936594       596.9251 

                 SPIN DOWN ORBITALS
  NO   OCC          E(Eh)            E(eV) 
   0   1.0000    -261.545689     -7117.0200 
   1   1.0000    -104.775690     -2851.0915 
   2   1.0000    -104.771673     -2850.9822 
   3   1.0000    -104.769813     -2850.9316 
   4   1.0000     -32.055060      -872.2625 
   5   1.0000     -27.533133      -749.2146 
   6   1.0000     -27.532982      -749.2105 
   7   1.0000     -27.532488      -749.1971 
   8   1.0000     -20.544701      -559.0497 
   9   1.0000     -11.378171      -309.6158 
  10   1.0000     -11.372109      -309.4508 
  11   1.0000     -11.284629      -307.0704 
  12   1.0000     -11.280873      -306.9682 
  13   1.0000     -11.266494      -306.5769 
  14   1.0000     -11.254107      -306.2398 
  15   1.0000     -11.251782      -306.1766 
  16   1.0000     -11.243657      -305.9555 
  17   1.0000     -10.502182      -285.7789 
  18   1.0000     -10.498148      -285.6691 
  19   1.0000     -10.496312      -285.6192 
  20   1.0000      -7.968027      -216.8210 
  21   1.0000      -7.967584      -216.8090 
  22   1.0000      -7.967509      -216.8069 
  23   1.0000      -7.964123      -216.7148 
  24   1.0000      -7.963444      -216.6963 
  25   1.0000      -7.963354      -216.6939 
  26   1.0000      -7.962260      -216.6641 
  27   1.0000      -7.961555      -216.6449 
  28   1.0000      -7.961476      -216.6428 
  29   1.0000      -4.130189      -112.3882 
  30   1.0000      -2.652035       -72.1655 
  31   1.0000      -2.651941       -72.1630 
  32   1.0000      -2.651041       -72.1385 
  33   1.0000      -1.375545       -37.4305 
  34   1.0000      -1.182688       -32.1826 
  35   1.0000      -1.080991       -29.4153 
  36   1.0000      -1.042901       -28.3788 
  37   1.0000      -1.033016       -28.1098 
  38   1.0000      -1.021445       -27.7949 
  39   1.0000      -1.018064       -27.7029 
  40   1.0000      -1.005123       -27.3508 
  41   1.0000      -0.977100       -26.5883 
  42   1.0000      -0.930733       -25.3265 
  43   1.0000      -0.797119       -21.6907 
  44   1.0000      -0.769554       -20.9406 
  45   1.0000      -0.703133       -19.1332 
  46   1.0000      -0.689857       -18.7720 
  47   1.0000      -0.673731       -18.3331 
  48   1.0000      -0.654706       -17.8155 
  49   1.0000      -0.646299       -17.5867 
  50   1.0000      -0.627838       -17.0843 
  51   1.0000      -0.599059       -16.3012 
  52   1.0000      -0.596640       -16.2354 
  53   1.0000      -0.589784       -16.0488 
  54   1.0000      -0.578125       -15.7316 
  55   1.0000      -0.575874       -15.6703 
  56   1.0000      -0.561194       -15.2709 
  57   1.0000      -0.555512       -15.1163 
  58   1.0000      -0.545673       -14.8485 
  59   1.0000      -0.531091       -14.4517 
  60   1.0000      -0.527534       -14.3549 
  61   1.0000      -0.502971       -13.6865 
  62   1.0000      -0.471474       -12.8295 
  63   1.0000      -0.465095       -12.6559 
  64   1.0000      -0.459416       -12.5013 
  65   1.0000      -0.436850       -11.8873 
  66   1.0000      -0.433735       -11.8025 
  67   1.0000      -0.431844       -11.7511 
  68   1.0000      -0.422537       -11.4978 
  69   1.0000      -0.411579       -11.1996 
  70   1.0000      -0.399036       -10.8583 
  71   1.0000      -0.388994       -10.5851 
  72   0.0000       0.007071         0.1924 
  73   0.0000       0.016145         0.4393 
  74   0.0000       0.020317         0.5529 
  75   0.0000       0.020729         0.5641 
  76   0.0000       0.030752         0.8368 
  77   0.0000       0.037850         1.0299 
  78   0.0000       0.039485         1.0744 
  79   0.0000       0.044119         1.2005 
  80   0.0000       0.045447         1.2367 
  81   0.0000       0.046856         1.2750 
  82   0.0000       0.056946         1.5496 
  83   0.0000       0.059249         1.6122 
  84   0.0000       0.061514         1.6739 
  85   0.0000       0.064165         1.7460 
  86   0.0000       0.065811         1.7908 
  87   0.0000       0.071302         1.9402 
  88   0.0000       0.074961         2.0398 
  89   0.0000       0.078493         2.1359 
  90   0.0000       0.088531         2.4090 
  91   0.0000       0.089199         2.4272 
  92   0.0000       0.093773         2.5517 
  93   0.0000       0.095692         2.6039 
  94   0.0000       0.098518         2.6808 
  95   0.0000       0.100443         2.7332 
  96   0.0000       0.108996         2.9659 
  97   0.0000       0.113481         3.0880 
  98   0.0000       0.121114         3.2957 
  99   0.0000       0.122118         3.3230 
 100   0.0000       0.123332         3.3560 
 101   0.0000       0.124917         3.3992 
 102   0.0000       0.125737         3.4215 
 103   0.0000       0.127219         3.4618 
 104   0.0000       0.129746         3.5306 
 105   0.0000       0.130816         3.5597 
 106   0.0000       0.132037         3.5929 
 107   0.0000       0.135390         3.6841 
 108   0.0000       0.137238         3.7344 
 109   0.0000       0.139317         3.7910 
 110   0.0000       0.139498         3.7959 
 111   0.0000       0.140385         3.8201 
 112   0.0000       0.145913         3.9705 
 113   0.0000       0.148892         4.0516 
 114   0.0000       0.152438         4.1481 
 115   0.0000       0.155928         4.2430 
 116   0.0000       0.159649         4.3443 
 117   0.0000       0.164303         4.4709 
 118   0.0000       0.164575         4.4783 
 119   0.0000       0.168152         4.5756 
 120   0.0000       0.170162         4.6303 
 121   0.0000       0.174887         4.7589 
 122   0.0000       0.176530         4.8036 
 123   0.0000       0.180364         4.9079 
 124   0.0000       0.183512         4.9936 
 125   0.0000       0.189610         5.1595 
 126   0.0000       0.190423         5.1817 
 127   0.0000       0.198241         5.3944 
 128   0.0000       0.199551         5.4301 
 129   0.0000       0.201777         5.4906 
 130   0.0000       0.206513         5.6195 
 131   0.0000       0.209078         5.6893 
 132   0.0000       0.210154         5.7186 
 133   0.0000       0.215875         5.8743 
 134   0.0000       0.217723         5.9245 
 135   0.0000       0.222656         6.0588 
 136   0.0000       0.227405         6.1880 
 137   0.0000       0.229835         6.2541 
 138   0.0000       0.230531         6.2731 
 139   0.0000       0.234846         6.3905 
 140   0.0000       0.237396         6.4599 
 141   0.0000       0.242433         6.5969 
 142   0.0000       0.245115         6.6699 
 143   0.0000       0.247863         6.7447 
 144   0.0000       0.248668         6.7666 
 145   0.0000       0.253442         6.8965 
 146   0.0000       0.255498         6.9525 
 147   0.0000       0.260339         7.0842 
 148   0.0000       0.263483         7.1697 
 149   0.0000       0.273097         7.4313 
 150   0.0000       0.276043         7.5115 
 151   0.0000       0.278613         7.5814 
 152   0.0000       0.279549         7.6069 
 153   0.0000       0.286459         7.7949 
 154   0.0000       0.288482         7.8500 
 155   0.0000       0.290603         7.9077 
 156   0.0000       0.296908         8.0793 
 157   0.0000       0.302124         8.2212 
 158   0.0000       0.303039         8.2461 
 159   0.0000       0.307259         8.3609 
 160   0.0000       0.308663         8.3992 
 161   0.0000       0.316832         8.6214 
 162   0.0000       0.324491         8.8299 
 163   0.0000       0.326238         8.8774 
 164   0.0000       0.329723         8.9722 
 165   0.0000       0.332029         9.0350 
 166   0.0000       0.336193         9.1483 
 167   0.0000       0.342640         9.3237 
 168   0.0000       0.344467         9.3734 
 169   0.0000       0.347692         9.4612 
 170   0.0000       0.353115         9.6087 
 171   0.0000       0.356195         9.6926 
 172   0.0000       0.359674         9.7872 
 173   0.0000       0.362205         9.8561 
 174   0.0000       0.363024         9.8784 
 175   0.0000       0.369393        10.0517 
 176   0.0000       0.372367        10.1326 
 177   0.0000       0.375208        10.2099 
 178   0.0000       0.379361        10.3229 
 179   0.0000       0.385046        10.4776 
 180   0.0000       0.389397        10.5960 
 181   0.0000       0.389561        10.6005 
 182   0.0000       0.392807        10.6888 
 183   0.0000       0.393421        10.7055 
 184   0.0000       0.396662        10.7937 
 185   0.0000       0.399832        10.8800 
 186   0.0000       0.402612        10.9556 
 187   0.0000       0.402948        10.9648 
 188   0.0000       0.406565        11.0632 
 189   0.0000       0.415973        11.3192 
 190   0.0000       0.418962        11.4005 
 191   0.0000       0.420155        11.4330 
 192   0.0000       0.425291        11.5728 
 193   0.0000       0.427881        11.6432 
 194   0.0000       0.432015        11.7557 
 195   0.0000       0.436467        11.8769 
 196   0.0000       0.437376        11.9016 
 197   0.0000       0.442593        12.0436 
 198   0.0000       0.446992        12.1633 
 199   0.0000       0.453383        12.3372 
 200   0.0000       0.455059        12.3828 
 201   0.0000       0.457783        12.4569 
 202   0.0000       0.461709        12.5638 
 203   0.0000       0.468124        12.7383 
 204   0.0000       0.472235        12.8502 
 205   0.0000       0.473957        12.8970 
 206   0.0000       0.479355        13.0439 
 207   0.0000       0.480203        13.0670 
 208   0.0000       0.485247        13.2042 
 209   0.0000       0.488520        13.2933 
 210   0.0000       0.489771        13.3274 
 211   0.0000       0.491473        13.3737 
 212   0.0000       0.495157        13.4739 
 213   0.0000       0.497167        13.5286 
 214   0.0000       0.498579        13.5670 
 215   0.0000       0.501566        13.6483 
 216   0.0000       0.504015        13.7150 
 217   0.0000       0.511723        13.9247 
 218   0.0000       0.513657        13.9773 
 219   0.0000       0.516312        14.0496 
 220   0.0000       0.519656        14.1405 
 221   0.0000       0.524795        14.2804 
 222   0.0000       0.526681        14.3317 
 223   0.0000       0.528882        14.3916 
 224   0.0000       0.531779        14.4704 
 225   0.0000       0.537233        14.6188 
 226   0.0000       0.539994        14.6940 
 227   0.0000       0.541003        14.7214 
 228   0.0000       0.546127        14.8609 
 229   0.0000       0.551495        15.0070 
 230   0.0000       0.553960        15.0740 
 231   0.0000       0.559824        15.2336 
 232   0.0000       0.562755        15.3134 
 233   0.0000       0.564762        15.3680 
 234   0.0000       0.569225        15.4894 
 235   0.0000       0.571227        15.5439 
 236   0.0000       0.573033        15.5930 
 237   0.0000       0.575359        15.6563 
 238   0.0000       0.581352        15.8194 
 239   0.0000       0.586920        15.9709 
 240   0.0000       0.591747        16.1023 
 241   0.0000       0.594316        16.1722 
 242   0.0000       0.595135        16.1945 
 243   0.0000       0.603038        16.4095 
 244   0.0000       0.604311        16.4441 
 245   0.0000       0.607101        16.5201 
 246   0.0000       0.608607        16.5610 
 247   0.0000       0.615969        16.7614 
 248   0.0000       0.619093        16.8464 
 249   0.0000       0.625293        17.0151 
 250   0.0000       0.629244        17.1226 
 251   0.0000       0.632250        17.2044 
 252   0.0000       0.635615        17.2960 
 253   0.0000       0.641782        17.4638 
 254   0.0000       0.643053        17.4984 
 255   0.0000       0.645358        17.5611 
 256   0.0000       0.650000        17.6874 
 257   0.0000       0.657276        17.8854 
 258   0.0000       0.661939        18.0123 
 259   0.0000       0.664430        18.0801 
 260   0.0000       0.666011        18.1231 
 261   0.0000       0.669208        18.2101 
 262   0.0000       0.677188        18.4272 
 263   0.0000       0.682239        18.5647 
 264   0.0000       0.685351        18.6494 
 265   0.0000       0.691566        18.8185 
 266   0.0000       0.695421        18.9234 
 267   0.0000       0.698113        18.9966 
 268   0.0000       0.701252        19.0820 
 269   0.0000       0.704466        19.1695 
 270   0.0000       0.712123        19.3778 
 271   0.0000       0.716116        19.4865 
 272   0.0000       0.719958        19.5911 
 273   0.0000       0.727642        19.8002 
 274   0.0000       0.729624        19.8541 
 275   0.0000       0.734277        19.9807 
 276   0.0000       0.735701        20.0194 
 277   0.0000       0.742386        20.2014 
 278   0.0000       0.744187        20.2503 
[...]
  | sigma^2 in % of trace(Dij) retained ...   8.92e+00
  | sigma^2 in % of trace(Dip) retained ...   1.60e+01
  | sigma^2 in % of trace(Dpq) retained ...   1.31e-01
  | Av. % of trace(Di) retained         ...  99.998505186982
  | Av. % of trace(Dp) retained         ...  99.999999124065
  | sigma^2 in % of trace(Di) retained  ...   7.42e-07
  | sigma^2 in % of trace(Dp) retained  ...   1.15e-12
 Distributions of % trace(Dij) recovered:
  |       >= 99.9  ...   103 ( 20.0 % of all IJ-pairs)
  |   [80.0, 90.0) ...    37 (  7.2 % of all IJ-pairs)
  |   [90.0, 99.0) ...   281 ( 54.5 % of all IJ-pairs)
  |   [99.0, 99.9) ...    95 ( 18.4 % of all IJ-pairs)
 Distributions of % trace(Dip) recovered:
  |   [80.0, 90.0) ...    11 (  9.2 % of all IP-pairs)
  |   [90.0, 99.0) ...    66 ( 55.5 % of all IP-pairs)
  |   [99.0, 99.9) ...    42 ( 35.3 % of all IP-pairs)
 Distributions of % trace(Dpq) recovered:
  |       >= 99.9  ...     5 ( 33.3 % of all PQ-pairs)
  |   [99.0, 99.9) ...    10 ( 66.7 % of all PQ-pairs)
 Distributions of % trace(Di) recovered :
  |       >= 99.9  ...    43 (100.0 % of all I-pairs )
 Distributions of % trace(Dp) recovered :
  |       >= 99.9  ...     5 (100.0 % of all P-pairs )

                       ===========================
                       1133 OF 1698 PAIRS ARE KEPT
                       ===========================

 Initial PAO correlation energy (all pairs)    ...  -2.6955135304 Eh
 Energy constituents in PAO basis (Eh):
  | Vijab(+0) ...  -2.2663074722
  | Viab (-1) ...  -0.1752707464
  | Vab  (-2) ...  -0.0573662355
  | Va   (-1) ...  -0.0000411382
  | Vija (+1) ...  -0.0727068455
  | Vij  (+2) ...  -0.0154903328
  | Via  (+0) ...  -0.1081728327
  | Vi   (+1) ...  -0.0001579272
 Initial PNO correlation energy                ...  -2.6611611567 Eh
 Energy constituents in PNO basis (Eh):
  | Vijab(+0) ...  -2.2478910216 (err=  0.0184164505)
  | Viab (-1) ...  -0.1610384427 (err=  0.0142323037)
  | Vab  (-2) ...  -0.0568998740 (err=  0.0004663615)
  | Va   (-1) ...  -0.0000236671 (err=  0.0000174711)
  | Vija (+1) ...  -0.0716467698 (err=  0.0010600757)
  | Vij  (+2) ...  -0.0154293384 (err=  0.0000609945)
  | Via  (+0) ...  -0.1080744048 (err=  0.0000984278)
  | Vi   (+1) ...  -0.0001576382 (err=  0.0000002890)
 Sum of total truncation errors ...   0.0343523737 Eh
  | Pair screening ...   0.0112084532 Eh
  | PNO truncation ...   0.0231439204 Eh

 UMP2 correlation energy (PAO) ...  -2.6906537711
  | alpha-alpha ...  -0.3871602478 (NP_aa=  920)
  | alpha-beta  ...  -1.9959137188 (NP_ab= 1673)
  | beta -beta  ...  -0.3075798045 (NP_bb=  720)
 UMP2 correlation energy (PNO) ...  -2.6559243192
  | alpha-alpha ...  -0.3751652815 (err=  0.0119949663, NP_aa=  602)
  | alpha-beta  ...  -1.9772103353 (err=  0.0187033835, NP_ab= 1108)
  | beta -beta  ...  -0.3035487024 (err=  0.0040311021, NP_bb=  473)
 Sum of total UMP2 truncation errors ...   0.0347294519 Eh
  | Pair screening ...   0.0112301882 Eh
  | PNO truncation ...   0.0234992637 Eh
 Timing for NEV-PNO construction (sec.)
  | Intermediate construction  ..           68.463
  | Amplitude construction     ..           73.600
  | Total time                 ..          142.063
 Making pair pair interaction lists ...      ok
 Total size for 2-ext PNO integrals ...     11.1 MB
Checking the number of SOMO/SOMO doubles PNOs ... 
 #Truncate: (72, 72)[171] -> [85] .. 
 #Truncate: (73, 73)[170] -> [85] .. 
 #Truncate: (74, 74)[170] -> [85] .. 
 #Truncate: (75, 75)[170] -> [85] .. 
 #Truncate: (76, 76)[170] -> [85] .. 

--------------------------------
LOCAL RI TRANSFORMATION (VABPAO)
--------------------------------

Number of PAOs:    1030
Basis functions:   1025 (343 shells)
Aux. functions:    2424 (644 shells)

Processing maps (0.0 sec)
Average map sizes:
   Aux shells -> PAOs           1030.0
   PAOs       -> AO shells       343.0

Calculating integrals (231.4 sec, 37370.165 MB)
Finished
-----------------------------
LOCAL RI TRANSFORMATION (IJV)
-----------------------------

Orbital window:      29 to 76
Basis functions:   1025 (343 shells)
Aux. functions:    2424 (644 shells)

Processing maps (0.0 sec)
Average map sizes:
   Aux shells -> MOs(i)           47.0
   Aux shells -> MOs(j)           48.0
   MOs        -> AO shells       338.4

Calculating integrals (24.5 sec, 41.869 MB)
Sorting integrals (0.3 sec, 41.842 MB)
Total time for the integral transformation: 24.9 sec


-------------------------------------
Pair Pair Term precalculation with     
RI-(ij|mn) and (im|jn) transformation  
ON THE FLY                             
-------------------------------------

   IBatch   1 (of   2)              ... done ( 1464.666 sec)
   IBatch   2 (of   2)              ... done ( 1314.015 sec)
Total EXT                           ...        2778.681 sec

---------------------
RI-PNO TRANSFORMATION
---------------------

Total Number of PNOs                   ... 35167
Total Number of IJ-PNOs                ... 30973
Total Number of IP-PNOs                ...  3245
Total Number of PQ-PNOs                ...   949
Total Number of IJ-pairs               ...   989
Total Number of PI-pairs               ...   119
Total Number of PQ-pairs               ...    25
Average number of PNOs per pair        ...    31
Maximal number of PNOs per pair        ...    85
>> Statistics for ij-pairs..
   #pairs with  1 -  5 PNOs   :    0
   #pairs with  6 - 10 PNOs   :    0
   #pairs with 11 - 15 PNOs   :   62
   #pairs with 16 - 20 PNOs   :  238
   #pairs with 21 - 25 PNOs   :  182
   #pairs with 26 - 30 PNOs   :  146
   #pairs with 31 - 35 PNOs   :   66
   #pairs with 36 - 40 PNOs   :   52
   #pairs with 41 - 45 PNOs   :   50
   #pairs with 46 - 50 PNOs   :   18
   #pairs with 51 - 55 PNOs   :   38
   #pairs with 56 - 60 PNOs   :   51
   #pairs with 61 - 65 PNOs   :   77
   #pairs with 66 - 70 PNOs   :    6
   #pairs with 71 - 75 PNOs   :    1
   #pairs with 76 - 80 PNOs   :    2
>> Statistics for ip-pairs..
   #pairs with  1 -  5 PNOs   :    0
   #pairs with  6 - 10 PNOs   :    2
   #pairs with 11 - 15 PNOs   :   16
   #pairs with 16 - 20 PNOs   :    4
   #pairs with 21 - 25 PNOs   :   26
   #pairs with 26 - 30 PNOs   :   12
   #pairs with 31 - 35 PNOs   :   46
   #pairs with 36 - 40 PNOs   :   13
   #pairs with 41 - 45 PNOs   :    0
   #pairs with 46 - 50 PNOs   :    0
>> Statistics for pq-pairs..
   #pairs with  1 -  5 PNOs   :    0
   #pairs with  6 - 10 PNOs   :    0
   #pairs with 11 - 15 PNOs   :    0
   #pairs with 16 - 20 PNOs   :    0
   #pairs with 21 - 25 PNOs   :   10
   #pairs with 26 - 30 PNOs   :   10
   #pairs with 31 - 35 PNOs   :    0
   #pairs with 36 - 40 PNOs   :    0
   #pairs with 41 - 45 PNOs   :    0
   #pairs with 46 - 50 PNOs   :    0
   #pairs with 81 - 85 PNOs   :    5

Generation of (ij|ab)[P] integrals            ... on
Generation of (ia|bc)[P],(ja|bc)[P] integrals ... on
Storage of 3 and 4 external integrals         ... on
Generation of ALL (ka|bc)[P] integrals        ... on
Keep RI integrals in memory                   ... off

Ibatch:  1 (of  1)
Starting 2-4 index PNO integral generation ... done

Timings:
Total PNO integral transformation time     ...       2369.920 sec
Size of the 3-external file                ...       289 MB
Size of the 4-external file                ...      1960 MB
Size of the IKJL file                      ...        19 MB
Size of the all 3-external file            ...      6957 MB
Size of the 1-external file                ...        22 MB

Size of the PAO/PNO coefficient matrices   ...     228.8 MB

Making pair/pair overlap matrices          ... done (  461.157 sec)
Size of the pair overlap file              ...    2514.0 MB
Total # unrestricted pairs ...       2183
  # of alpha-alpha pairs   ...        602
  # of alpha-beta pairs    ...       1108
  # of beta-beta pairs     ...        473
Constructing the guess amplitudes          ... done (    0.614 sec)

-------------------------
FINAL STARTUP INFORMATION
-------------------------

E(0)                                       ...  -3028.425864828
E(SL-UMP2 in NEV-PNO space)                ...     -2.691669880
Initial E(tot)                             ...  -3031.117534708
<T|T>                                      ...      0.535325434
Number of unrestricted pairs included      ... 2183
Total number of pairs                      ... 4095
----------------------------------------------------------
                     OPEN-SHELL COUPLED CLUSTER ITERATIONS
----------------------------------------------------------

Number of PNO amplitudes to be optimized        ...          2151841
Number of canonical amplitudes for strong pairs ...       1971705100
Untruncated number of canonical amplitudes      ...       3698645738

Iter       E(tot)           E(Corr)          Delta-E          Residual     Time
  0  -3031.124677604     -2.663067214      0.028602666      0.021602589 2147.72
                           *** Turning on DIIS ***
  1  -3031.236937400     -2.775327011     -0.112259796      0.008968979 2151.94
  2  -3031.300989612     -2.839379223     -0.064052212      0.008584306 2153.10
  3  -3031.321787297     -2.860176908     -0.020797685      0.003261070 2148.86
  4  -3031.328763344     -2.867152955     -0.006976047      0.002738057 2154.38
  5  -3031.332391249     -2.870780860     -0.003627905      0.001923508 2154.67
  6  -3031.333734807     -2.872124417     -0.001343557      0.000823581 2172.89
  7  -3031.334521271     -2.872910882     -0.000786464      0.000446030 2182.06
  8  -3031.334670993     -2.873060604     -0.000149722      0.000177158 2182.81
  9  -3031.334717505     -2.873107116     -0.000046512      0.000095749 2170.16
 10  -3031.334713205     -2.873102815      0.000004301      0.000067623 2164.74
 11  -3031.334722379     -2.873111990     -0.000009174      0.000045691 2150.68
 12  -3031.334727913     -2.873117524     -0.000005534      0.000020517 1995.38
 13  -3031.334730131     -2.873119742     -0.000002218      0.000012579 1841.29
 14  -3031.334730749     -2.873120360     -0.000000618      0.000007435 1848.36
               --- The CCSD iterations have converged ---

E(0)                                       ...  -3028.425864828
E(CORR)(strong-pairs)                      ...     -2.873120360
E(CORR)(weak-pairs)                        ...     -0.035745561
E(CORR)(corrected)                         ...     -2.908865921
E(TOT)                                     ...  -3031.334730749
Singles norm <S|S>**1/2                    ...      0.190008531 ( 0.064679451, 0.125329080)  
T1 diagnostic                              ...      0.019918306                              
<S**2>(linearized)                         ...      8.7507329 (ideal value:      8.7500000)

----------------------
LARGEST PNO AMPLITUDES
----------------------
  71a-> 77a  71b-> 77b       0.062980
  50b-> 76b  -1b-> -1b       0.056442
  71a-> 78a  71b-> 78b       0.054558
  51b-> 76b  -1b-> -1b       0.047940
  48b-> 72b  -1b-> -1b       0.047584
  48b-> 74b  -1b-> -1b       0.047234
  54a-> 77a  54b-> 77b       0.046139
  30b-> 76b  -1b-> -1b       0.044722
  62a-> 77a  62b-> 77b       0.044614
  66a-> 77a  66b-> 77b       0.044315
  48b-> 75b  -1b-> -1b       0.044200
  70a-> 77a  70b-> 77b       0.043012
  58a-> 77a  58b-> 77b       0.042708
  55a-> 78a  55b-> 78b       0.042471
  61a-> 77a  61b-> 77b       0.042306
  64a-> 77a  64b-> 77b       0.041994

Total # unrestricted pairs ...       1130
  # of alpha-alpha pairs   ...        318
  # of alpha-beta pairs    ...        565
  # of beta-beta pairs     ...        247

-------------------------------------------
DLPNO BASED TRIPLES CORRECTION
-------------------------------------------

Singles multiplier          ...  1.000000
Fragment selection                          .... not used
TCutTNO                     ... 1.000e-09
TCutMP2Pairs                ... 1.000e-05
TCutDOStrong                ... 2.000e-02
TCutMKNStrong               ... 1.000e-02
TCutDOWeak                  ... 4.000e-02
TCutMKNWeak                 ... 1.000e-01
NTCutTNO                    ... 1

Number of Triples that are to be computed         ...     35384

 . . . . . . . . .
10% done  
20% done  
30% done  
40% done  
50% done  
60% done  
70% done  
80% done  
90% done  
          Batch   1   done (  16772.135 sec)

Triples-Correction TCutTNO=   1.000e-09 (NWeakPairs = 0  1  2  3)  -0.117589341653   -0.001865803756    0.000000000000    0.000000000000
Triples-Correction  -0.119455145408

Triples timings:
Total time                      ... 17461.486 sec

Triples List generation         ...     0.000 sec
TNO generation                  ...   688.913 sec
Pair density generation         ...     0.085 sec
Look up tables                  ...     0.119 sec
Generating 3-index integrals    ... 10603.809 sec
Make 4-ind.int. from 3-ind.int  ...     3.747 sec
Projecting amplitudes (D + S)   ...  5901.819 sec
Sorting integrals for spin cases...    54.682 sec
Calculate W0/W1                 ...   168.006 sec
Energy contr. (sum over a,b,c)  ...    40.063 sec

Everything after 3-index        ...  6308.529 sec

Energy contribution AAA         ...    25.224 sec
Energy contribution AAB         ...   116.525 sec
Energy contribution ABB         ...   106.799 sec
Energy contribution BBB         ...    14.245 sec
prep                ...     3.304 sec
makeTTNO            ...  5841.952 sec
copyij              ...     0.131 sec
copyil              ...     4.219 sec
transposeij         ...     0.079 sec
newMatInDoubleProj  ...    54.622 sec
BlasInDoubleProj    ...  3153.347 sec
ProjSingles         ...    49.471 sec
ProjDoubles         ...  5852.348 sec
overall Doubles for projection      ... 3199784
used Doubles for projection         ... 3199784


Number of Triples   (0, 1, 2, 3 weak pairs; overall):  17255   12076       0       0  ( 29331)
Number of Atoms     (0, 1, 2, 3 weak pairs; overall):   20.4    14.9     0.0     0.0  (    29)
Number of PAOs      (0, 1, 2, 3 weak pairs; overall):  785.7   605.0     0.0     0.0  (  1025)
Number of AuxFcns   (0, 1, 2, 3 weak pairs; overall):  950.2   580.4     0.0     0.0  (  2424)
Number of TNOs (0, 1, 2, 3 weak pairs         ):   79.3    56.0     0.0     0.0
Aver. Number of NTNO, Atoms, PAOs, AuxFcns / Triples:  29331    69.7    18.2   711.3   797.9

Triples Correction (T)                     ...     -0.119455145
    alpha-alpha-alpha ... -0.003932485 (  3.3%)
    alpha-alpha-beta  ... -0.056091056 ( 47.0%)
    alpha-beta -beta  ... -0.055299407 ( 46.3%)
    beta -beta -beta  ... -0.004132198 (  3.5%)
Final correlation energy                   ...     -3.028321067
E(CCSD)                                    ...  -3031.334730749
E(CCSD(T))                                 ...  -3031.454185895

----------------------------
STATISTICS FOR PAIR-ENERGIES
----------------------------
Minimum, maximum and average ratios of UMP and CCSD pair-energies ... 0.55, 1.42, 1.02


------------------------------------------------------------------------------- 
                                     TIMINGS                                   
------------------------------------------------------------------------------- 


Total execution time                   ...    60670.932 sec

Localization of occupied MO's          ...       10.374 sec (  0.0%)
Fock Matrix Formation                  ...     1449.062 sec (  2.4%)
Differential overlap integrals         ...        1.434 sec (  0.0%)
Organizing maps                        ...        1.721 sec (  0.0%)
RI 3-index integral generations        ...      327.202 sec (  0.5%)
RI-PNO integral transformation         ...     6044.703 sec ( 10.0%)
Initial Guess                          ...     2393.377 sec (  3.9%)
DIIS Solver                            ...       17.017 sec (  0.0%)
State Vector Update                    ...        0.791 sec (  0.0%)
Sigma-vector construction              ...    31619.019 sec ( 52.1%)
  <0|H|D>                              ...        0.031 sec (  0.0% of sigma)
  <D|H|D>(0-ext)                       ...     6361.453 sec ( 20.1% of sigma)
  <D|H|D>(2-ext Fock)                  ...        1.436 sec (  0.0% of sigma)
  <D|H|D>(2-ext)                       ...     4446.250 sec ( 14.1% of sigma)
  <D|H|D>(4-ext)                       ...      150.378 sec (  0.5% of sigma)
  <D|H|D>(4-ext-corr)                  ...      933.018 sec (  3.0% of sigma)
  CCSD doubles correction              ...      621.111 sec (  2.0% of sigma)
  <S|H|S>                              ...      774.930 sec (  2.5% of sigma)
  <S|H|D>(1-ext)                       ...      272.673 sec (  0.9% of sigma)
  <D|H|S>(1-ext)                       ...        0.948 sec (  0.0% of sigma)
  <S|H|D>(3-ext)                       ...       23.630 sec (  0.1% of sigma)
  CCSD singles correction              ...        0.004 sec (  0.0% of sigma)
  Fock-dressing                        ...     9292.726 sec ( 29.4% of sigma)
  Singles amplitudes                   ...      118.660 sec (  0.4% of sigma)
  (ik|jl)-dressing                     ...     7021.666 sec ( 22.2% of sigma)
  (ij|ab),(ia|jb)-dressing             ...     1550.333 sec (  4.9% of sigma)
  Pair energies                        ...        0.148 sec (  0.0% of sigma)
Total Time for computing (T)           ...    19260.162 sec ( 31.7% of ALL)


-------------------------   --------------------
FINAL SINGLE POINT ENERGY     -3031.454185894675
-------------------------   --------------------


                            ***************************************
                            *     ORCA property calculations      *
                            ***************************************

                                    ---------------------
                                    Active property flags
                                    ---------------------
   (+) Dipole Moment


------------------------------------------------------------------------------
                       ORCA ELECTRIC PROPERTIES CALCULATION
------------------------------------------------------------------------------

Dipole Moment Calculation                       ... on
Quadrupole Moment Calculation                   ... off
Polarizability Calculation                      ... off
GBWName                                         ... simple-grid-190-250-b3lyp_d3bj-631gd-gas-singlepoint-DLPNO_CCSD_T1-NormalPNO-augtz-gas.gbw
Electron density file                           ... simple-grid-190-250-b3lyp_d3bj-631gd-gas-singlepoint-DLPNO_CCSD_T1-NormalPNO-augtz-gas.scfp.tmp
The origin for moment calculation is the CENTER OF MASS  = ( 0.301902,  0.036152  0.013638)

-------------
DIPOLE MOMENT
-------------
                                X             Y             Z
Electronic contribution:     40.10316       5.35307       1.59812
Nuclear contribution   :    -44.98336      -5.38661      -2.03211
                        -----------------------------------------
Total Dipole Moment    :     -4.88020      -0.03355      -0.43399
                        -----------------------------------------
Magnitude (a.u.)       :      4.89957
Magnitude (Debye)      :     12.45371



--------------------
Rotational spectrum 
--------------------
 
Rotational constants in cm-1:     0.019099     0.011553     0.010741 
Rotational constants in MHz :   572.569819   346.345189   322.012656 

 Dipole components along the rotational axes: 
x,y,z [a.u.] :    -4.875596     0.032939    -0.482969 
x,y,z [Debye]:   -12.392779     0.083724    -1.227608 

 

Timings for individual modules:

Sum of individual times         ...    78851.421 sec (=1314.190 min)
GTO integral calculation        ...       20.240 sec (=   0.337 min)   0.0 %
SCF iterations                  ...    18140.409 sec (= 302.340 min)  23.0 %
MDCI module                     ...    60690.773 sec (=1011.513 min)  77.0 %
                             ****ORCA TERMINATED NORMALLY****
TOTAL RUN TIME: 0 days 21 hours 54 minutes 14 seconds 111 msec
