
                                 *****************
                                 * O   R   C   A *
                                 *****************

           --- An Ab Initio, DFT and Semiempirical electronic structure package ---

                  #######################################################
                  #                        -***-                        #
                  #          Department of theory and spectroscopy      #
                  #               Directorship: Frank Neese             #
                  #        Max Planck Institute fuer Kohlenforschung    #
                  #                Kaiser Wilhelm Platz 1               #
                  #                 D-45470 Muelheim/Ruhr               #
                  #                      Germany                        #
                  #                                                     #
                  #                  All rights reserved                #
                  #                        -***-                        #
                  #######################################################


                         Program Version 4.1.2  - RELEASE  -


 With contributions from (in alphabetic order):
   Daniel Aravena         : Magnetic Properties
   Michael Atanasov       : Ab Initio Ligand Field Theory
   Alexander A. Auer      : GIAO ZORA
   Ute Becker             : Parallelization
   Giovanni Bistoni       : ED, Open-shell LED
   Martin Brehm           : Molecular dynamics
   Dmytro Bykov           : SCF Hessian
   Vijay G. Chilkuri      : MRCI spin determinant printing
   Dipayan Datta          : RHF DLPNO-CCSD density
   Achintya Kumar Dutta   : EOM-CC, STEOM-CC
   Dmitry Ganyushin       : Spin-Orbit,Spin-Spin,Magnetic field MRCI
   Miquel Garcia          : C-PCM Hessian
   Yang Guo               : DLPNO-NEVPT2, CIM, IAO-localization
   Andreas Hansen         : Spin unrestricted coupled pair/coupled cluster methods
   Benjamin Helmich-Paris : CASSCF linear response (MC-RPA)
   Lee Huntington         : MR-EOM, pCC
   Robert Izsak           : Overlap fitted RIJCOSX, COSX-SCS-MP3, EOM
   Christian Kollmar      : KDIIS, OOCD, Brueckner-CCSD(T), CCSD density
   Simone Kossmann        : Meta GGA functionals, TD-DFT gradient, OOMP2, MP2 Hessian
   Martin Krupicka        : AUTO-CI
   Lucas Lang             : DCDCAS
   Dagmar Lenk            : GEPOL surface, SMD
   Dimitrios Liakos       : Extrapolation schemes; parallel MDCI
   Dimitrios Manganas     : ROCIS; embedding schemes
   Dimitrios Pantazis     : SARC Basis sets
   Taras Petrenko         : DFT Hessian,TD-DFT gradient, ASA, ECA, R-Raman, ABS, FL, XAS/XES, NRVS
   Peter Pinski           : DLPNO-MP2, DLPNO-MP2 Gradient
   Christoph Reimann      : Effective Core Potentials
   Marius Retegan         : Local ZFS, SOC
   Christoph Riplinger    : Optimizer, TS searches, QM/MM, DLPNO-CCSD(T), (RO)-DLPNO pert. Triples
   Tobias Risthaus        : Range-separated hybrids, TD-DFT gradient, RPA, STAB
   Michael Roemelt        : Restricted open shell CIS
   Masaaki Saitow         : Open-shell DLPNO
   Barbara Sandhoefer     : DKH picture change effects
   Avijit Sen             : IP-ROCIS
   Kantharuban Sivalingam : CASSCF convergence, NEVPT2, FIC-MRCI
   Bernardo de Souza      : ESD, SOC TD-DFT
   Georgi Stoychev        : AutoAux, RI-MP2 NMR
   Willem Van den Heuvel  : Paramagnetic NMR
   Boris Wezisla          : Elementary symmetry handling
   Frank Wennmohs         : Technical directorship


 We gratefully acknowledge several colleagues who have allowed us to
 interface, adapt or use parts of their codes:
   Stefan Grimme, W. Hujo, H. Kruse,             : VdW corrections, initial TS optimization,
                  C. Bannwarth                     DFT functionals, gCP, sTDA/sTD-DF
   Ed Valeev                                     : LibInt (2-el integral package), F12 methods
   Garnet Chan, S. Sharma, J. Yang, R. Olivares  : DMRG
   Ulf Ekstrom                                   : XCFun DFT Library
   Mihaly Kallay                                 : mrcc  (arbitrary order and MRCC methods)
   Andreas Klamt, Michael Diedenhofen            : otool_cosmo (COSMO solvation model)
   Jiri Pittner, Ondrej Demel                    : Mk-CCSD
   Frank Weinhold                                : gennbo (NPA and NBO analysis)
   Christopher J. Cramer and Donald G. Truhlar   : smd solvation model
   Lars Goerigk                                  : TD-DFT with DH, B97 family of functionals
   V. Asgeirsson, H. Jonsson                     : NEB implementation
   FAccTs GmbH                                   : IRC, NEB, NEB-TS, Multilevel


 Your calculation uses the libint2 library for the computation of 2-el integrals
 For citations please refer to: http://libint.valeyev.net

 This ORCA versions uses:
   CBLAS   interface :  Fast vector & matrix operations
   LAPACKE interface :  Fast linear algebra routines
   SCALAPACK package :  Parallel linear algebra routines


----- Orbital basis set information -----
Your calculation utilizes the basis: aug-cc-pVTZ 
    H, B-Ne : Obtained from the ccRepo (grant-hill.group.shef.ac.uk/ccrepo) Feb. 2017
              R. A. Kendall, T. H. Dunning, Jr., R. J. Harrison, J. Chem. Phys. 96, 6796 (1992)
         He : Obtained from the ccRepo (grant-hill.group.shef.ac.uk/ccrepo) Feb. 2017
              D. E. Woon, T. H. Dunning, Jr., J. Chem. Phys. 100, 2975 (1994)
  Li-Be, Na : Obtained from the ccRepo (grant-hill.group.shef.ac.uk/ccrepo) Feb. 2017
              B. P. Prascher, D. E. Woon, K. A. Peterson, T. H. Dunning, Jr., A. K. Wilson, Theor. Chem. Acc. 128, 69 (2011)
         Mg : Obtained from the Peterson Research Group Website (tyr0.chem.wsu.edu/~kipeters) Feb. 2017
              B. P. Prascher, D. E. Woon, K. A. Peterson, T. H. Dunning, Jr., A. K. Wilson, Theor. Chem. Acc. 128, 69 (2011)
      Al-Ar : Obtained from the ccRepo (grant-hill.group.shef.ac.uk/ccrepo) Feb. 2017
              D. E. Woon, T. H. Dunning, Jr., J. Chem. Phys. 98, 1358 (1993)
      Sc-Zn : Obtained from the ccRepo (grant-hill.group.shef.ac.uk/ccrepo) Feb. 2017
              N. B. Balabanov, K. A. Peterson, J. Chem. Phys. 123, 064107 (2005)
              N. B. Balabanov, K. A. Peterson, J. Chem. Phys. 125, 074110 (2006)
      Ga-Kr : Obtained from the ccRepo (grant-hill.group.shef.ac.uk/ccrepo) Feb. 2017
              A. K. Wilson, D. E. Woon, K. A. Peterson, T. H. Dunning, Jr., J. Chem. Phys. 110, 7667 (1999)
     Ag, Au : Obtained from the Peterson Research Group Website (tyr0.chem.wsu.edu/~kipeters) Feb. 2017
              K. A. Peterson, C. Puzzarini, Theor. Chem. Acc. 114, 283 (2005)

----- AuxJ basis set information -----
Your calculation utilizes the AutoAux generation procedure.
  G. L. Stoychev, A. A. Auer, F. Neese, J. Chem. Theory Comput. 13, 554 (2017)

----- AuxC basis set information -----
Your calculation utilizes the auxiliary basis: aug-cc-pVTZ/C 
  H-He, B-F, Al-Ar, Ga-Kr : Obtained from the EMSL Basis Set Exchange (bse.pnl.gov) Feb. 2017
                            F. Weigend, A. Kohn, C. Hattig, J. Chem. Phys. 116, 3175 (2002)
                   Be, Mg : Obtained from the TURBOMOLE 7.0 basis set library
                            C. Haettig, Phys. Chem. Chem. Phys. 7, 59 (2005)
                       Ne : Obtained from the EMSL Basis Set Exchange (bse.pnl.gov) Feb. 2017
                            C. Haettig, Phys. Chem. Chem. Phys. 7, 59 (2005)
                            F. Weigend, A. Kohn, C. Hattig, J. Chem. Phys. 116, 3175 (2002)
                    Sc-Zn : Obtained from the EMSL Basis Set Exchange (bse.pnl.gov) Feb. 2017
                            J. G. Hill, J. A. Platts, J. Chem. Phys. 128, 044104 (2008)

----- AuxJK basis set information -----
Your calculation utilizes the AutoAux generation procedure.
  G. L. Stoychev, A. A. Auer, F. Neese, J. Chem. Theory Comput. 13, 554 (2017)

================================================================================
                                        WARNINGS
                       Please study these warnings very carefully!
================================================================================


WARNING: your system is open-shell and RHF/RKS was chosen
  ===> : WILL SWITCH to UHF/UKS


WARNING: MDCI localization with Augmented Hessian Foster-Boys
  ===> : Switching off randomization!

WARNING: Post HF methods need fully converged wavefunctions
  ===> : Setting SCFConvForced true
         You can overwrite this default with %scf ConvForced false 


INFO   : the flag for use of LIBINT has been found!

================================================================================
                                       INPUT FILE
================================================================================
NAME = simple-grid-225-250-b3lyp_d3bj-631gd-gas-singlepoint-DLPNO_CCSD_T1-NormalPNO-augtz-gas.inp
|  1> ! aug-cc-pVTZ aug-cc-pVTZ/C DLPNO-CCSD(T1) TightSCF NormalPNO UNO MiniPrint AutoAux
|  2> %pal nproc 10 end
|  3> %maxcore 20000
|  4> %mdci
|  5>      density none
|  6> end
|  7> 
|  8> * xyz 0 6
|  9>  O     -0.30448600     -0.16800400     -0.73472300
| 10>  C     -1.18379600     -1.09302300     -0.61775300
| 11>  C     -3.00254400     -0.12996900      0.29174300
| 12>  C     -2.42778700      1.02003700     -0.16009900
| 13>  C     -2.65103100      1.52943500     -1.54936500
| 14> Fe      1.43999600      0.09847500      0.02811200
| 15> Cl      2.07026000      2.03242300     -0.77546300
| 16>  C     -1.56901300      1.89677400      0.69251300
| 17> Cl      2.55380600     -1.65359000     -0.68317600
| 18> Cl      1.22633000      0.09456100      2.22622500
| 19>  H     -3.71377400     -0.61804200     -0.37145300
| 20>  H     -2.18132300      2.74185400      1.03953300
| 21>  H     -1.16158300      1.39672800      1.57023900
| 22>  H     -0.74324800      2.32015300      0.11209100
| 23>  H     -2.98834300      2.57231500     -1.49871400
| 24>  H     -1.70151300      1.53654400     -2.09942000
| 25>  H     -3.39718400      0.95492100     -2.10274300
| 26>  C     -3.11610200     -0.51242100      1.74698100
| 27>  H     -3.97080600      0.01167800      2.19446000
| 28>  H     -3.29919200     -1.58292200      1.86948400
| 29>  H     -2.23078000     -0.24961000      2.33044000
| 30>  C     -0.99525300     -2.13859700      0.44846700
| 31>  H     -1.86433300     -2.78840700      0.55636000
| 32>  H     -0.14723700     -2.74863300      0.10385600
| 33>  H     -0.71200300     -1.70621600      1.40760500
| 34>  C     -1.81479400     -1.56905700     -1.90400100
| 35>  H     -1.05318300     -2.20097600     -2.38179100
| 36>  H     -2.70679400     -2.17520900     -1.73729100
| 37>  H     -2.02753100     -0.74724500     -2.58568100
| 38> *
| 39> 
| 40> 
| 41>                          ****END OF INPUT****
================================================================================

                       ****************************
                       * Single Point Calculation *
                       ****************************

---------------------------------
CARTESIAN COORDINATES (ANGSTROEM)
---------------------------------
  O     -0.304486   -0.168004   -0.734723
  C     -1.183796   -1.093023   -0.617753
  C     -3.002544   -0.129969    0.291743
  C     -2.427787    1.020037   -0.160099
  C     -2.651031    1.529435   -1.549365
  Fe     1.439996    0.098475    0.028112
  Cl     2.070260    2.032423   -0.775463
  C     -1.569013    1.896774    0.692513
  Cl     2.553806   -1.653590   -0.683176
  Cl     1.226330    0.094561    2.226225
  H     -3.713774   -0.618042   -0.371453
  H     -2.181323    2.741854    1.039533
  H     -1.161583    1.396728    1.570239
  H     -0.743248    2.320153    0.112091
  H     -2.988343    2.572315   -1.498714
  H     -1.701513    1.536544   -2.099420
  H     -3.397184    0.954921   -2.102743
  C     -3.116102   -0.512421    1.746981
  H     -3.970806    0.011678    2.194460
  H     -3.299192   -1.582922    1.869484
  H     -2.230780   -0.249610    2.330440
  C     -0.995253   -2.138597    0.448467
  H     -1.864333   -2.788407    0.556360
  H     -0.147237   -2.748633    0.103856
  H     -0.712003   -1.706216    1.407605
  C     -1.814794   -1.569057   -1.904001
  H     -1.053183   -2.200976   -2.381791
  H     -2.706794   -2.175209   -1.737291
  H     -2.027531   -0.747245   -2.585681

----------------------------
CARTESIAN COORDINATES (A.U.)
----------------------------
  NO LB      ZA    FRAG     MASS         X           Y           Z
   0 O     8.0000    0    15.999   -0.575395   -0.317482   -1.388425
   1 C     6.0000    0    12.011   -2.237050   -2.065514   -1.167384
   2 C     6.0000    0    12.011   -5.673986   -0.245606    0.551314
   3 C     6.0000    0    12.011   -4.587853    1.927591   -0.302543
   4 C     6.0000    0    12.011   -5.009723    2.890213   -2.927876
   5 Fe   26.0000    0    55.850    2.721198    0.186091    0.053124
   6 Cl   17.0000    0    35.453    3.912224    3.840723   -1.465413
   7 C     6.0000    0    12.011   -2.965005    3.584383    1.308660
   8 Cl   17.0000    0    35.453    4.825994   -3.124832   -1.291016
   9 Cl   17.0000    0    35.453    2.317428    0.178694    4.206956
  10 H     1.0000    0     1.008   -7.018016   -1.167930   -0.701944
  11 H     1.0000    0     1.008   -4.122103    5.181353    1.964433
  12 H     1.0000    0     1.008   -2.195074    2.639433    2.967322
  13 H     1.0000    0     1.008   -1.404535    4.384454    0.211821
  14 H     1.0000    0     1.008   -5.647150    4.860971   -2.832159
  15 H     1.0000    0     1.008   -3.215394    2.903647   -3.967329
  16 H     1.0000    0     1.008   -6.419747    1.804539   -3.973608
  17 C     6.0000    0    12.011   -5.888579   -0.968335    3.301316
  18 H     1.0000    0     1.008   -7.503736    0.022068    4.146928
  19 H     1.0000    0     1.008   -6.234569   -2.991289    3.532813
  20 H     1.0000    0     1.008   -4.215563   -0.471695    4.403893
  21 C     6.0000    0    12.011   -1.880756   -4.041363    0.847480
  22 H     1.0000    0     1.008   -3.523079   -5.269326    1.051368
  23 H     1.0000    0     1.008   -0.278238   -5.194164    0.196259
  24 H     1.0000    0     1.008   -1.345491   -3.224281    2.659988
  25 C     6.0000    0    12.011   -3.429464   -2.965088   -3.598040
  26 H     1.0000    0     1.008   -1.990227   -4.159242   -4.500933
  27 H     1.0000    0     1.008   -5.115099   -4.110549   -3.283004
  28 H     1.0000    0     1.008   -3.831478   -1.412088   -4.886229



           ************************************************************
           *        Program running with 10 parallel MPI-processes    *
           *              working on a common directory               *
           ************************************************************


           ************************************************************
           *        Program running with 10 parallel MPI-processes    *
           *              working on a common directory               *
           ************************************************************

Diagonalization of the overlap matrix:
Smallest eigenvalue                        ... 6.741e-07
Time for diagonalization                   ...    0.350 sec
Threshold for overlap eigenvalues          ... 1.000e-08
Number of eigenvalues below threshold      ... 0
Time for construction of square roots      ...    0.282 sec
Total time needed                          ...    0.637 sec

-------------------
DFT GRID GENERATION
-------------------

General Integration Accuracy     IntAcc      ...  4.340
Radial Grid Type                 RadialGrid  ... Gauss-Chebyshev
Angular Grid (max. acc.)         AngularGrid ... Lebedev-110
Angular grid pruning method      GridPruning ... 3 (G Style)
Weight generation scheme         WeightScheme... Becke
Basis function cutoff            BFCut       ...    1.0000e-11
Integration weight cutoff        WCut        ...    1.0000e-14
Grids for H and He will be reduced by one unit

# of grid points (after initial pruning)     ...  36112 (   0.0 sec)
# of grid points (after weights+screening)   ...  32346 (   0.1 sec)
nearest neighbour list constructed           ...    0.0 sec
Grid point re-assignment to atoms done       ...    0.0 sec
Grid point division into batches done        ...    0.0 sec
Reduced shell lists constructed in    0.3 sec

Total number of grid points                  ...    32346
Total number of batches                      ...      519
Average number of points per batch           ...       62
Average number of grid points per atom       ...     1115
Average number of shells per batch           ...   292.26 (85.21%)
Average number of basis functions per batch  ...   868.64 (84.75%)
Average number of large shells per batch     ...   240.04 (82.13%)
Average number of large basis fcns per batch ...   712.53 (82.03%)
Maximum spatial batch extension              ...   5.08,  3.88,  5.03 au
Average spatial batch extension              ...   0.18,  0.18,  0.18 au

Time for grid setup =    0.416 sec

Loading Hartree-Fock densities                     ... done
Calculating cut-offs                               ... done
Setting up the integral package                    ... done
Initializing the effective Hamiltonian             ... done
Starting the Coulomb interaction                   ... done (   1.1 sec)
Reading the grid                                   ... done
Mapping shells                                     ... done
Starting the XC term evaluation                    ... done (   0.9 sec)
Transforming the Hamiltonian                       ... done (   0.2 sec)
Diagonalizing the Hamiltonian                      ... done (   0.4 sec)
Back transforming the eigenvectors                 ... done (   0.1 sec)
Now organizing SCF variables                       ... done
--------------
SCF ITERATIONS
--------------
ITER       Energy         Delta-E        Max-DP      RMS-DP      [F,P]     Damp
               ***  Starting incremental Fock matrix formation  ***
  0  -3027.5765291965   0.000000000000 0.20027485  0.00111309  0.2620802 0.7000
  1  -3027.8265252687  -0.249996072158 0.15163139  0.00086949  0.1594360 0.7000
                               ***Turning on DIIS***
  2  -3027.9943956732  -0.167870404512 0.10772543  0.00064003  0.1093461 0.7000
  3  -3029.6251718342  -1.630776161044 0.24781091  0.00159943  0.0819051 0.0000
  4  -3028.2954901706   1.329681663666 0.04523408  0.00022503  0.0199600 0.0000
  5  -3028.4150248967  -0.119534726163 0.03903482  0.00017336  0.0117434 0.0000
  6  -3028.4537816079  -0.038756711172 0.02034996  0.00007130  0.0053686 0.0000
  7  -3028.4678853427  -0.014103734794 0.00894793  0.00003231  0.0034437 0.0000
  8  -3028.4602524662   0.007632876501 0.00586865  0.00001862  0.0014637 0.0000
  9  -3028.4534710267   0.006781439505 0.00227096  0.00001071  0.0007476 0.0000
 10  -3028.4417216580   0.011749368701 0.00095487  0.00000323  0.0004229 0.0000
 11  -3028.4478237420  -0.006102083966 0.00027829  0.00000180  0.0000657 0.0000
 12  -3028.4457028619   0.002120880061 0.00044206  0.00000148  0.0000228 0.0000
 13  -3028.4457190048  -0.000016142951 0.00106461  0.00000248  0.0000091 0.0000
 14  -3028.4457473952  -0.000028390390 0.00076638  0.00000205  0.0000052 0.0000
 15  -3028.4456961714   0.000051223863 0.00074097  0.00000200  0.0000029 0.0000
 16  -3028.4457116547  -0.000015483284 0.00106066  0.00000247  0.0000018 0.0000
 17  -3028.4457288562  -0.000017201538 0.00101028  0.00000216  0.0000011 0.0000
                            ***DIIS convergence achieved***

               *****************************************************
               *                     SUCCESS                       *
               *           SCF CONVERGED AFTER  18 CYCLES          *
               *****************************************************

Total Energy       :        -3028.44571211 Eh          -82408.19738 eV
  Last Energy change         ...    1.6746e-05  Tolerance :   1.0000e-08
  Last MAX-Density change    ...    1.5946e-03  Tolerance :   1.0000e-07
             **** THE GBW FILE WAS UPDATED (simple-grid-225-250-b3lyp_d3bj-631gd-gas-singlepoint-DLPNO_CCSD_T1-NormalPNO-augtz-gas.gbw) ****
             **** DENSITY FILE WAS UPDATED (simple-grid-225-250-b3lyp_d3bj-631gd-gas-singlepoint-DLPNO_CCSD_T1-NormalPNO-augtz-gas.scfp.tmp) ****
             **** ENERGY FILE WAS UPDATED (simple-grid-225-250-b3lyp_d3bj-631gd-gas-singlepoint-DLPNO_CCSD_T1-NormalPNO-augtz-gas.en.tmp) ****
----------------------
UHF SPIN CONTAMINATION
----------------------

Expectation value of <S**2>     :     8.764571
Ideal value S*(S+1) for S=2.5   :     8.750000
Deviation                       :     0.014571

----------------
ORBITAL ENERGIES
----------------
                 SPIN UP ORBITALS
  NO   OCC          E(Eh)            E(eV) 
   0   1.0000    -261.565255     -7117.5524 
   1   1.0000    -104.786409     -2851.3831 
   2   1.0000    -104.783154     -2851.2946 
   3   1.0000    -104.782514     -2851.2772 
   4   1.0000     -32.233065      -877.1063 
   5   1.0000     -27.709306      -754.0085 
   6   1.0000     -27.708546      -753.9879 
   7   1.0000     -27.708377      -753.9833 
   8   1.0000     -20.587382      -560.2111 
   9   1.0000     -11.413741      -310.5837 
  10   1.0000     -11.305945      -307.6504 
  11   1.0000     -11.269595      -306.6613 
  12   1.0000     -11.263074      -306.4838 
  13   1.0000     -11.259930      -306.3983 
  14   1.0000     -11.255685      -306.2828 
  15   1.0000     -11.248929      -306.0989 
  16   1.0000     -11.243010      -305.9379 
  17   1.0000     -10.513075      -286.0753 
  18   1.0000     -10.509793      -285.9860 
  19   1.0000     -10.509111      -285.9674 
  20   1.0000      -7.979936      -217.1451 
  21   1.0000      -7.979126      -217.1231 
  22   1.0000      -7.979090      -217.1221 
  23   1.0000      -7.976663      -217.0560 
  24   1.0000      -7.975912      -217.0356 
  25   1.0000      -7.975887      -217.0349 
  26   1.0000      -7.975815      -217.0330 
  27   1.0000      -7.975227      -217.0170 
  28   1.0000      -7.975163      -217.0152 
  29   1.0000      -4.588184      -124.8508 
  30   1.0000      -3.201101       -87.1064 
  31   1.0000      -3.199867       -87.0728 
  32   1.0000      -3.199585       -87.0651 
  33   1.0000      -1.436093       -39.0781 
  34   1.0000      -1.150515       -31.3071 
  35   1.0000      -1.092677       -29.7333 
  36   1.0000      -1.058510       -28.8035 
  37   1.0000      -1.052939       -28.6519 
  38   1.0000      -1.050547       -28.5868 
  39   1.0000      -1.032494       -28.0956 
  40   1.0000      -1.002039       -27.2669 
  41   1.0000      -0.974915       -26.5288 
  42   1.0000      -0.933577       -25.4039 
  43   1.0000      -0.917384       -24.9633 
  44   1.0000      -0.917273       -24.9603 
  45   1.0000      -0.913431       -24.8557 
  46   1.0000      -0.907355       -24.6904 
  47   1.0000      -0.906839       -24.6763 
  48   1.0000      -0.800076       -21.7712 
  49   1.0000      -0.746968       -20.3260 
  50   1.0000      -0.697530       -18.9807 
  51   1.0000      -0.692039       -18.8313 
  52   1.0000      -0.685133       -18.6434 
  53   1.0000      -0.667417       -18.1613 
  54   1.0000      -0.636601       -17.3228 
  55   1.0000      -0.621008       -16.8985 
  56   1.0000      -0.604175       -16.4404 
  57   1.0000      -0.597696       -16.2641 
  58   1.0000      -0.583026       -15.8649 
  59   1.0000      -0.574660       -15.6373 
  60   1.0000      -0.566919       -15.4266 
  61   1.0000      -0.560266       -15.2456 
  62   1.0000      -0.552348       -15.0302 
  63   1.0000      -0.548988       -14.9387 
  64   1.0000      -0.540501       -14.7078 
  65   1.0000      -0.524971       -14.2852 
  66   1.0000      -0.510583       -13.8937 
  67   1.0000      -0.490738       -13.3537 
  68   1.0000      -0.470712       -12.8087 
  69   1.0000      -0.466279       -12.6881 
  70   1.0000      -0.438698       -11.9376 
  71   1.0000      -0.433875       -11.8063 
  72   1.0000      -0.432405       -11.7663 
  73   1.0000      -0.423677       -11.5288 
  74   1.0000      -0.422336       -11.4923 
  75   1.0000      -0.421700       -11.4750 
  76   1.0000      -0.371429       -10.1071 
  77   0.0000       0.011721         0.3190 
  78   0.0000       0.022050         0.6000 
  79   0.0000       0.022946         0.6244 
  80   0.0000       0.030250         0.8231 
  81   0.0000       0.038473         1.0469 
  82   0.0000       0.040058         1.0900 
  83   0.0000       0.042511         1.1568 
  84   0.0000       0.044308         1.2057 
  85   0.0000       0.044535         1.2119 
  86   0.0000       0.054148         1.4734 
  87   0.0000       0.056475         1.5368 
  88   0.0000       0.059844         1.6285 
  89   0.0000       0.063635         1.7316 
  90   0.0000       0.066118         1.7992 
  91   0.0000       0.067233         1.8295 
  92   0.0000       0.072918         1.9842 
  93   0.0000       0.075293         2.0488 
  94   0.0000       0.079449         2.1619 
  95   0.0000       0.091252         2.4831 
  96   0.0000       0.091505         2.4900 
  97   0.0000       0.093209         2.5363 
  98   0.0000       0.099072         2.6959 
  99   0.0000       0.100776         2.7423 
 100   0.0000       0.102834         2.7983 
 101   0.0000       0.108569         2.9543 
 102   0.0000       0.115122         3.1326 
 103   0.0000       0.122003         3.3199 
 104   0.0000       0.123195         3.3523 
 105   0.0000       0.126121         3.4319 
 106   0.0000       0.127365         3.4658 
 107   0.0000       0.128261         3.4902 
 108   0.0000       0.130841         3.5604 
 109   0.0000       0.133840         3.6420 
 110   0.0000       0.137440         3.7399 
 111   0.0000       0.139523         3.7966 
 112   0.0000       0.142010         3.8643 
 113   0.0000       0.145138         3.9494 
 114   0.0000       0.150011         4.0820 
 115   0.0000       0.151639         4.1263 
 116   0.0000       0.158019         4.2999 
 117   0.0000       0.159035         4.3275 
 118   0.0000       0.163503         4.4491 
 119   0.0000       0.165564         4.5052 
 120   0.0000       0.168393         4.5822 
 121   0.0000       0.170730         4.6458 
 122   0.0000       0.174587         4.7507 
 123   0.0000       0.177138         4.8202 
 124   0.0000       0.181211         4.9310 
 125   0.0000       0.187324         5.0974 
 126   0.0000       0.189029         5.1437 
 127   0.0000       0.190902         5.1947 
 128   0.0000       0.195985         5.3330 
 129   0.0000       0.199731         5.4350 
 130   0.0000       0.201654         5.4873 
 131   0.0000       0.202319         5.5054 
 132   0.0000       0.206184         5.6106 
 133   0.0000       0.207299         5.6409 
 134   0.0000       0.210447         5.7266 
 135   0.0000       0.214996         5.8504 
 136   0.0000       0.219975         5.9858 
 137   0.0000       0.224294         6.1034 
 138   0.0000       0.225697         6.1415 
 139   0.0000       0.231735         6.3058 
 140   0.0000       0.235410         6.4058 
 141   0.0000       0.236591         6.4380 
 142   0.0000       0.238925         6.5015 
 143   0.0000       0.243769         6.6333 
 144   0.0000       0.247739         6.7413 
 145   0.0000       0.250159         6.8072 
 146   0.0000       0.250976         6.8294 
 147   0.0000       0.252111         6.8603 
 148   0.0000       0.258321         7.0293 
 149   0.0000       0.262984         7.1562 
 150   0.0000       0.265295         7.2190 
 151   0.0000       0.271694         7.3932 
 152   0.0000       0.273210         7.4344 
 153   0.0000       0.277966         7.5638 
 154   0.0000       0.283374         7.7110 
 155   0.0000       0.285875         7.7790 
 156   0.0000       0.290197         7.8967 
 157   0.0000       0.294107         8.0031 
 158   0.0000       0.299433         8.1480 
 159   0.0000       0.304688         8.2910 
 160   0.0000       0.307944         8.3796 
 161   0.0000       0.314349         8.5539 
 162   0.0000       0.318795         8.6748 
 163   0.0000       0.319591         8.6965 
 164   0.0000       0.326098         8.8736 
 165   0.0000       0.328927         8.9506 
 166   0.0000       0.333822         9.0838 
 167   0.0000       0.339076         9.2267 
 168   0.0000       0.340920         9.2769 
 169   0.0000       0.345722         9.4076 
 170   0.0000       0.347575         9.4580 
 171   0.0000       0.351777         9.5723 
 172   0.0000       0.356525         9.7015 
 173   0.0000       0.360343         9.8054 
 174   0.0000       0.361760         9.8440 
 175   0.0000       0.365283         9.9398 
 176   0.0000       0.367805        10.0085 
 177   0.0000       0.372465        10.1353 
 178   0.0000       0.375197        10.2096 
 179   0.0000       0.379324        10.3219 
 180   0.0000       0.380464        10.3529 
 181   0.0000       0.383368        10.4320 
 182   0.0000       0.383678        10.4404 
 183   0.0000       0.388178        10.5629 
 184   0.0000       0.393114        10.6972 
 185   0.0000       0.394344        10.7306 
 186   0.0000       0.401471        10.9246 
 187   0.0000       0.402337        10.9482 
 188   0.0000       0.404970        11.0198 
 189   0.0000       0.408937        11.1277 
 190   0.0000       0.410687        11.1754 
 191   0.0000       0.414556        11.2806 
 192   0.0000       0.418375        11.3846 
 193   0.0000       0.426091        11.5945 
 194   0.0000       0.430254        11.7078 
 195   0.0000       0.431836        11.7509 
 196   0.0000       0.435747        11.8573 
 197   0.0000       0.439910        11.9706 
 198   0.0000       0.445932        12.1344 
 199   0.0000       0.447657        12.1814 
 200   0.0000       0.453658        12.3447 
 201   0.0000       0.456709        12.4277 
 202   0.0000       0.457213        12.4414 
 203   0.0000       0.459697        12.5090 
 204   0.0000       0.464445        12.6382 
 205   0.0000       0.471076        12.8186 
 206   0.0000       0.472350        12.8533 
 207   0.0000       0.473012        12.8713 
 208   0.0000       0.476261        12.9597 
 209   0.0000       0.480942        13.0871 
 210   0.0000       0.485370        13.2076 
 211   0.0000       0.486714        13.2442 
 212   0.0000       0.490811        13.3556 
 213   0.0000       0.495523        13.4839 
 214   0.0000       0.497357        13.5338 
 215   0.0000       0.500893        13.6300 
 216   0.0000       0.505762        13.7625 
 217   0.0000       0.507957        13.8222 
 218   0.0000       0.508467        13.8361 
 219   0.0000       0.513412        13.9706 
 220   0.0000       0.515666        14.0320 
 221   0.0000       0.519030        14.1235 
 222   0.0000       0.520629        14.1670 
 223   0.0000       0.526327        14.3221 
 224   0.0000       0.530465        14.4347 
 225   0.0000       0.532566        14.4919 
 226   0.0000       0.534596        14.5471 
 227   0.0000       0.540712        14.7135 
 228   0.0000       0.541463        14.7340 
 229   0.0000       0.545854        14.8534 
 230   0.0000       0.550458        14.9787 
 231   0.0000       0.552758        15.0413 
 232   0.0000       0.559060        15.2128 
 233   0.0000       0.562882        15.3168 
 234   0.0000       0.565967        15.4007 
 235   0.0000       0.570107        15.5134 
 236   0.0000       0.572799        15.5866 
 237   0.0000       0.576739        15.6939 
 238   0.0000       0.578809        15.7502 
 239   0.0000       0.583227        15.8704 
 240   0.0000       0.586787        15.9673 
 241   0.0000       0.594747        16.1839 
 242   0.0000       0.597972        16.2716 
 243   0.0000       0.601617        16.3708 
 244   0.0000       0.605089        16.4653 
 245   0.0000       0.607391        16.5279 
 246   0.0000       0.611834        16.6488 
 247   0.0000       0.612536        16.6680 
 248   0.0000       0.615438        16.7469 
 249   0.0000       0.623358        16.9624 
 250   0.0000       0.624298        16.9880 
 251   0.0000       0.630994        17.1702 
 252   0.0000       0.639269        17.3954 
 253   0.0000       0.641073        17.4445 
 254   0.0000       0.642251        17.4765 
 255   0.0000       0.646390        17.5892 
 256   0.0000       0.648844        17.6559 
 257   0.0000       0.651354        17.7243 
 258   0.0000       0.654893        17.8206 
 259   0.0000       0.655358        17.8332 
 260   0.0000       0.659918        17.9573 
 261   0.0000       0.663502        18.0548 
 262   0.0000       0.670189        18.2368 
 263   0.0000       0.675542        18.3824 
 264   0.0000       0.679532        18.4910 
 265   0.0000       0.682132        18.5617 
 266   0.0000       0.688066        18.7232 
 267   0.0000       0.689792        18.7702 
 268   0.0000       0.693565        18.8729 
 269   0.0000       0.702463        19.1150 
 270   0.0000       0.705119        19.1873 
 271   0.0000       0.714592        19.4450 
 272   0.0000       0.716519        19.4975 
 273   0.0000       0.721818        19.6417 
 274   0.0000       0.725156        19.7325 
 275   0.0000       0.726776        19.7766 
 276   0.0000       0.732068        19.9206 
 277   0.0000       0.736978        20.0542 
 278   0.0000       0.741685        20.1823 
 279   0.0000       0.742626        20.2079 
 280   0.0000       0.754860        20.5408 
 281   0.0000       0.755899        20.5691 
 282   0.0000       0.756800        20.5936 
 283   0.0000       0.761478        20.7209 
 284   0.0000       0.764620        20.8064 
 285   0.0000       0.778977        21.1971 
 286   0.0000       0.781406        21.2631 
 287   0.0000       0.789412        21.4810 
 288   0.0000       0.798724        21.7344 
 289   0.0000       0.809756        22.0346 
 290   0.0000       0.812607        22.1122 
 291   0.0000       0.819170        22.2908 
 292   0.0000       0.822091        22.3702 
 293   0.0000       0.829319        22.5669 
 294   0.0000       0.834823        22.7167 
 295   0.0000       0.838759        22.8238 
 296   0.0000       0.838929        22.8284 
 297   0.0000       0.850043        23.1308 
 298   0.0000       0.853343        23.2207 
 299   0.0000       0.859267        23.3818 
 300   0.0000       0.860395        23.4125 
 301   0.0000       0.868347        23.6289 
 302   0.0000       0.872201        23.7338 
 303   0.0000       0.874832        23.8054 
 304   0.0000       0.884912        24.0797 
 305   0.0000       0.887706        24.1557 
 306   0.0000       0.890875        24.2420 
 307   0.0000       0.897198        24.4140 
 308   0.0000       0.902674        24.5630 
 309   0.0000       0.907432        24.6925 
 310   0.0000       0.909083        24.7374 
 311   0.0000       0.914457        24.8837 
 312   0.0000       0.918105        24.9829 
 313   0.0000       0.921016        25.0621 
 314   0.0000       0.926066        25.1995 
 315   0.0000       0.928837        25.2749 
 316   0.0000       0.934469        25.4282 
 317   0.0000       0.937401        25.5080 
 318   0.0000       0.939906        25.5761 
 319   0.0000       0.943427        25.6720 
 320   0.0000       0.951648        25.8957 
 321   0.0000       0.955220        25.9929 
 322   0.0000       0.957438        26.0532 
 323   0.0000       0.959306        26.1040 
 324   0.0000       0.963551        26.2195 
 325   0.0000       0.964003        26.2319 
 326   0.0000       0.969870        26.3915 
 327   0.0000       0.973248        26.4834 
 328   0.0000       0.976947        26.5841 
 329   0.0000       0.978637        26.6301 
 330   0.0000       0.979487        26.6532 
 331   0.0000       0.985839        26.8260 
 332   0.0000       0.991044        26.9677 
 333   0.0000       0.998143        27.1609 
 334   0.0000       1.000657        27.2293 
 335   0.0000       1.002972        27.2922 
 336   0.0000       1.009286        27.4641 
 337   0.0000       1.011316        27.5193 
 338   0.0000       1.014597        27.6086 
 339   0.0000       1.018699        27.7202 
 340   0.0000       1.019376        27.7386 
 341   0.0000       1.023065        27.8390 
 342   0.0000       1.025320        27.9004 
 343   0.0000       1.031473        28.0678 
 344   0.0000       1.035697        28.1827 
 345   0.0000       1.038154        28.2496 
 346   0.0000       1.042200        28.3597 
 347   0.0000       1.046769        28.4840 
 348   0.0000       1.051523        28.6134 
 349   0.0000       1.053552        28.6686 
 350   0.0000       1.057527        28.7768 
 351   0.0000       1.063951        28.9516 
 352   0.0000       1.064722        28.9726 
 353   0.0000       1.069729        29.1088 
 354   0.0000       1.074138        29.2288 
 355   0.0000       1.074823        29.2474 
 356   0.0000       1.080122        29.3916 
 357   0.0000       1.082835        29.4654 
 358   0.0000       1.087336        29.5879 
 359   0.0000       1.090993        29.6874 
 360   0.0000       1.094235        29.7756 
 361   0.0000       1.096928        29.8489 
 362   0.0000       1.102243        29.9935 
 363   0.0000       1.105746        30.0889 
 364   0.0000       1.108399        30.1611 
 365   0.0000       1.116491        30.3813 
 366   0.0000       1.122203        30.5367 
 367   0.0000       1.125903        30.6374 
 368   0.0000       1.127793        30.6888 
 369   0.0000       1.135221        30.8909 
 370   0.0000       1.140387        31.0315 
 371   0.0000       1.144839        31.1527 
 372   0.0000       1.147233        31.2178 
 373   0.0000       1.151611        31.3369 
 374   0.0000       1.155557        31.4443 
 375   0.0000       1.160223        31.5713 
 376   0.0000       1.167063        31.7574 
 377   0.0000       1.170505        31.8511 
 378   0.0000       1.176989        32.0275 
 379   0.0000       1.179248        32.0890 
 380   0.0000       1.185262        32.2526 
 381   0.0000       1.186049        32.2740 
 382   0.0000       1.190922        32.4066 
 383   0.0000       1.196309        32.5532 
 384   0.0000       1.197064        32.5738 
 385   0.0000       1.202098        32.7108 
 386   0.0000       1.213032        33.0083 
 387   0.0000       1.215520        33.0760 
 388   0.0000       1.221321        33.2338 
 389   0.0000       1.229176        33.4476 
 390   0.0000       1.231156        33.5015 
 391   0.0000       1.238179        33.6926 
 392   0.0000       1.243812        33.8458 
 393   0.0000       1.245011        33.8785 
 394   0.0000       1.250109        34.0172 
 395   0.0000       1.252370        34.0787 
 396   0.0000       1.258774        34.2530 
 397   0.0000       1.265965        34.4486 
 398   0.0000       1.270049        34.5598 
 399   0.0000       1.275519        34.7086 
 400   0.0000       1.279459        34.8158 
 401   0.0000       1.282895        34.9093 
 402   0.0000       1.288299        35.0564 
 403   0.0000       1.290471        35.1155 
 404   0.0000       1.296470        35.2787 
 405   0.0000       1.309433        35.6315 
 406   0.0000       1.309674        35.6380 
 407   0.0000       1.316275        35.8177 
 408   0.0000       1.318089        35.8670 
 409   0.0000       1.322527        35.9878 
 410   0.0000       1.326580        36.0981 
 411   0.0000       1.329598        36.1802 
 412   0.0000       1.336363        36.3643 
 413   0.0000       1.344483        36.5852 
 414   0.0000       1.348144        36.6849 
 415   0.0000       1.351702        36.7817 
 416   0.0000       1.358020        36.9536 
 417   0.0000       1.361471        37.0475 
 418   0.0000       1.368689        37.2439 
 419   0.0000       1.375161        37.4200 
 420   0.0000       1.379104        37.5273 
 421   0.0000       1.382139        37.6099 
 422   0.0000       1.386063        37.7167 
 423   0.0000       1.398243        38.0481 
 424   0.0000       1.401498        38.1367 
 425   0.0000       1.411494        38.4087 
 426   0.0000       1.411700        38.4143 
 427   0.0000       1.419865        38.6365 
 428   0.0000       1.424243        38.7556 
 429   0.0000       1.435364        39.0583 
 430   0.0000       1.438299        39.1381 
 431   0.0000       1.439980        39.1839 
 432   0.0000       1.446900        39.3721 
 433   0.0000       1.452898        39.5354 
 434   0.0000       1.458234        39.6806 
 435   0.0000       1.463822        39.8326 
 436   0.0000       1.471471        40.0408 
 437   0.0000       1.477833        40.2139 
 438   0.0000       1.478550        40.2334 
 439   0.0000       1.483684        40.3731 
 440   0.0000       1.492726        40.6192 
 441   0.0000       1.496129        40.7117 
 442   0.0000       1.501792        40.8658 
 443   0.0000       1.505738        40.9732 
 444   0.0000       1.507700        41.0266 
 445   0.0000       1.512196        41.1490 
 446   0.0000       1.515209        41.2309 
 447   0.0000       1.519695        41.3530 
 448   0.0000       1.523770        41.4639 
 449   0.0000       1.530234        41.6398 
 450   0.0000       1.534008        41.7425 
 451   0.0000       1.541748        41.9531 
 452   0.0000       1.547297        42.1041 
 453   0.0000       1.557745        42.3884 
 454   0.0000       1.561323        42.4858 
 455   0.0000       1.564375        42.5688 
 456   0.0000       1.568898        42.6919 
 457   0.0000       1.576567        42.9006 
 458   0.0000       1.581644        43.0387 
 459   0.0000       1.587068        43.1863 
 460   0.0000       1.592847        43.3436 
 461   0.0000       1.594710        43.3943 
 462   0.0000       1.605401        43.6852 
 463   0.0000       1.608397        43.7667 
 464   0.0000       1.612681        43.8833 
 465   0.0000       1.618336        44.0372 
 466   0.0000       1.623428        44.1757 
 467   0.0000       1.630626        44.3716 
 468   0.0000       1.635958        44.5167 
 469   0.0000       1.638686        44.5909 
 470   0.0000       1.647730        44.8370 
 471   0.0000       1.651304        44.9343 
 472   0.0000       1.655209        45.0405 
 473   0.0000       1.661552        45.2131 
 474   0.0000       1.668386        45.3991 
 475   0.0000       1.673022        45.5252 
 476   0.0000       1.678378        45.6710 
 477   0.0000       1.682725        45.7893 
 478   0.0000       1.684360        45.8338 
 479   0.0000       1.693442        46.0809 
 480   0.0000       1.701995        46.3136 
 481   0.0000       1.704749        46.3886 
 482   0.0000       1.708072        46.4790 
 483   0.0000       1.713265        46.6203 
 484   0.0000       1.718500        46.7628 
 485   0.0000       1.724931        46.9378 
 486   0.0000       1.733737        47.1774 
 487   0.0000       1.740225        47.3539 
 488   0.0000       1.746921        47.5361 
 489   0.0000       1.748365        47.5754 
 490   0.0000       1.750810        47.6420 
 491   0.0000       1.756649        47.8009 
 492   0.0000       1.758713        47.8570 
 493   0.0000       1.763849        47.9968 
 494   0.0000       1.772350        48.2281 
 495   0.0000       1.775687        48.3189 
 496   0.0000       1.787016        48.6272 
 497   0.0000       1.789609        48.6977 
 498   0.0000       1.795235        48.8508 
 499   0.0000       1.800080        48.9827 
 500   0.0000       1.802496        49.0484 
 501   0.0000       1.811131        49.2834 
 502   0.0000       1.814237        49.3679 
 503   0.0000       1.817702        49.4622 
 504   0.0000       1.825860        49.6842 
 505   0.0000       1.829726        49.7894 
 506   0.0000       1.838221        50.0205 
 507   0.0000       1.839719        50.0613 
 508   0.0000       1.846317        50.2408 
 509   0.0000       1.849307        50.3222 
 510   0.0000       1.854675        50.4683 
 511   0.0000       1.864741        50.7422 
 512   0.0000       1.865323        50.7580 
 513   0.0000       1.870881        50.9093 
 514   0.0000       1.875826        51.0438 
 515   0.0000       1.882010        51.2121 
 516   0.0000       1.885042        51.2946 
 517   0.0000       1.888785        51.3964 
 518   0.0000       1.894918        51.5633 
 519   0.0000       1.900665        51.7197 
 520   0.0000       1.902548        51.7710 
 521   0.0000       1.914744        52.1028 
 522   0.0000       1.920716        52.2653 
 523   0.0000       1.927651        52.4541 
 524   0.0000       1.932388        52.5830 
 525   0.0000       1.933165        52.6041 
 526   0.0000       1.938000        52.7357 
 527   0.0000       1.944475        52.9119 
 528   0.0000       1.948664        53.0259 
 529   0.0000       1.956513        53.2394 
 530   0.0000       1.964892        53.4674 
 531   0.0000       1.967368        53.5348 
 532   0.0000       1.971217        53.6395 
 533   0.0000       1.973898        53.7125 
 534   0.0000       1.979914        53.8762 
 535   0.0000       1.986187        54.0469 
 536   0.0000       1.996181        54.3189 
 537   0.0000       2.003013        54.5048 
 538   0.0000       2.008120        54.6437 
 539   0.0000       2.019833        54.9625 
 540   0.0000       2.022523        55.0356 
 541   0.0000       2.030059        55.2407 
 542   0.0000       2.033826        55.3432 
 543   0.0000       2.040451        55.5235 
 544   0.0000       2.049181        55.7610 
 545   0.0000       2.056921        55.9717 
 546   0.0000       2.065170        56.1961 
 547   0.0000       2.069769        56.3213 
 548   0.0000       2.075599        56.4799 
 549   0.0000       2.080690        56.6185 
 550   0.0000       2.089202        56.8501 
 551   0.0000       2.093958        56.9795 
 552   0.0000       2.103195        57.2308 
 553   0.0000       2.108494        57.3750 
 554   0.0000       2.115883        57.5761 
 555   0.0000       2.125962        57.8504 
 556   0.0000       2.128958        57.9319 
 557   0.0000       2.135007        58.0965 
 558   0.0000       2.142526        58.3011 
 559   0.0000       2.150886        58.5286 
 560   0.0000       2.156006        58.6679 
 561   0.0000       2.161920        58.8288 
 562   0.0000       2.166008        58.9401 
 563   0.0000       2.175984        59.2115 
 564   0.0000       2.179130        59.2971 
 565   0.0000       2.188850        59.5616 
 566   0.0000       2.192453        59.6597 
 567   0.0000       2.206720        60.0479 
 568   0.0000       2.208882        60.1067 
 569   0.0000       2.216142        60.3043 
 570   0.0000       2.226163        60.5770 
 571   0.0000       2.234243        60.7969 
 572   0.0000       2.236492        60.8580 
 573   0.0000       2.241262        60.9878 
 574   0.0000       2.247727        61.1638 
 575   0.0000       2.257913        61.4409 
 576   0.0000       2.263401        61.5903 
 577   0.0000       2.264830        61.6291 
 578   0.0000       2.278597        62.0038 
 579   0.0000       2.283540        62.1383 
 580   0.0000       2.289365        62.2968 
 581   0.0000       2.292487        62.3817 
 582   0.0000       2.302572        62.6562 
 583   0.0000       2.315370        63.0044 
 584   0.0000       2.319972        63.1297 
 585   0.0000       2.330578        63.4182 
 586   0.0000       2.335141        63.5424 
 587   0.0000       2.344420        63.7949 
 588   0.0000       2.349320        63.9282 
 589   0.0000       2.366893        64.4064 
 590   0.0000       2.373010        64.5729 
 591   0.0000       2.384698        64.8909 
 592   0.0000       2.392821        65.1120 
 593   0.0000       2.393385        65.1273 
 594   0.0000       2.410377        65.5897 
 595   0.0000       2.415658        65.7334 
 596   0.0000       2.422315        65.9146 
 597   0.0000       2.428186        66.0743 
 598   0.0000       2.439942        66.3942 
 599   0.0000       2.446552        66.5741 
 600   0.0000       2.448566        66.6289 
 601   0.0000       2.462073        66.9964 
 602   0.0000       2.472474        67.2795 
 603   0.0000       2.483109        67.5688 
 604   0.0000       2.492012        67.8111 
 605   0.0000       2.500554        68.0435 
 606   0.0000       2.507158        68.2232 
 607   0.0000       2.513609        68.3988 
 608   0.0000       2.529549        68.8325 
 609   0.0000       2.538762        69.0832 
 610   0.0000       2.548181        69.3395 
 611   0.0000       2.565185        69.8022 
 612   0.0000       2.568436        69.8907 
 613   0.0000       2.578019        70.1515 
 614   0.0000       2.591629        70.5218 
 615   0.0000       2.601890        70.8010 
 616   0.0000       2.609198        70.9999 
 617   0.0000       2.613450        71.1156 
 618   0.0000       2.639803        71.8327 
 619   0.0000       2.656305        72.2817 
 620   0.0000       2.662943        72.4624 
 621   0.0000       2.668196        72.6053 
 622   0.0000       2.672724        72.7285 
 623   0.0000       2.679198        72.9047 
 624   0.0000       2.682189        72.9861 
 625   0.0000       2.699750        73.4639 
 626   0.0000       2.703939        73.5779 
 627   0.0000       2.715267        73.8862 
 628   0.0000       2.727107        74.2084 
 629   0.0000       2.734493        74.4093 
 630   0.0000       2.750402        74.8422 
 631   0.0000       2.753685        74.9316 
 632   0.0000       2.771663        75.4208 
 633   0.0000       2.777602        75.5824 
 634   0.0000       2.783206        75.7349 
 635   0.0000       2.791656        75.9648 
 636   0.0000       2.798777        76.1586 
 637   0.0000       2.819068        76.7107 
 638   0.0000       2.828006        76.9539 
 639   0.0000       2.841326        77.3164 
 640   0.0000       2.853123        77.6374 
 641   0.0000       2.869168        78.0740 
 642   0.0000       2.871355        78.1335 
 643   0.0000       2.890014        78.6413 
 644   0.0000       2.897807        78.8533 
 645   0.0000       2.913666        79.2849 
 646   0.0000       2.927489        79.6610 
 647   0.0000       2.930950        79.7552 
 648   0.0000       2.944800        80.1321 
 649   0.0000       2.957173        80.4688 
 650   0.0000       2.976337        80.9903 
 651   0.0000       2.979999        81.0899 
 652   0.0000       2.990394        81.3728 
 653   0.0000       3.029184        82.4283 
 654   0.0000       3.032658        82.5228 
 655   0.0000       3.056790        83.1795 
 656   0.0000       3.073951        83.6465 
 657   0.0000       3.085406        83.9582 
 658   0.0000       3.093601        84.1812 
 659   0.0000       3.102309        84.4181 
 660   0.0000       3.112569        84.6973 
 661   0.0000       3.115377        84.7737 
 662   0.0000       3.143611        85.5420 
 663   0.0000       3.163655        86.0874 
 664   0.0000       3.179686        86.5236 
 665   0.0000       3.183875        86.6376 
 666   0.0000       3.194049        86.9145 
 667   0.0000       3.210018        87.3490 
 668   0.0000       3.214944        87.4831 
 669   0.0000       3.234394        88.0123 
 670   0.0000       3.236543        88.0708 
 671   0.0000       3.251388        88.4748 
 672   0.0000       3.259638        88.6993 
 673   0.0000       3.263830        88.8133 
 674   0.0000       3.276671        89.1627 
 675   0.0000       3.282948        89.3336 
 676   0.0000       3.289431        89.5100 
 677   0.0000       3.296884        89.7128 
 678   0.0000       3.312992        90.1511 
 679   0.0000       3.319066        90.3164 
 680   0.0000       3.321193        90.3743 
 681   0.0000       3.333898        90.7200 
 682   0.0000       3.339863        90.8823 
 683   0.0000       3.344348        91.0043 
 684   0.0000       3.363985        91.5387 
 685   0.0000       3.366909        91.6183 
 686   0.0000       3.377990        91.9198 
 687   0.0000       3.392646        92.3186 
 688   0.0000       3.408963        92.7626 
 689   0.0000       3.414358        92.9094 
 690   0.0000       3.428268        93.2879 
 691   0.0000       3.435966        93.4974 
 692   0.0000       3.443808        93.7108 
 693   0.0000       3.448951        93.8507 
 694   0.0000       3.462282        94.2135 
 695   0.0000       3.472163        94.4823 
 696   0.0000       3.487178        94.8910 
 697   0.0000       3.491976        95.0215 
 698   0.0000       3.501337        95.2762 
 699   0.0000       3.502849        95.3174 
 700   0.0000       3.517712        95.7218 
 701   0.0000       3.520162        95.7885 
 702   0.0000       3.535541        96.2070 
 703   0.0000       3.548217        96.5519 
 704   0.0000       3.554465        96.7219 
 705   0.0000       3.562483        96.9401 
 706   0.0000       3.565887        97.0327 
 707   0.0000       3.573449        97.2385 
 708   0.0000       3.575586        97.2967 
 709   0.0000       3.588754        97.6550 
 710   0.0000       3.591098        97.7187 
 711   0.0000       3.599655        97.9516 
 712   0.0000       3.613157        98.3190 
 713   0.0000       3.623837        98.6096 
 714   0.0000       3.633200        98.8644 
 715   0.0000       3.648794        99.2887 
 716   0.0000       3.656725        99.5046 
 717   0.0000       3.662219        99.6540 
 718   0.0000       3.668176        99.8161 
 719   0.0000       3.675028       100.0026 
 720   0.0000       3.680587       100.1539 
 721   0.0000       3.689962       100.4090 
 722   0.0000       3.699545       100.6697 
 723   0.0000       3.706637       100.8627 
 724   0.0000       3.715714       101.1097 
 725   0.0000       3.718399       101.1828 
 726   0.0000       3.728763       101.4648 
 727   0.0000       3.733327       101.5890 
 728   0.0000       3.743990       101.8791 
 729   0.0000       3.752506       102.1109 
 730   0.0000       3.757910       102.2579 
 731   0.0000       3.764777       102.4448 
 732   0.0000       3.767493       102.5187 
 733   0.0000       3.777865       102.8009 
 734   0.0000       3.785045       102.9963 
 735   0.0000       3.790089       103.1336 
 736   0.0000       3.797949       103.3475 
 737   0.0000       3.800926       103.4285 
 738   0.0000       3.812086       103.7321 
 739   0.0000       3.814199       103.7896 
 740   0.0000       3.830266       104.2268 
 741   0.0000       3.837300       104.4182 
 742   0.0000       3.839766       104.4853 
 743   0.0000       3.848001       104.7094 
 744   0.0000       3.862508       105.1042 
 745   0.0000       3.871051       105.3366 
 746   0.0000       3.879898       105.5774 
 747   0.0000       3.888973       105.8243 
 748   0.0000       3.892307       105.9151 
 749   0.0000       3.897164       106.0472 
 750   0.0000       3.903724       106.2257 
 751   0.0000       3.914872       106.5291 
 752   0.0000       3.918100       106.6169 
 753   0.0000       3.925490       106.8180 
 754   0.0000       3.926878       106.8558 
 755   0.0000       3.928635       106.9036 
 756   0.0000       3.945899       107.3734 
 757   0.0000       3.948021       107.4311 
 758   0.0000       3.955746       107.6413 
 759   0.0000       3.961958       107.8104 
 760   0.0000       3.971962       108.0826 
 761   0.0000       3.975758       108.1859 
 762   0.0000       3.985133       108.4410 
 763   0.0000       3.989673       108.5645 
 764   0.0000       3.999653       108.8361 
 765   0.0000       4.007901       109.0605 
 766   0.0000       4.010896       109.1420 
 767   0.0000       4.018420       109.3468 
 768   0.0000       4.026850       109.5762 
 769   0.0000       4.034667       109.7889 
 770   0.0000       4.040229       109.9402 
 771   0.0000       4.049084       110.1812 
 772   0.0000       4.054600       110.3313 
 773   0.0000       4.059849       110.4741 
 774   0.0000       4.074778       110.8803 
 775   0.0000       4.086251       111.1926 
 776   0.0000       4.091034       111.3227 
 777   0.0000       4.096691       111.4766 
 778   0.0000       4.106147       111.7339 
 779   0.0000       4.111813       111.8881 
 780   0.0000       4.118583       112.0723 
 781   0.0000       4.131714       112.4296 
 782   0.0000       4.134427       112.5035 
 783   0.0000       4.146613       112.8351 
 784   0.0000       4.151052       112.9559 
 785   0.0000       4.154561       113.0514 
 786   0.0000       4.170535       113.4860 
 787   0.0000       4.173619       113.5700 
 788   0.0000       4.177680       113.6805 
 789   0.0000       4.200221       114.2938 
 790   0.0000       4.202430       114.3539 
 791   0.0000       4.206055       114.4526 
 792   0.0000       4.215393       114.7067 
 793   0.0000       4.229096       115.0796 
 794   0.0000       4.231869       115.1550 
 795   0.0000       4.241379       115.4138 
 796   0.0000       4.245332       115.5214 
 797   0.0000       4.258464       115.8787 
 798   0.0000       4.263283       116.0098 
 799   0.0000       4.280869       116.4884 
 800   0.0000       4.288455       116.6948 
 801   0.0000       4.301973       117.0626 
 802   0.0000       4.306890       117.1964 
 803   0.0000       4.310051       117.2825 
 804   0.0000       4.313562       117.3780 
 805   0.0000       4.327076       117.7457 
 806   0.0000       4.332809       117.9017 
 807   0.0000       4.346262       118.2678 
 808   0.0000       4.357346       118.5694 
 809   0.0000       4.366546       118.8198 
 810   0.0000       4.379132       119.1622 
 811   0.0000       4.382416       119.2516 
 812   0.0000       4.391533       119.4997 
 813   0.0000       4.397722       119.6681 
 814   0.0000       4.413813       120.1060 
 815   0.0000       4.421551       120.3165 
 816   0.0000       4.427292       120.4727 
 817   0.0000       4.439964       120.8176 
 818   0.0000       4.452767       121.1659 
 819   0.0000       4.463638       121.4618 
 820   0.0000       4.470441       121.6469 
 821   0.0000       4.474307       121.7521 
 822   0.0000       4.481172       121.9389 
 823   0.0000       4.495139       122.3190 
 824   0.0000       4.499582       122.4398 
 825   0.0000       4.516535       122.9012 
 826   0.0000       4.525336       123.1406 
 827   0.0000       4.537575       123.4737 
 828   0.0000       4.548615       123.7741 
 829   0.0000       4.553793       123.9150 
 830   0.0000       4.565744       124.2402 
 831   0.0000       4.574238       124.4713 
 832   0.0000       4.582353       124.6922 
 833   0.0000       4.595732       125.0562 
 834   0.0000       4.604572       125.2968 
 835   0.0000       4.618826       125.6847 
 836   0.0000       4.629530       125.9759 
 837   0.0000       4.639611       126.2502 
 838   0.0000       4.649954       126.5317 
 839   0.0000       4.660501       126.8187 
 840   0.0000       4.671326       127.1133 
 841   0.0000       4.672506       127.1454 
 842   0.0000       4.690646       127.6390 
 843   0.0000       4.703624       127.9921 
 844   0.0000       4.717241       128.3627 
 845   0.0000       4.728300       128.6636 
 846   0.0000       4.736810       128.8952 
 847   0.0000       4.738601       128.9439 
 848   0.0000       4.759384       129.5094 
 849   0.0000       4.770521       129.8125 
 850   0.0000       4.770857       129.8216 
 851   0.0000       4.789325       130.3242 
 852   0.0000       4.804311       130.7319 
 853   0.0000       4.807617       130.8219 
 854   0.0000       4.825403       131.3059 
 855   0.0000       4.841229       131.7365 
 856   0.0000       4.849397       131.9588 
 857   0.0000       4.862782       132.3230 
 858   0.0000       4.867108       132.4407 
 859   0.0000       4.888712       133.0286 
 860   0.0000       4.893924       133.1704 
 861   0.0000       4.904676       133.4630 
 862   0.0000       4.909542       133.5954 
 863   0.0000       4.917023       133.7990 
 864   0.0000       4.933730       134.2536 
 865   0.0000       4.951691       134.7424 
 866   0.0000       4.958767       134.9349 
 867   0.0000       4.965756       135.1251 
 868   0.0000       4.983669       135.6125 
 869   0.0000       4.994471       135.9065 
 870   0.0000       4.999924       136.0548 
 871   0.0000       5.016934       136.5177 
 872   0.0000       5.038559       137.1062 
 873   0.0000       5.049735       137.4103 
 874   0.0000       5.050677       137.4359 
 875   0.0000       5.055797       137.5752 
 876   0.0000       5.064154       137.8026 
 877   0.0000       5.082423       138.2998 
 878   0.0000       5.090544       138.5207 
 879   0.0000       5.123014       139.4043 
 880   0.0000       5.128063       139.5417 
 881   0.0000       5.131698       139.6406 
 882   0.0000       5.148789       140.1057 
 883   0.0000       5.152217       140.1990 
 884   0.0000       5.159821       140.4059 
 885   0.0000       5.174004       140.7918 
 886   0.0000       5.183686       141.0553 
 887   0.0000       5.211177       141.8033 
 888   0.0000       5.214752       141.9006 
 889   0.0000       5.225265       142.1867 
 890   0.0000       5.235771       142.4726 
 891   0.0000       5.241453       142.6272 
 892   0.0000       5.267991       143.3493 
 893   0.0000       5.290387       143.9587 
 894   0.0000       5.304953       144.3551 
 895   0.0000       5.325138       144.9044 
 896   0.0000       5.334221       145.1515 
 897   0.0000       5.341062       145.3377 
 898   0.0000       5.354112       145.6928 
 899   0.0000       5.357894       145.7957 
 900   0.0000       5.360306       145.8613 
 901   0.0000       5.377061       146.3173 
 902   0.0000       5.392259       146.7308 
 903   0.0000       5.402475       147.0088 
 904   0.0000       5.412616       147.2848 
 905   0.0000       5.413846       147.3182 
 906   0.0000       5.429534       147.7451 
 907   0.0000       5.434510       147.8805 
 908   0.0000       5.462403       148.6396 
 909   0.0000       5.472485       148.9139 
 910   0.0000       5.488674       149.3544 
 911   0.0000       5.494541       149.5141 
 912   0.0000       5.501545       149.7046 
 913   0.0000       5.518947       150.1782 
 914   0.0000       5.529175       150.4565 
 915   0.0000       5.541752       150.7988 
 916   0.0000       5.569056       151.5417 
 917   0.0000       5.575257       151.7105 
 918   0.0000       5.582369       151.9040 
 919   0.0000       5.596403       152.2859 
 920   0.0000       5.603246       152.4721 
 921   0.0000       5.617330       152.8553 
 922   0.0000       5.625701       153.0831 
 923   0.0000       5.634724       153.3286 
 924   0.0000       5.649007       153.7173 
 925   0.0000       5.672411       154.3541 
 926   0.0000       5.679563       154.5488 
 927   0.0000       5.682604       154.6315 
 928   0.0000       5.699223       155.0837 
 929   0.0000       5.703080       155.1887 
 930   0.0000       5.717226       155.5736 
 931   0.0000       5.726111       155.8154 
 932   0.0000       5.738306       156.1472 
 933   0.0000       5.744064       156.3039 
 934   0.0000       5.774901       157.1430 
 935   0.0000       5.784860       157.4141 
 936   0.0000       5.798982       157.7983 
 937   0.0000       5.809728       158.0907 
 938   0.0000       5.828629       158.6050 
 939   0.0000       5.833247       158.7307 
 940   0.0000       5.844651       159.0410 
 941   0.0000       5.879050       159.9771 
 942   0.0000       5.895228       160.4173 
 943   0.0000       5.923006       161.1732 
 944   0.0000       5.936252       161.5336 
 945   0.0000       6.010915       163.5653 
 946   0.0000       6.019288       163.7931 
 947   0.0000       6.101613       166.0333 
 948   0.0000       6.114822       166.3928 
 949   0.0000       6.129455       166.7909 
 950   0.0000       6.166800       167.8071 
 951   0.0000       6.170415       167.9055 
 952   0.0000       6.191486       168.4789 
 953   0.0000       6.203558       168.8074 
 954   0.0000       6.220099       169.2575 
 955   0.0000       6.230610       169.5435 
 956   0.0000       6.247572       170.0051 
 957   0.0000       6.267790       170.5552 
 958   0.0000       6.270547       170.6303 
 959   0.0000       6.299034       171.4054 
 960   0.0000       6.321619       172.0200 
 961   0.0000       6.331498       172.2888 
 962   0.0000       6.336919       172.4363 
 963   0.0000       6.367851       173.2780 
 964   0.0000       6.383978       173.7169 
 965   0.0000       6.396498       174.0576 
 966   0.0000       6.432713       175.0430 
 967   0.0000       6.450126       175.5169 
 968   0.0000       6.515463       177.2948 
 969   0.0000       6.546183       178.1307 
 970   0.0000       6.601666       179.6405 
 971   0.0000       6.677671       181.7087 
 972   0.0000       6.834445       185.9747 
 973   0.0000       6.875837       187.1010 
 974   0.0000       6.879696       187.2060 
 975   0.0000       6.905444       187.9067 
 976   0.0000       6.925507       188.4526 
 977   0.0000       6.966132       189.5581 
 978   0.0000       6.971770       189.7115 
 979   0.0000       6.992536       190.2766 
 980   0.0000       7.022367       191.0883 
 981   0.0000       7.040885       191.5922 
 982   0.0000       7.045086       191.7065 
 983   0.0000       7.066787       192.2970 
 984   0.0000       7.146385       194.4630 
 985   0.0000       7.171775       195.1539 
 986   0.0000       7.320285       199.1951 
 987   0.0000       7.361429       200.3147 
 988   0.0000       7.426034       202.0727 
 989   0.0000       7.459166       202.9742 
 990   0.0000       7.544944       205.3084 
 991   0.0000       7.639895       207.8921 
 992   0.0000       7.689406       209.2394 
 993   0.0000       7.712238       209.8607 
 994   0.0000       7.811792       212.5697 
 995   0.0000       7.902821       215.0467 
 996   0.0000       7.990844       217.4419 
 997   0.0000       8.061605       219.3674 
 998   0.0000       8.291563       225.6249 
 999   0.0000       9.419463       256.3166 
 1000   0.0000       9.442258       256.9369 
 1001   0.0000       9.443579       256.9729 
 1002   0.0000       9.460305       257.4280 
 1003   0.0000       9.474335       257.8098 
 1004   0.0000       9.499071       258.4829 
 1005   0.0000       9.695523       263.8286 
 1006   0.0000      10.093305       274.6528 
 1007   0.0000      10.108843       275.0756 
 1008   0.0000      10.121794       275.4280 
 1009   0.0000      10.209461       277.8136 
 1010   0.0000      10.217440       278.0307 
 1011   0.0000      10.249418       278.9008 
 1012   0.0000      10.361870       281.9608 
 1013   0.0000      10.405787       283.1559 
 1014   0.0000      10.504597       285.8446 
 1015   0.0000      14.254380       387.8814 
 1016   0.0000      17.342705       471.9190 
 1017   0.0000      18.025504       490.4989 
 1018   0.0000      18.274438       497.2727 
 1019   0.0000      18.568750       505.2814 
 1020   0.0000      18.759968       510.4847 
 1021   0.0000      18.942644       515.4555 
 1022   0.0000      20.448440       556.4303 
 1023   0.0000      20.990070       571.1688 
 1024   0.0000      21.899244       595.9087 

                 SPIN DOWN ORBITALS
  NO   OCC          E(Eh)            E(eV) 
   0   1.0000    -261.561695     -7117.4556 
   1   1.0000    -104.784983     -2851.3443 
   2   1.0000    -104.781654     -2851.2537 
   3   1.0000    -104.781038     -2851.2370 
   4   1.0000     -32.071020      -872.6968 
   5   1.0000     -27.548963      -749.6454 
   6   1.0000     -27.548905      -749.6438 
   7   1.0000     -27.548647      -749.6368 
   8   1.0000     -20.583204      -560.0974 
   9   1.0000     -11.413645      -310.5811 
  10   1.0000     -11.305859      -307.6481 
  11   1.0000     -11.269485      -306.6583 
  12   1.0000     -11.263060      -306.4835 
  13   1.0000     -11.259845      -306.3960 
  14   1.0000     -11.255693      -306.2830 
  15   1.0000     -11.248938      -306.0992 
  16   1.0000     -11.243045      -305.9388 
  17   1.0000     -10.511547      -286.0337 
  18   1.0000     -10.508188      -285.9423 
  19   1.0000     -10.507538      -285.9247 
  20   1.0000      -7.977437      -217.0771 
  21   1.0000      -7.976818      -217.0602 
  22   1.0000      -7.976756      -217.0586 
  23   1.0000      -7.974082      -216.9858 
  24   1.0000      -7.973522      -216.9706 
  25   1.0000      -7.973421      -216.9678 
  26   1.0000      -7.973329      -216.9653 
  27   1.0000      -7.972719      -216.9487 
  28   1.0000      -7.972634      -216.9464 
  29   1.0000      -4.145914      -112.8161 
  30   1.0000      -2.667538       -72.5874 
  31   1.0000      -2.667531       -72.5872 
  32   1.0000      -2.666887       -72.5697 
  33   1.0000      -1.425541       -38.7909 
  34   1.0000      -1.149876       -31.2897 
  35   1.0000      -1.090043       -29.6616 
  36   1.0000      -1.043616       -28.3982 
  37   1.0000      -1.032301       -28.0903 
  38   1.0000      -1.031300       -28.0631 
  39   1.0000      -1.028858       -27.9966 
  40   1.0000      -1.001204       -27.2442 
  41   1.0000      -0.974807       -26.5258 
  42   1.0000      -0.914201       -24.8767 
  43   1.0000      -0.813446       -22.1350 
  44   1.0000      -0.747061       -20.3286 
  45   1.0000      -0.700216       -19.0538 
  46   1.0000      -0.691953       -18.8290 
  47   1.0000      -0.683766       -18.6062 
  48   1.0000      -0.667093       -18.1525 
  49   1.0000      -0.636504       -17.3202 
  50   1.0000      -0.620546       -16.8859 
  51   1.0000      -0.603669       -16.4267 
  52   1.0000      -0.597660       -16.2631 
  53   1.0000      -0.582775       -15.8581 
  54   1.0000      -0.574165       -15.6238 
  55   1.0000      -0.566622       -15.4186 
  56   1.0000      -0.560106       -15.2413 
  57   1.0000      -0.551835       -15.0162 
  58   1.0000      -0.546600       -14.8737 
  59   1.0000      -0.539093       -14.6695 
  60   1.0000      -0.514800       -14.0084 
  61   1.0000      -0.510468       -13.8905 
  62   1.0000      -0.490267       -13.3408 
  63   1.0000      -0.476770       -12.9736 
  64   1.0000      -0.475337       -12.9346 
  65   1.0000      -0.446720       -12.1559 
  66   1.0000      -0.443770       -12.0756 
  67   1.0000      -0.441545       -12.0151 
  68   1.0000      -0.426235       -11.5984 
  69   1.0000      -0.422299       -11.4913 
  70   1.0000      -0.407505       -11.0888 
  71   1.0000      -0.369830       -10.0636 
  72   0.0000       0.011711         0.3187 
  73   0.0000       0.022026         0.5994 
  74   0.0000       0.022927         0.6239 
  75   0.0000       0.030221         0.8223 
  76   0.0000       0.038302         1.0422 
  77   0.0000       0.039941         1.0868 
  78   0.0000       0.042388         1.1534 
  79   0.0000       0.044232         1.2036 
  80   0.0000       0.044541         1.2120 
  81   0.0000       0.052084         1.4173 
  82   0.0000       0.056477         1.5368 
  83   0.0000       0.059783         1.6268 
  84   0.0000       0.063244         1.7210 
  85   0.0000       0.066002         1.7960 
  86   0.0000       0.066095         1.7985 
  87   0.0000       0.072702         1.9783 
  88   0.0000       0.075255         2.0478 
  89   0.0000       0.079273         2.1571 
  90   0.0000       0.090540         2.4637 
  91   0.0000       0.091262         2.4834 
  92   0.0000       0.093127         2.5341 
  93   0.0000       0.099097         2.6966 
  94   0.0000       0.100665         2.7392 
  95   0.0000       0.102604         2.7920 
  96   0.0000       0.106944         2.9101 
  97   0.0000       0.112602         3.0641 
  98   0.0000       0.113073         3.0769 
  99   0.0000       0.115002         3.1294 
 100   0.0000       0.116081         3.1587 
 101   0.0000       0.118610         3.2275 
 102   0.0000       0.120887         3.2895 
 103   0.0000       0.123204         3.3526 
 104   0.0000       0.123963         3.3732 
 105   0.0000       0.127622         3.4728 
 106   0.0000       0.128223         3.4891 
 107   0.0000       0.131616         3.5814 
 108   0.0000       0.132498         3.6055 
 109   0.0000       0.136177         3.7056 
 110   0.0000       0.138395         3.7659 
 111   0.0000       0.140751         3.8300 
 112   0.0000       0.142854         3.8873 
 113   0.0000       0.147631         4.0172 
 114   0.0000       0.151047         4.1102 
 115   0.0000       0.153061         4.1650 
 116   0.0000       0.159009         4.3269 
 117   0.0000       0.161771         4.4020 
 118   0.0000       0.163958         4.4615 
 119   0.0000       0.166201         4.5226 
 120   0.0000       0.170040         4.6270 
 121   0.0000       0.173043         4.7088 
 122   0.0000       0.177707         4.8357 
 123   0.0000       0.178787         4.8650 
 124   0.0000       0.182559         4.9677 
 125   0.0000       0.189030         5.1438 
 126   0.0000       0.191132         5.2010 
 127   0.0000       0.191426         5.2090 
 128   0.0000       0.198804         5.4097 
 129   0.0000       0.201951         5.4954 
 130   0.0000       0.203676         5.5423 
 131   0.0000       0.204120         5.5544 
 132   0.0000       0.207535         5.6473 
 133   0.0000       0.209299         5.6953 
 134   0.0000       0.217336         5.9140 
 135   0.0000       0.219428         5.9709 
 136   0.0000       0.221806         6.0357 
 137   0.0000       0.226232         6.1561 
 138   0.0000       0.228622         6.2211 
 139   0.0000       0.233857         6.3636 
 140   0.0000       0.238998         6.5035 
 141   0.0000       0.239877         6.5274 
 142   0.0000       0.244930         6.6649 
 143   0.0000       0.247317         6.7298 
 144   0.0000       0.250454         6.8152 
 145   0.0000       0.251570         6.8456 
 146   0.0000       0.255791         6.9604 
 147   0.0000       0.257577         7.0090 
 148   0.0000       0.264667         7.2020 
 149   0.0000       0.267621         7.2823 
 150   0.0000       0.272729         7.4213 
 151   0.0000       0.276276         7.5179 
 152   0.0000       0.280509         7.6330 
 153   0.0000       0.284834         7.7507 
 154   0.0000       0.287932         7.8350 
 155   0.0000       0.291535         7.9331 
 156   0.0000       0.297171         8.0864 
 157   0.0000       0.301005         8.1908 
 158   0.0000       0.302675         8.2362 
 159   0.0000       0.308688         8.3998 
 160   0.0000       0.309953         8.4342 
 161   0.0000       0.319273         8.6879 
 162   0.0000       0.322692         8.7809 
 163   0.0000       0.325443         8.8557 
 164   0.0000       0.330821         9.0021 
 165   0.0000       0.332167         9.0387 
 166   0.0000       0.336662         9.1610 
 167   0.0000       0.343042         9.3347 
 168   0.0000       0.344567         9.3761 
 169   0.0000       0.348155         9.4738 
 170   0.0000       0.349538         9.5114 
 171   0.0000       0.358562         9.7570 
 172   0.0000       0.361209         9.8290 
 173   0.0000       0.362525         9.8648 
 174   0.0000       0.364125         9.9083 
 175   0.0000       0.367985        10.0134 
 176   0.0000       0.368491        10.0271 
 177   0.0000       0.374639        10.1944 
 178   0.0000       0.380215        10.3462 
 179   0.0000       0.383174        10.4267 
 180   0.0000       0.387345        10.5402 
 181   0.0000       0.388295        10.5660 
 182   0.0000       0.392006        10.6670 
 183   0.0000       0.395359        10.7583 
 184   0.0000       0.397970        10.8293 
 185   0.0000       0.398547        10.8450 
 186   0.0000       0.403563        10.9815 
 187   0.0000       0.404337        11.0026 
 188   0.0000       0.407523        11.0893 
 189   0.0000       0.413222        11.2443 
 190   0.0000       0.414863        11.2890 
 191   0.0000       0.419054        11.4030 
 192   0.0000       0.419569        11.4171 
 193   0.0000       0.428774        11.6675 
 194   0.0000       0.434249        11.8165 
 195   0.0000       0.435907        11.8616 
 196   0.0000       0.439356        11.9555 
 197   0.0000       0.445942        12.1347 
 198   0.0000       0.448335        12.1998 
 199   0.0000       0.450835        12.2678 
 200   0.0000       0.456143        12.4123 
 201   0.0000       0.458197        12.4682 
 202   0.0000       0.461500        12.5581 
 203   0.0000       0.468680        12.7534 
 204   0.0000       0.471608        12.8331 
 205   0.0000       0.472659        12.8617 
 206   0.0000       0.476304        12.9609 
 207   0.0000       0.478865        13.0306 
 208   0.0000       0.483185        13.1481 
 209   0.0000       0.486514        13.2387 
 210   0.0000       0.488441        13.2911 
 211   0.0000       0.488831        13.3018 
 212   0.0000       0.494739        13.4625 
 213   0.0000       0.498530        13.5657 
 214   0.0000       0.502361        13.6699 
 215   0.0000       0.505229        13.7480 
 216   0.0000       0.509013        13.8510 
 217   0.0000       0.510288        13.8856 
 218   0.0000       0.512425        13.9438 
 219   0.0000       0.517477        14.0813 
 220   0.0000       0.520883        14.1739 
 221   0.0000       0.522160        14.2087 
 222   0.0000       0.525349        14.2955 
 223   0.0000       0.527825        14.3628 
 224   0.0000       0.533893        14.5280 
 225   0.0000       0.535180        14.5630 
 226   0.0000       0.538215        14.6456 
 227   0.0000       0.542378        14.7589 
 228   0.0000       0.542540        14.7633 
 229   0.0000       0.547754        14.9051 
 230   0.0000       0.554216        15.0810 
 231   0.0000       0.555990        15.1293 
 232   0.0000       0.560876        15.2622 
 233   0.0000       0.564919        15.3722 
 234   0.0000       0.568216        15.4619 
 235   0.0000       0.571493        15.5511 
 236   0.0000       0.573996        15.6192 
 237   0.0000       0.578456        15.7406 
 238   0.0000       0.580892        15.8069 
 239   0.0000       0.584924        15.9166 
 240   0.0000       0.589624        16.0445 
 241   0.0000       0.596122        16.2213 
 242   0.0000       0.601633        16.3713 
 243   0.0000       0.604347        16.4451 
 244   0.0000       0.606158        16.4944 
 245   0.0000       0.609042        16.5729 
 246   0.0000       0.613378        16.6909 
 247   0.0000       0.614670        16.7260 
 248   0.0000       0.618098        16.8193 
 249   0.0000       0.625131        17.0107 
 250   0.0000       0.627763        17.0823 
 251   0.0000       0.633076        17.2269 
 252   0.0000       0.640451        17.4276 
 253   0.0000       0.642085        17.4720 
 254   0.0000       0.645965        17.5776 
 255   0.0000       0.648096        17.6356 
 256   0.0000       0.651308        17.7230 
 257   0.0000       0.654817        17.8185 
 258   0.0000       0.656750        17.8711 
 259   0.0000       0.658484        17.9183 
 260   0.0000       0.664428        18.0800 
 261   0.0000       0.665348        18.1050 
 262   0.0000       0.674729        18.3603 
 263   0.0000       0.678156        18.4536 
 264   0.0000       0.684515        18.6266 
 265   0.0000       0.687171        18.6989 
 266   0.0000       0.689635        18.7659 
 267   0.0000       0.691044        18.8043 
 268   0.0000       0.695221        18.9179 
 269   0.0000       0.705018        19.1845 
 270   0.0000       0.709846        19.3159 
 271   0.0000       0.717835        19.5333 
 272   0.0000       0.721548        19.6343 
 273   0.0000       0.726104        19.7583 
 274   0.0000       0.727808        19.8047 
 275   0.0000       0.730199        19.8697 
 276   0.0000       0.736783        20.0489 
 277   0.0000       0.741120        20.1669 
 278   0.0000       0.745261        20.2796 
 279   0.0000       0.748467        20.3668 
 280   0.0000       0.757294        20.6070 
 281   0.0000       0.758534        20.6408 
 282   0.0000       0.762182        20.7400 
 283   0.0000       0.764440        20.8015 
 284   0.0000       0.768097        20.9010 
[...]
  | sigma^2 in % of trace(Dip) retained ...   1.98e+01
  | sigma^2 in % of trace(Dpq) retained ...   1.34e-01
  | Av. % of trace(Di) retained         ...  99.998506198189
  | Av. % of trace(Dp) retained         ...  99.999999459607
  | sigma^2 in % of trace(Di) retained  ...   7.22e-07
  | sigma^2 in % of trace(Dp) retained  ...   2.07e-13
 Distributions of % trace(Dij) recovered:
  |       >= 99.9  ...   105 ( 20.8 % of all IJ-pairs)
  |   [80.0, 90.0) ...    32 (  6.3 % of all IJ-pairs)
  |   [90.0, 99.0) ...   275 ( 54.6 % of all IJ-pairs)
  |   [99.0, 99.9) ...    92 ( 18.3 % of all IJ-pairs)
 Distributions of % trace(Dip) recovered:
  |   [70.0, 80.0) ...     1 (  0.8 % of all IP-pairs)
  |   [80.0, 90.0) ...    17 ( 14.3 % of all IP-pairs)
  |   [90.0, 99.0) ...    57 ( 47.9 % of all IP-pairs)
  |   [99.0, 99.9) ...    44 ( 37.0 % of all IP-pairs)
 Distributions of % trace(Dpq) recovered:
  |       >= 99.9  ...     5 ( 33.3 % of all PQ-pairs)
  |   [99.0, 99.9) ...    10 ( 66.7 % of all PQ-pairs)
 Distributions of % trace(Di) recovered :
  |       >= 99.9  ...    43 (100.0 % of all I-pairs )
 Distributions of % trace(Dp) recovered :
  |       >= 99.9  ...     5 (100.0 % of all P-pairs )

                       ===========================
                       1109 OF 1706 PAIRS ARE KEPT
                       ===========================

 Initial PAO correlation energy (all pairs)    ...  -2.6936802839 Eh
 Energy constituents in PAO basis (Eh):
  | Vijab(+0) ...  -2.2656630179
  | Viab (-1) ...  -0.1746934178
  | Vab  (-2) ...  -0.0573553920
  | Va   (-1) ...  -0.0000430156
  | Vija (+1) ...  -0.0719248897
  | Vij  (+2) ...  -0.0155075774
  | Via  (+0) ...  -0.1083332825
  | Vi   (+1) ...  -0.0001596910
 Initial PNO correlation energy                ...  -2.6588565957 Eh
 Energy constituents in PNO basis (Eh):
  | Vijab(+0) ...  -2.2467673481 (err=  0.0188956698)
  | Viab (-1) ...  -0.1604532273 (err=  0.0142401905)
  | Vab  (-2) ...  -0.0569037763 (err=  0.0004516157)
  | Va   (-1) ...  -0.0000249634 (err=  0.0000180522)
  | Vija (+1) ...  -0.0708748378 (err=  0.0010500519)
  | Vij  (+2) ...  -0.0154428915 (err=  0.0000646859)
  | Via  (+0) ...  -0.1082302728 (err=  0.0001030097)
  | Vi   (+1) ...  -0.0001592785 (err=  0.0000004125)
 Sum of total truncation errors ...   0.0348236881 Eh
  | Pair screening ...   0.0117918932 Eh
  | PNO truncation ...   0.0230317950 Eh

 UMP2 correlation energy (PAO) ...  -2.6887318721
  | alpha-alpha ...  -0.3866640508 (NP_aa=  921)
  | alpha-beta  ...  -1.9950488720 (NP_ab= 1681)
  | beta -beta  ...  -0.3070189492 (NP_bb=  727)
 UMP2 correlation energy (PNO) ...  -2.6535202095
  | alpha-alpha ...  -0.3745321420 (err=  0.0121319088, NP_aa=  590)
  | alpha-beta  ...  -1.9761331297 (err=  0.0189157423, NP_ab= 1084)
  | beta -beta  ...  -0.3028549377 (err=  0.0041640115, NP_bb=  461)
 Sum of total UMP2 truncation errors ...   0.0352116626 Eh
  | Pair screening ...   0.0118106617 Eh
  | PNO truncation ...   0.0234010008 Eh
 Timing for NEV-PNO construction (sec.)
  | Intermediate construction  ..           47.105
  | Amplitude construction     ..           63.515
  | Total time                 ..          110.620
 Making pair pair interaction lists ...      ok
 Total size for 2-ext PNO integrals ...     11.0 MB
Checking the number of SOMO/SOMO doubles PNOs ... 
 #Truncate: (72, 72)[177] -> [85] .. 
 #Truncate: (73, 73)[176] -> [85] .. 
 #Truncate: (74, 74)[177] -> [85] .. 
 #Truncate: (75, 75)[176] -> [85] .. 
 #Truncate: (76, 76)[178] -> [85] .. 

--------------------------------
LOCAL RI TRANSFORMATION (VABPAO)
--------------------------------

Number of PAOs:    1030
Basis functions:   1025 (343 shells)
Aux. functions:    2424 (644 shells)

Processing maps (0.0 sec)
Average map sizes:
   Aux shells -> PAOs           1030.0
   PAOs       -> AO shells       343.0

Calculating integrals (187.1 sec, 37370.165 MB)
Finished
-----------------------------
LOCAL RI TRANSFORMATION (IJV)
-----------------------------

Orbital window:      29 to 76
Basis functions:   1025 (343 shells)
Aux. functions:    2424 (644 shells)

Processing maps (0.0 sec)
Average map sizes:
   Aux shells -> MOs(i)           46.6
   Aux shells -> MOs(j)           48.0
   MOs        -> AO shells       340.6

Calculating integrals (22.7 sec, 41.495 MB)
Sorting integrals (0.3 sec, 41.468 MB)
Total time for the integral transformation: 23.1 sec


-------------------------------------
Pair Pair Term precalculation with     
RI-(ij|mn) and (im|jn) transformation  
ON THE FLY                             
-------------------------------------

   IBatch   1 (of   2)              ... done ( 1143.980 sec)
   IBatch   2 (of   2)              ... done (  958.170 sec)
Total EXT                           ...        2102.150 sec

---------------------
RI-PNO TRANSFORMATION
---------------------

Total Number of PNOs                   ... 34439
Total Number of IJ-PNOs                ... 30256
Total Number of IP-PNOs                ...  3230
Total Number of PQ-PNOs                ...   953
Total Number of IJ-pairs               ...   965
Total Number of PI-pairs               ...   119
Total Number of PQ-pairs               ...    25
Average number of PNOs per pair        ...    31
Maximal number of PNOs per pair        ...    85
>> Statistics for ij-pairs..
   #pairs with  1 -  5 PNOs   :    0
   #pairs with  6 - 10 PNOs   :    0
   #pairs with 11 - 15 PNOs   :   60
   #pairs with 16 - 20 PNOs   :  242
   #pairs with 21 - 25 PNOs   :  154
   #pairs with 26 - 30 PNOs   :  152
   #pairs with 31 - 35 PNOs   :   62
   #pairs with 36 - 40 PNOs   :   46
   #pairs with 41 - 45 PNOs   :   54
   #pairs with 46 - 50 PNOs   :   24
   #pairs with 51 - 55 PNOs   :   35
   #pairs with 56 - 60 PNOs   :   55
   #pairs with 61 - 65 PNOs   :   76
   #pairs with 66 - 70 PNOs   :    2
   #pairs with 76 - 80 PNOs   :    1
   #pairs with 81 - 85 PNOs   :    2
>> Statistics for ip-pairs..
   #pairs with  1 -  5 PNOs   :    0
   #pairs with  6 - 10 PNOs   :    2
   #pairs with 11 - 15 PNOs   :   16
   #pairs with 16 - 20 PNOs   :    3
   #pairs with 21 - 25 PNOs   :   28
   #pairs with 26 - 30 PNOs   :   12
   #pairs with 31 - 35 PNOs   :   45
   #pairs with 36 - 40 PNOs   :   13
   #pairs with 41 - 45 PNOs   :    0
   #pairs with 46 - 50 PNOs   :    0
>> Statistics for pq-pairs..
   #pairs with  1 -  5 PNOs   :    0
   #pairs with  6 - 10 PNOs   :    0
   #pairs with 11 - 15 PNOs   :    0
   #pairs with 16 - 20 PNOs   :    0
   #pairs with 21 - 25 PNOs   :   10
   #pairs with 26 - 30 PNOs   :   10
   #pairs with 31 - 35 PNOs   :    0
   #pairs with 36 - 40 PNOs   :    0
   #pairs with 41 - 45 PNOs   :    0
   #pairs with 46 - 50 PNOs   :    0
   #pairs with 81 - 85 PNOs   :    5

Generation of (ij|ab)[P] integrals            ... on
Generation of (ia|bc)[P],(ja|bc)[P] integrals ... on
Storage of 3 and 4 external integrals         ... on
Generation of ALL (ka|bc)[P] integrals        ... on
Keep RI integrals in memory                   ... off

Ibatch:  1 (of  1)
Starting 2-4 index PNO integral generation ... done

Timings:
Total PNO integral transformation time     ...       2051.445 sec
Size of the 3-external file                ...       287 MB
Size of the 4-external file                ...      1954 MB
Size of the IKJL file                      ...        18 MB
Size of the all 3-external file            ...      6905 MB
Size of the 1-external file                ...        22 MB

Size of the PAO/PNO coefficient matrices   ...     223.0 MB

Making pair/pair overlap matrices          ... done (  324.796 sec)
Size of the pair overlap file              ...    2445.0 MB
Total # unrestricted pairs ...       2135
  # of alpha-alpha pairs   ...        590
  # of alpha-beta pairs    ...       1084
  # of beta-beta pairs     ...        461
Constructing the guess amplitudes          ... done (    0.614 sec)

-------------------------
FINAL STARTUP INFORMATION
-------------------------

E(0)                                       ...  -3028.437713580
E(SL-UMP2 in NEV-PNO space)                ...     -2.689686673
Initial E(tot)                             ...  -3031.127400253
<T|T>                                      ...      0.535043153
Number of unrestricted pairs included      ... 2135
Total number of pairs                      ... 4095
----------------------------------------------------------
                     OPEN-SHELL COUPLED CLUSTER ITERATIONS
----------------------------------------------------------

Number of PNO amplitudes to be optimized        ...          2115552
Number of canonical amplitudes for strong pairs ...       1928339488
Untruncated number of canonical amplitudes      ...       3698645738

Iter       E(tot)           E(Corr)          Delta-E          Residual     Time
  0  -3031.134582516     -2.660702472      0.028984201      0.020697997 1690.19
                           *** Turning on DIIS ***
  1  -3031.247284806     -2.773404762     -0.112702290      0.009181130 1666.42
  2  -3031.311794316     -2.837914272     -0.064509510      0.008292004 1950.56
  3  -3031.333109498     -2.859229454     -0.021315182      0.002944645 1973.42
  4  -3031.340369228     -2.866489184     -0.007259730      0.002655869 1970.52
  5  -3031.344261255     -2.870381211     -0.003892027      0.001642971 1977.22
  6  -3031.345675180     -2.871795136     -0.001413925      0.000874196 1970.86
  7  -3031.346436305     -2.872556262     -0.000761125      0.000630867 1976.96
  8  -3031.346606115     -2.872726071     -0.000169810      0.000264475 1984.54
  9  -3031.346662925     -2.872782881     -0.000056810      0.000204989 1986.10
 10  -3031.346658960     -2.872778917      0.000003965      0.000112719 1985.75
 11  -3031.346670671     -2.872790627     -0.000011711      0.000080484 1972.29
 12  -3031.346677242     -2.872797199     -0.000006572      0.000034911 1981.66
 13  -3031.346679944     -2.872799901     -0.000002702      0.000016830 1980.29
 14  -3031.346681393     -2.872801349     -0.000001449      0.000007904 1979.16
               --- The CCSD iterations have converged ---

E(0)                                       ...  -3028.437713580
E(CORR)(strong-pairs)                      ...     -2.872801349
E(CORR)(weak-pairs)                        ...     -0.036166464
E(CORR)(corrected)                         ...     -2.908967813
E(TOT)                                     ...  -3031.346681393
Singles norm <S|S>**1/2                    ...      0.193326985 ( 0.065003710, 0.128323276)  
T1 diagnostic                              ...      0.020266175                              
<S**2>(linearized)                         ...      8.7507995 (ideal value:      8.7500000)

----------------------
LARGEST PNO AMPLITUDES
----------------------
  71a-> 78a  71b-> 78b       0.055771
  50b-> 76b  -1b-> -1b       0.054927
  51b-> 76b  -1b-> -1b       0.053518
  48b-> 72b  -1b-> -1b       0.052942
  71a-> 77a  71b-> 77b       0.051294
  30a-> 77a  -1a-> -1a       0.048989
  30b-> 77b  -1b-> -1b       0.047165
  48b-> 74b  -1b-> -1b       0.046368
  48b-> 75b  -1b-> -1b       0.045883
  54a-> 77a  54b-> 77b       0.045291
  65a-> 77a  65b-> 77b       0.044702
  69a-> 77a  69b-> 77b       0.043904
  61a-> 77a  61b-> 77b       0.043673
  39b-> 73b  -1b-> -1b       0.043366
  63a-> 77a  63b-> 77b       0.042942
  59a-> 77a  59b-> 77b       0.042580

Total # unrestricted pairs ...       1194
  # of alpha-alpha pairs   ...        331
  # of alpha-beta pairs    ...        597
  # of beta-beta pairs     ...        266

-------------------------------------------
DLPNO BASED TRIPLES CORRECTION
-------------------------------------------

Singles multiplier          ...  1.000000
Fragment selection                          .... not used
TCutTNO                     ... 1.000e-09
TCutMP2Pairs                ... 1.000e-05
TCutDOStrong                ... 2.000e-02
TCutMKNStrong               ... 1.000e-02
TCutDOWeak                  ... 4.000e-02
TCutMKNWeak                 ... 1.000e-01
NTCutTNO                    ... 1

Number of Triples that are to be computed         ...     34654

 . . . . . . . . .
10% done  
20% done  
30% done  
40% done  
50% done  
60% done  
70% done  
80% done  
90% done  
          Batch   1   done (  15765.126 sec)

Triples-Correction TCutTNO=   1.000e-09 (NWeakPairs = 0  1  2  3)  -0.117594839156   -0.001955829247    0.000000000000    0.000000000000
Triples-Correction  -0.119550668403

Triples timings:
Total time                      ... 16457.857 sec

Triples List generation         ...     0.000 sec
TNO generation                  ...   692.479 sec
Pair density generation         ...     0.092 sec
Look up tables                  ...     0.115 sec
Generating 3-index integrals    ...  9764.360 sec
Make 4-ind.int. from 3-ind.int  ...     3.585 sec
Projecting amplitudes (D + S)   ...  5732.836 sec
Sorting integrals for spin cases...    54.788 sec
Calculate W0/W1                 ...   169.182 sec
Energy contr. (sum over a,b,c)  ...    40.228 sec

Everything after 3-index        ...  6132.506 sec

Energy contribution AAA         ...    25.550 sec
Energy contribution AAB         ...   117.282 sec
Energy contribution ABB         ...   106.996 sec
Energy contribution BBB         ...    14.416 sec
prep                ...     3.308 sec
makeTTNO            ...  5674.226 sec
copyij              ...     0.133 sec
copyil              ...     4.276 sec
transposeij         ...     0.080 sec
newMatInDoubleProj  ...    55.487 sec
BlasInDoubleProj    ...  3062.420 sec
ProjSingles         ...    48.111 sec
ProjDoubles         ...  5684.724 sec
overall Doubles for projection      ... 3146038
used Doubles for projection         ... 3146038


Number of Triples   (0, 1, 2, 3 weak pairs; overall):  16307   12410       0       0  ( 28717)
Number of Atoms     (0, 1, 2, 3 weak pairs; overall):   19.8    14.2     0.0     0.0  (    29)
Number of PAOs      (0, 1, 2, 3 weak pairs; overall):  767.7   580.5     0.0     0.0  (  1025)
Number of AuxFcns   (0, 1, 2, 3 weak pairs; overall):  894.7   580.1     0.0     0.0  (  2424)
Number of TNOs (0, 1, 2, 3 weak pairs         ):   79.1    55.8     0.0     0.0
Aver. Number of NTNO, Atoms, PAOs, AuxFcns / Triples:  28717    69.0    17.4   686.8   758.7

Triples Correction (T)                     ...     -0.119550668
    alpha-alpha-alpha ... -0.003893042 (  3.3%)
    alpha-alpha-beta  ... -0.056125190 ( 46.9%)
    alpha-beta -beta  ... -0.055408622 ( 46.3%)
    beta -beta -beta  ... -0.004123814 (  3.4%)
Final correlation energy                   ...     -3.028518481
E(CCSD)                                    ...  -3031.346681393
E(CCSD(T))                                 ...  -3031.466232061

----------------------------
STATISTICS FOR PAIR-ENERGIES
----------------------------
Minimum, maximum and average ratios of UMP and CCSD pair-energies ... 0.54, 1.44, 1.02


------------------------------------------------------------------------------- 
                                     TIMINGS                                   
------------------------------------------------------------------------------- 


Total execution time                   ...    53424.542 sec

Localization of occupied MO's          ...        9.385 sec (  0.0%)
Fock Matrix Formation                  ...     1422.913 sec (  2.7%)
Differential overlap integrals         ...        1.370 sec (  0.0%)
Organizing maps                        ...        1.682 sec (  0.0%)
RI 3-index integral generations        ...      274.701 sec (  0.5%)
RI-PNO integral transformation         ...     4669.905 sec (  8.7%)
Initial Guess                          ...     1848.439 sec (  3.5%)
DIIS Solver                            ...       18.032 sec (  0.0%)
State Vector Update                    ...        0.796 sec (  0.0%)
Sigma-vector construction              ...    29045.953 sec ( 54.4%)
  <0|H|D>                              ...        0.028 sec (  0.0% of sigma)
  <D|H|D>(0-ext)                       ...     5380.806 sec ( 18.5% of sigma)
  <D|H|D>(2-ext Fock)                  ...        1.321 sec (  0.0% of sigma)
  <D|H|D>(2-ext)                       ...     4414.281 sec ( 15.2% of sigma)
  <D|H|D>(4-ext)                       ...      147.306 sec (  0.5% of sigma)
  <D|H|D>(4-ext-corr)                  ...      916.621 sec (  3.2% of sigma)
  CCSD doubles correction              ...      490.324 sec (  1.7% of sigma)
  <S|H|S>                              ...      757.972 sec (  2.6% of sigma)
  <S|H|D>(1-ext)                       ...      278.031 sec (  1.0% of sigma)
  <D|H|S>(1-ext)                       ...        0.602 sec (  0.0% of sigma)
  <S|H|D>(3-ext)                       ...       20.508 sec (  0.1% of sigma)
  CCSD singles correction              ...        0.005 sec (  0.0% of sigma)
  Fock-dressing                        ...     7856.576 sec ( 27.0% of sigma)
  Singles amplitudes                   ...      110.994 sec (  0.4% of sigma)
  (ik|jl)-dressing                     ...     6894.860 sec ( 23.7% of sigma)
  (ij|ab),(ia|jb)-dressing             ...     1707.526 sec (  5.9% of sigma)
  Pair energies                        ...        0.154 sec (  0.0% of sigma)
Total Time for computing (T)           ...    16496.696 sec ( 30.9% of ALL)


-------------------------   --------------------
FINAL SINGLE POINT ENERGY     -3031.466232061050
-------------------------   --------------------


                            ***************************************
                            *     ORCA property calculations      *
                            ***************************************

                                    ---------------------
                                    Active property flags
                                    ---------------------
   (+) Dipole Moment


------------------------------------------------------------------------------
                       ORCA ELECTRIC PROPERTIES CALCULATION
------------------------------------------------------------------------------

Dipole Moment Calculation                       ... on
Quadrupole Moment Calculation                   ... off
Polarizability Calculation                      ... off
GBWName                                         ... simple-grid-225-250-b3lyp_d3bj-631gd-gas-singlepoint-DLPNO_CCSD_T1-NormalPNO-augtz-gas.gbw
Electron density file                           ... simple-grid-225-250-b3lyp_d3bj-631gd-gas-singlepoint-DLPNO_CCSD_T1-NormalPNO-augtz-gas.scfp.tmp
The origin for moment calculation is the CENTER OF MASS  = ( 0.308995,  0.028064  0.018173)

-------------
DIPOLE MOMENT
-------------
                                X             Y             Z
Electronic contribution:     42.06600       3.44617       2.11193
Nuclear contribution   :    -46.04031      -4.18148      -2.70783
                        -----------------------------------------
Total Dipole Moment    :     -3.97431      -0.73531      -0.59590
                        -----------------------------------------
Magnitude (a.u.)       :      4.08545
Magnitude (Debye)      :     10.38439



--------------------
Rotational spectrum 
--------------------
 
Rotational constants in cm-1:     0.019177     0.011174     0.010510 
Rotational constants in MHz :   574.914327   334.989771   315.091778 

 Dipole components along the rotational axes: 
x,y,z [a.u.] :    -3.969047     0.745922    -0.617391 
x,y,z [Debye]:   -10.088517     1.895982    -1.569283 

 

Timings for individual modules:

Sum of individual times         ...    69577.833 sec (=1159.631 min)
GTO integral calculation        ...       12.340 sec (=   0.206 min)   0.0 %
SCF iterations                  ...    16122.988 sec (= 268.716 min)  23.2 %
MDCI module                     ...    53442.505 sec (= 890.708 min)  76.8 %
                             ****ORCA TERMINATED NORMALLY****
TOTAL RUN TIME: 0 days 19 hours 19 minutes 40 seconds 459 msec
