
                                 *****************
                                 * O   R   C   A *
                                 *****************

           --- An Ab Initio, DFT and Semiempirical electronic structure package ---

                  #######################################################
                  #                        -***-                        #
                  #          Department of theory and spectroscopy      #
                  #               Directorship: Frank Neese             #
                  #        Max Planck Institute fuer Kohlenforschung    #
                  #                Kaiser Wilhelm Platz 1               #
                  #                 D-45470 Muelheim/Ruhr               #
                  #                      Germany                        #
                  #                                                     #
                  #                  All rights reserved                #
                  #                        -***-                        #
                  #######################################################


                         Program Version 4.1.2  - RELEASE  -


 With contributions from (in alphabetic order):
   Daniel Aravena         : Magnetic Properties
   Michael Atanasov       : Ab Initio Ligand Field Theory
   Alexander A. Auer      : GIAO ZORA
   Ute Becker             : Parallelization
   Giovanni Bistoni       : ED, Open-shell LED
   Martin Brehm           : Molecular dynamics
   Dmytro Bykov           : SCF Hessian
   Vijay G. Chilkuri      : MRCI spin determinant printing
   Dipayan Datta          : RHF DLPNO-CCSD density
   Achintya Kumar Dutta   : EOM-CC, STEOM-CC
   Dmitry Ganyushin       : Spin-Orbit,Spin-Spin,Magnetic field MRCI
   Miquel Garcia          : C-PCM Hessian
   Yang Guo               : DLPNO-NEVPT2, CIM, IAO-localization
   Andreas Hansen         : Spin unrestricted coupled pair/coupled cluster methods
   Benjamin Helmich-Paris : CASSCF linear response (MC-RPA)
   Lee Huntington         : MR-EOM, pCC
   Robert Izsak           : Overlap fitted RIJCOSX, COSX-SCS-MP3, EOM
   Christian Kollmar      : KDIIS, OOCD, Brueckner-CCSD(T), CCSD density
   Simone Kossmann        : Meta GGA functionals, TD-DFT gradient, OOMP2, MP2 Hessian
   Martin Krupicka        : AUTO-CI
   Lucas Lang             : DCDCAS
   Dagmar Lenk            : GEPOL surface, SMD
   Dimitrios Liakos       : Extrapolation schemes; parallel MDCI
   Dimitrios Manganas     : ROCIS; embedding schemes
   Dimitrios Pantazis     : SARC Basis sets
   Taras Petrenko         : DFT Hessian,TD-DFT gradient, ASA, ECA, R-Raman, ABS, FL, XAS/XES, NRVS
   Peter Pinski           : DLPNO-MP2, DLPNO-MP2 Gradient
   Christoph Reimann      : Effective Core Potentials
   Marius Retegan         : Local ZFS, SOC
   Christoph Riplinger    : Optimizer, TS searches, QM/MM, DLPNO-CCSD(T), (RO)-DLPNO pert. Triples
   Tobias Risthaus        : Range-separated hybrids, TD-DFT gradient, RPA, STAB
   Michael Roemelt        : Restricted open shell CIS
   Masaaki Saitow         : Open-shell DLPNO
   Barbara Sandhoefer     : DKH picture change effects
   Avijit Sen             : IP-ROCIS
   Kantharuban Sivalingam : CASSCF convergence, NEVPT2, FIC-MRCI
   Bernardo de Souza      : ESD, SOC TD-DFT
   Georgi Stoychev        : AutoAux, RI-MP2 NMR
   Willem Van den Heuvel  : Paramagnetic NMR
   Boris Wezisla          : Elementary symmetry handling
   Frank Wennmohs         : Technical directorship


 We gratefully acknowledge several colleagues who have allowed us to
 interface, adapt or use parts of their codes:
   Stefan Grimme, W. Hujo, H. Kruse,             : VdW corrections, initial TS optimization,
                  C. Bannwarth                     DFT functionals, gCP, sTDA/sTD-DF
   Ed Valeev                                     : LibInt (2-el integral package), F12 methods
   Garnet Chan, S. Sharma, J. Yang, R. Olivares  : DMRG
   Ulf Ekstrom                                   : XCFun DFT Library
   Mihaly Kallay                                 : mrcc  (arbitrary order and MRCC methods)
   Andreas Klamt, Michael Diedenhofen            : otool_cosmo (COSMO solvation model)
   Jiri Pittner, Ondrej Demel                    : Mk-CCSD
   Frank Weinhold                                : gennbo (NPA and NBO analysis)
   Christopher J. Cramer and Donald G. Truhlar   : smd solvation model
   Lars Goerigk                                  : TD-DFT with DH, B97 family of functionals
   V. Asgeirsson, H. Jonsson                     : NEB implementation
   FAccTs GmbH                                   : IRC, NEB, NEB-TS, Multilevel


 Your calculation uses the libint2 library for the computation of 2-el integrals
 For citations please refer to: http://libint.valeyev.net

 This ORCA versions uses:
   CBLAS   interface :  Fast vector & matrix operations
   LAPACKE interface :  Fast linear algebra routines
   SCALAPACK package :  Parallel linear algebra routines


----- Orbital basis set information -----
Your calculation utilizes the basis: aug-cc-pVTZ 
    H, B-Ne : Obtained from the ccRepo (grant-hill.group.shef.ac.uk/ccrepo) Feb. 2017
              R. A. Kendall, T. H. Dunning, Jr., R. J. Harrison, J. Chem. Phys. 96, 6796 (1992)
         He : Obtained from the ccRepo (grant-hill.group.shef.ac.uk/ccrepo) Feb. 2017
              D. E. Woon, T. H. Dunning, Jr., J. Chem. Phys. 100, 2975 (1994)
  Li-Be, Na : Obtained from the ccRepo (grant-hill.group.shef.ac.uk/ccrepo) Feb. 2017
              B. P. Prascher, D. E. Woon, K. A. Peterson, T. H. Dunning, Jr., A. K. Wilson, Theor. Chem. Acc. 128, 69 (2011)
         Mg : Obtained from the Peterson Research Group Website (tyr0.chem.wsu.edu/~kipeters) Feb. 2017
              B. P. Prascher, D. E. Woon, K. A. Peterson, T. H. Dunning, Jr., A. K. Wilson, Theor. Chem. Acc. 128, 69 (2011)
      Al-Ar : Obtained from the ccRepo (grant-hill.group.shef.ac.uk/ccrepo) Feb. 2017
              D. E. Woon, T. H. Dunning, Jr., J. Chem. Phys. 98, 1358 (1993)
      Sc-Zn : Obtained from the ccRepo (grant-hill.group.shef.ac.uk/ccrepo) Feb. 2017
              N. B. Balabanov, K. A. Peterson, J. Chem. Phys. 123, 064107 (2005)
              N. B. Balabanov, K. A. Peterson, J. Chem. Phys. 125, 074110 (2006)
      Ga-Kr : Obtained from the ccRepo (grant-hill.group.shef.ac.uk/ccrepo) Feb. 2017
              A. K. Wilson, D. E. Woon, K. A. Peterson, T. H. Dunning, Jr., J. Chem. Phys. 110, 7667 (1999)
     Ag, Au : Obtained from the Peterson Research Group Website (tyr0.chem.wsu.edu/~kipeters) Feb. 2017
              K. A. Peterson, C. Puzzarini, Theor. Chem. Acc. 114, 283 (2005)

----- AuxJ basis set information -----
Your calculation utilizes the AutoAux generation procedure.
  G. L. Stoychev, A. A. Auer, F. Neese, J. Chem. Theory Comput. 13, 554 (2017)

----- AuxC basis set information -----
Your calculation utilizes the auxiliary basis: aug-cc-pVTZ/C 
  H-He, B-F, Al-Ar, Ga-Kr : Obtained from the EMSL Basis Set Exchange (bse.pnl.gov) Feb. 2017
                            F. Weigend, A. Kohn, C. Hattig, J. Chem. Phys. 116, 3175 (2002)
                   Be, Mg : Obtained from the TURBOMOLE 7.0 basis set library
                            C. Haettig, Phys. Chem. Chem. Phys. 7, 59 (2005)
                       Ne : Obtained from the EMSL Basis Set Exchange (bse.pnl.gov) Feb. 2017
                            C. Haettig, Phys. Chem. Chem. Phys. 7, 59 (2005)
                            F. Weigend, A. Kohn, C. Hattig, J. Chem. Phys. 116, 3175 (2002)
                    Sc-Zn : Obtained from the EMSL Basis Set Exchange (bse.pnl.gov) Feb. 2017
                            J. G. Hill, J. A. Platts, J. Chem. Phys. 128, 044104 (2008)

----- AuxJK basis set information -----
Your calculation utilizes the AutoAux generation procedure.
  G. L. Stoychev, A. A. Auer, F. Neese, J. Chem. Theory Comput. 13, 554 (2017)

================================================================================
                                        WARNINGS
                       Please study these warnings very carefully!
================================================================================


WARNING: your system is open-shell and RHF/RKS was chosen
  ===> : WILL SWITCH to UHF/UKS


WARNING: MDCI localization with Augmented Hessian Foster-Boys
  ===> : Switching off randomization!

WARNING: Post HF methods need fully converged wavefunctions
  ===> : Setting SCFConvForced true
         You can overwrite this default with %scf ConvForced false 


INFO   : the flag for use of LIBINT has been found!

================================================================================
                                       INPUT FILE
================================================================================
NAME = simple-grid-200-295-b3lyp_d3bj-631gd-gas-singlepoint-DLPNO_CCSD_T1-NormalPNO-augtz-gas.inp
|  1> ! aug-cc-pVTZ aug-cc-pVTZ/C DLPNO-CCSD(T1) TightSCF NormalPNO UNO MiniPrint AutoAux
|  2> %pal nproc 10 end
|  3> %maxcore 20000
|  4> %mdci
|  5>      density none
|  6> end
|  7> 
|  8> * xyz 0 6
|  9>  O     -0.29720100     -0.15907300     -0.44429600
| 10>  C     -1.16604200     -1.09383300     -0.18993000
| 11>  C     -2.61716700     -0.22547200      0.87786600
| 12>  C     -3.10921800      0.65363600     -0.07745600
| 13>  C     -4.24391700      0.29447800     -0.97632900
| 14> Fe      1.54653300      0.17141100     -0.10473800
| 15> Cl      1.89090600      2.10342300     -1.07930300
| 16>  C     -2.43003300      1.95281400     -0.30569200
| 17> Cl      2.53133900     -1.57186000     -1.01245600
| 18> Cl      1.85525600      0.25503400      2.07684900
| 19>  H     -3.23068900     -1.11058600      1.04493600
| 20>  H     -2.92743100      2.56908300     -1.05729500
| 21>  H     -2.30802900      2.52413000      0.62076000
| 22>  H     -1.40345900      1.71993700     -0.64791300
| 23>  H     -5.07867600      0.97784900     -0.76301100
| 24>  H     -3.98431700      0.45414600     -2.03033000
| 25>  H     -4.59475800     -0.72968500     -0.83500800
| 26>  C     -1.88928500      0.31024000      2.09994000
| 27>  H     -2.49770100      1.07710600      2.59262800
| 28>  H     -1.70921900     -0.48280700      2.82690600
| 29>  H     -0.92499700      0.75490300      1.84583800
| 30>  C     -0.74621300     -2.14328700      0.83200300
| 31>  H     -1.57394000     -2.78787800      1.13635800
| 32>  H      0.00843500     -2.75985700      0.32627300
| 33>  H     -0.26903800     -1.69728000      1.70392500
| 34>  C     -1.82798700     -1.67585700     -1.42679200
| 35>  H     -1.08591500     -2.33285200     -1.89628000
| 36>  H     -2.71296800     -2.27215700     -1.19042200
| 37>  H     -2.07786800     -0.89663100     -2.14800000
| 38> *
| 39> 
| 40> 
| 41>                          ****END OF INPUT****
================================================================================

                       ****************************
                       * Single Point Calculation *
                       ****************************

---------------------------------
CARTESIAN COORDINATES (ANGSTROEM)
---------------------------------
  O     -0.297201   -0.159073   -0.444296
  C     -1.166042   -1.093833   -0.189930
  C     -2.617167   -0.225472    0.877866
  C     -3.109218    0.653636   -0.077456
  C     -4.243917    0.294478   -0.976329
  Fe     1.546533    0.171411   -0.104738
  Cl     1.890906    2.103423   -1.079303
  C     -2.430033    1.952814   -0.305692
  Cl     2.531339   -1.571860   -1.012456
  Cl     1.855256    0.255034    2.076849
  H     -3.230689   -1.110586    1.044936
  H     -2.927431    2.569083   -1.057295
  H     -2.308029    2.524130    0.620760
  H     -1.403459    1.719937   -0.647913
  H     -5.078676    0.977849   -0.763011
  H     -3.984317    0.454146   -2.030330
  H     -4.594758   -0.729685   -0.835008
  C     -1.889285    0.310240    2.099940
  H     -2.497701    1.077106    2.592628
  H     -1.709219   -0.482807    2.826906
  H     -0.924997    0.754903    1.845838
  C     -0.746213   -2.143287    0.832003
  H     -1.573940   -2.787878    1.136358
  H      0.008435   -2.759857    0.326273
  H     -0.269038   -1.697280    1.703925
  C     -1.827987   -1.675857   -1.426792
  H     -1.085915   -2.332852   -1.896280
  H     -2.712968   -2.272157   -1.190422
  H     -2.077868   -0.896631   -2.148000

----------------------------
CARTESIAN COORDINATES (A.U.)
----------------------------
  NO LB      ZA    FRAG     MASS         X           Y           Z
   0 O     8.0000    0    15.999   -0.561628   -0.300604   -0.839598
   1 C     6.0000    0    12.011   -2.203500   -2.067045   -0.358916
   2 C     6.0000    0    12.011   -4.945729   -0.426080    1.658926
   3 C     6.0000    0    12.011   -5.875571    1.235193   -0.146371
   4 C     6.0000    0    12.011   -8.019841    0.556483   -1.844994
   5 Fe   26.0000    0    55.850    2.922524    0.323920   -0.197926
   6 Cl   17.0000    0    35.453    3.573294    3.974893   -2.039587
   7 C     6.0000    0    12.011   -4.592097    3.690284   -0.577674
   8 Cl   17.0000    0    35.453    4.783537   -2.970385   -1.913265
   9 Cl   17.0000    0    35.453    3.505926    0.481944    3.924676
  10 H     1.0000    0     1.008   -6.105117   -2.098703    1.974643
  11 H     1.0000    0     1.008   -5.532043    4.854863   -1.997998
  12 H     1.0000    0     1.008   -4.361543    4.769914    1.173066
  13 H     1.0000    0     1.008   -2.652153    3.250210   -1.224378
  14 H     1.0000    0     1.008   -9.597307    1.847867   -1.441882
  15 H     1.0000    0     1.008   -7.529268    0.858212   -3.836768
  16 H     1.0000    0     1.008   -8.682834   -1.378905   -1.577936
  17 C     6.0000    0    12.011   -3.570231    0.586269    3.968311
  18 H     1.0000    0     1.008   -4.719971    2.035435    4.899357
  19 H     1.0000    0     1.008   -3.229956   -0.912373    5.342078
  20 H     1.0000    0     1.008   -1.747991    1.426560    3.488128
  21 C     6.0000    0    12.011   -1.410138   -4.050225    1.572258
  22 H     1.0000    0     1.008   -2.974316   -5.268326    2.147405
  23 H     1.0000    0     1.008    0.015940   -5.215374    0.616567
  24 H     1.0000    0     1.008   -0.508408   -3.207394    3.219952
  25 C     6.0000    0    12.011   -3.454395   -3.166911   -2.696246
  26 H     1.0000    0     1.008   -2.052082   -4.408451   -3.583450
  27 H     1.0000    0     1.008   -5.126767   -4.293754   -2.249572
  28 H     1.0000    0     1.008   -3.926601   -1.694387   -4.059132



           ************************************************************
           *        Program running with 10 parallel MPI-processes    *
           *              working on a common directory               *
           ************************************************************


           ************************************************************
           *        Program running with 10 parallel MPI-processes    *
           *              working on a common directory               *
           ************************************************************

Diagonalization of the overlap matrix:
Smallest eigenvalue                        ... 6.974e-07
Time for diagonalization                   ...    0.335 sec
Threshold for overlap eigenvalues          ... 1.000e-08
Number of eigenvalues below threshold      ... 0
Time for construction of square roots      ...    0.302 sec
Total time needed                          ...    0.643 sec

-------------------
DFT GRID GENERATION
-------------------

General Integration Accuracy     IntAcc      ...  4.340
Radial Grid Type                 RadialGrid  ... Gauss-Chebyshev
Angular Grid (max. acc.)         AngularGrid ... Lebedev-110
Angular grid pruning method      GridPruning ... 3 (G Style)
Weight generation scheme         WeightScheme... Becke
Basis function cutoff            BFCut       ...    1.0000e-11
Integration weight cutoff        WCut        ...    1.0000e-14
Grids for H and He will be reduced by one unit

# of grid points (after initial pruning)     ...  36112 (   0.0 sec)
# of grid points (after weights+screening)   ...  32380 (   0.1 sec)
nearest neighbour list constructed           ...    0.0 sec
Grid point re-assignment to atoms done       ...    0.0 sec
Grid point division into batches done        ...    0.0 sec
Reduced shell lists constructed in    0.2 sec

Total number of grid points                  ...    32380
Total number of batches                      ...      520
Average number of points per batch           ...       62
Average number of grid points per atom       ...     1117
Average number of shells per batch           ...   292.55 (85.29%)
Average number of basis functions per batch  ...   869.45 (84.82%)
Average number of large shells per batch     ...   238.66 (81.58%)
Average number of large basis fcns per batch ...   708.62 (81.50%)
Maximum spatial batch extension              ...   3.42,  3.74,  5.81 au
Average spatial batch extension              ...   0.18,  0.18,  0.18 au

Time for grid setup =    0.361 sec

Loading Hartree-Fock densities                     ... done
Calculating cut-offs                               ... done
Setting up the integral package                    ... done
Initializing the effective Hamiltonian             ... done
Starting the Coulomb interaction                   ... done (   1.1 sec)
Reading the grid                                   ... done
Mapping shells                                     ... done
Starting the XC term evaluation                    ... done (   0.9 sec)
Transforming the Hamiltonian                       ... done (   0.2 sec)
Diagonalizing the Hamiltonian                      ... done (   0.4 sec)
Back transforming the eigenvectors                 ... done (   0.1 sec)
Now organizing SCF variables                       ... done
--------------
SCF ITERATIONS
--------------
ITER       Energy         Delta-E        Max-DP      RMS-DP      [F,P]     Damp
               ***  Starting incremental Fock matrix formation  ***
  0  -3027.5620884652   0.000000000000 0.27526814  0.00104724  0.2680394 0.7000
  1  -3027.8127234278  -0.250634962616 0.21411057  0.00082561  0.1605279 0.7000
                               ***Turning on DIIS***
  2  -3027.9812060219  -0.168482594077 0.15376852  0.00061016  0.1096375 0.7000
  3  -3029.5954716440  -1.614265622177 0.34418097  0.00152930  0.0821580 0.0000
  4  -3028.2884102119   1.307061432179 0.04804987  0.00021579  0.0208724 0.0000
  5  -3028.4020351365  -0.113624924596 0.04007297  0.00017095  0.0115593 0.0000
  6  -3028.4462666579  -0.044231521487 0.02140743  0.00007231  0.0056871 0.0000
  7  -3028.4638234503  -0.017556792359 0.00871527  0.00003343  0.0034508 0.0000
  8  -3028.4517362840   0.012087166269 0.00574027  0.00001886  0.0015603 0.0000
  9  -3028.4475725583   0.004163725716 0.00341224  0.00001123  0.0007220 0.0000
 10  -3028.4366506982   0.010921860112 0.00085301  0.00000312  0.0003410 0.0000
 11  -3028.4410897447  -0.004439046465 0.00043110  0.00000168  0.0001014 0.0000
 12  -3028.4385663273   0.002523417332 0.00055341  0.00000158  0.0000231 0.0000
 13  -3028.4388248477  -0.000258520397 0.00151819  0.00000300  0.0000125 0.0000
 14  -3028.4389193050  -0.000094457227 0.00046569  0.00000188  0.0000054 0.0000
 15  -3028.4388230778   0.000096227162 0.00126214  0.00000267  0.0000019 0.0000
 16  -3028.4388712685  -0.000048190713 0.00073632  0.00000220  0.0000016 0.0000
 17  -3028.4388718421  -0.000000573581 0.00178207  0.00000315  0.0000011 0.0000
 18  -3028.4388550746   0.000016767441 0.00187921  0.00000397  0.0000010 0.0000
                            ***DIIS convergence achieved***

               *****************************************************
               *                     SUCCESS                       *
               *           SCF CONVERGED AFTER  19 CYCLES          *
               *****************************************************

Total Energy       :        -3028.43885414 Eh          -82408.01076 eV
  Last Energy change         ...    9.3634e-07  Tolerance :   1.0000e-08
  Last MAX-Density change    ...    1.9285e-03  Tolerance :   1.0000e-07
             **** THE GBW FILE WAS UPDATED (simple-grid-200-295-b3lyp_d3bj-631gd-gas-singlepoint-DLPNO_CCSD_T1-NormalPNO-augtz-gas.gbw) ****
             **** DENSITY FILE WAS UPDATED (simple-grid-200-295-b3lyp_d3bj-631gd-gas-singlepoint-DLPNO_CCSD_T1-NormalPNO-augtz-gas.scfp.tmp) ****
             **** ENERGY FILE WAS UPDATED (simple-grid-200-295-b3lyp_d3bj-631gd-gas-singlepoint-DLPNO_CCSD_T1-NormalPNO-augtz-gas.en.tmp) ****
----------------------
UHF SPIN CONTAMINATION
----------------------

Expectation value of <S**2>     :     8.766103
Ideal value S*(S+1) for S=2.5   :     8.750000
Deviation                       :     0.016103

----------------
ORBITAL ENERGIES
----------------
                 SPIN UP ORBITALS
  NO   OCC          E(Eh)            E(eV) 
   0   1.0000    -261.553206     -7117.2246 
   1   1.0000    -104.776388     -2851.1105 
   2   1.0000    -104.773804     -2851.0401 
   3   1.0000    -104.773517     -2851.0324 
   4   1.0000     -32.221060      -876.7796 
   5   1.0000     -27.697234      -753.6801 
   6   1.0000     -27.696567      -753.6619 
   7   1.0000     -27.696427      -753.6581 
   8   1.0000     -20.569731      -559.7308 
   9   1.0000     -11.391826      -309.9874 
  10   1.0000     -11.347235      -308.7740 
  11   1.0000     -11.284249      -307.0600 
  12   1.0000     -11.275508      -306.8222 
  13   1.0000     -11.263440      -306.4938 
  14   1.0000     -11.259764      -306.3937 
  15   1.0000     -11.253172      -306.2144 
  16   1.0000     -11.247549      -306.0614 
  17   1.0000     -10.503044      -285.8024 
  18   1.0000     -10.500437      -285.7314 
  19   1.0000     -10.500116      -285.7227 
  20   1.0000      -7.969902      -216.8721 
  21   1.0000      -7.969101      -216.8503 
  22   1.0000      -7.969069      -216.8494 
  23   1.0000      -7.967306      -216.8014 
  24   1.0000      -7.966929      -216.7912 
  25   1.0000      -7.966534      -216.7804 
  26   1.0000      -7.966451      -216.7781 
  27   1.0000      -7.966243      -216.7725 
  28   1.0000      -7.966149      -216.7699 
  29   1.0000      -4.576326      -124.5282 
  30   1.0000      -3.189196       -86.7824 
  31   1.0000      -3.188115       -86.7530 
  32   1.0000      -3.187786       -86.7441 
  33   1.0000      -1.409059       -38.3424 
  34   1.0000      -1.174861       -31.9696 
  35   1.0000      -1.081076       -29.4176 
  36   1.0000      -1.048253       -28.5244 
  37   1.0000      -1.043716       -28.4010 
  38   1.0000      -1.041558       -28.3422 
  39   1.0000      -1.040642       -28.3173 
  40   1.0000      -1.000819       -27.2337 
  41   1.0000      -0.985974       -26.8297 
  42   1.0000      -0.924155       -25.1475 
  43   1.0000      -0.918940       -25.0056 
  44   1.0000      -0.905615       -24.6430 
  45   1.0000      -0.905595       -24.6425 
  46   1.0000      -0.895987       -24.3810 
  47   1.0000      -0.895581       -24.3700 
  48   1.0000      -0.791803       -21.5461 
  49   1.0000      -0.764736       -20.8095 
  50   1.0000      -0.692950       -18.8561 
  51   1.0000      -0.688540       -18.7361 
  52   1.0000      -0.673603       -18.3297 
  53   1.0000      -0.668108       -18.1802 
  54   1.0000      -0.653907       -17.7937 
  55   1.0000      -0.627826       -17.0840 
  56   1.0000      -0.604257       -16.4427 
  57   1.0000      -0.594368       -16.1736 
  58   1.0000      -0.589778       -16.0487 
  59   1.0000      -0.577959       -15.7271 
  60   1.0000      -0.572476       -15.5779 
  61   1.0000      -0.566459       -15.4141 
  62   1.0000      -0.559483       -15.2243 
  63   1.0000      -0.544177       -14.8078 
  64   1.0000      -0.533054       -14.5051 
  65   1.0000      -0.525700       -14.3050 
  66   1.0000      -0.513062       -13.9611 
  67   1.0000      -0.477624       -12.9968 
  68   1.0000      -0.462302       -12.5799 
  69   1.0000      -0.453340       -12.3360 
  70   1.0000      -0.429663       -11.6917 
  71   1.0000      -0.425812       -11.5869 
  72   1.0000      -0.422886       -11.5073 
  73   1.0000      -0.414673       -11.2838 
  74   1.0000      -0.412897       -11.2355 
  75   1.0000      -0.412374       -11.2213 
  76   1.0000      -0.388746       -10.5783 
  77   0.0000       0.006663         0.1813 
  78   0.0000       0.017547         0.4775 
  79   0.0000       0.019553         0.5321 
  80   0.0000       0.021704         0.5906 
  81   0.0000       0.029700         0.8082 
  82   0.0000       0.038899         1.0585 
  83   0.0000       0.039735         1.0813 
  84   0.0000       0.041499         1.1292 
  85   0.0000       0.044216         1.2032 
  86   0.0000       0.047013         1.2793 
  87   0.0000       0.056837         1.5466 
  88   0.0000       0.057616         1.5678 
  89   0.0000       0.060358         1.6424 
  90   0.0000       0.063168         1.7189 
  91   0.0000       0.065304         1.7770 
  92   0.0000       0.073434         1.9982 
  93   0.0000       0.074989         2.0406 
  94   0.0000       0.082937         2.2568 
  95   0.0000       0.086512         2.3541 
  96   0.0000       0.089729         2.4416 
  97   0.0000       0.092771         2.5244 
  98   0.0000       0.094805         2.5798 
  99   0.0000       0.097407         2.6506 
 100   0.0000       0.103735         2.8228 
 101   0.0000       0.104356         2.8397 
 102   0.0000       0.116494         3.1700 
 103   0.0000       0.116749         3.1769 
 104   0.0000       0.120898         3.2898 
 105   0.0000       0.124048         3.3755 
 106   0.0000       0.126611         3.4453 
 107   0.0000       0.131075         3.5667 
 108   0.0000       0.131179         3.5696 
 109   0.0000       0.135681         3.6921 
 110   0.0000       0.139308         3.7908 
 111   0.0000       0.142808         3.8860 
 112   0.0000       0.145098         3.9483 
 113   0.0000       0.149193         4.0598 
 114   0.0000       0.151113         4.1120 
 115   0.0000       0.155155         4.2220 
 116   0.0000       0.157094         4.2747 
 117   0.0000       0.159093         4.3291 
 118   0.0000       0.160433         4.3656 
 119   0.0000       0.162234         4.4146 
 120   0.0000       0.164875         4.4865 
 121   0.0000       0.170118         4.6291 
 122   0.0000       0.174064         4.7365 
 123   0.0000       0.177211         4.8221 
 124   0.0000       0.178634         4.8609 
 125   0.0000       0.182104         4.9553 
 126   0.0000       0.188882         5.1397 
 127   0.0000       0.190246         5.1769 
 128   0.0000       0.194178         5.2838 
 129   0.0000       0.199087         5.4174 
 130   0.0000       0.201305         5.4778 
 131   0.0000       0.205897         5.6027 
 132   0.0000       0.209546         5.7020 
 133   0.0000       0.213314         5.8046 
 134   0.0000       0.215718         5.8700 
 135   0.0000       0.216271         5.8850 
 136   0.0000       0.219347         5.9687 
 137   0.0000       0.223340         6.0774 
 138   0.0000       0.225222         6.1286 
 139   0.0000       0.227213         6.1828 
 140   0.0000       0.228184         6.2092 
 141   0.0000       0.236716         6.4414 
 142   0.0000       0.237715         6.4685 
 143   0.0000       0.243433         6.6241 
 144   0.0000       0.246466         6.7067 
 145   0.0000       0.251286         6.8378 
 146   0.0000       0.253853         6.9077 
 147   0.0000       0.255957         6.9649 
 148   0.0000       0.261497         7.1157 
 149   0.0000       0.263316         7.1652 
 150   0.0000       0.265834         7.2337 
 151   0.0000       0.275745         7.5034 
 152   0.0000       0.279260         7.5991 
 153   0.0000       0.280401         7.6301 
 154   0.0000       0.286627         7.7995 
 155   0.0000       0.290602         7.9077 
 156   0.0000       0.294572         8.0157 
 157   0.0000       0.296204         8.0601 
 158   0.0000       0.300978         8.1900 
 159   0.0000       0.301769         8.2115 
 160   0.0000       0.305508         8.3133 
 161   0.0000       0.312815         8.5121 
 162   0.0000       0.314351         8.5539 
 163   0.0000       0.319667         8.6986 
 164   0.0000       0.323191         8.7945 
 165   0.0000       0.329027         8.9533 
 166   0.0000       0.331398         9.0178 
 167   0.0000       0.335282         9.1235 
 168   0.0000       0.336541         9.1577 
 169   0.0000       0.338926         9.2226 
 170   0.0000       0.343248         9.3403 
 171   0.0000       0.347996         9.4695 
 172   0.0000       0.351648         9.5688 
 173   0.0000       0.354895         9.6572 
 174   0.0000       0.357227         9.7206 
 175   0.0000       0.360135         9.7998 
 176   0.0000       0.366006         9.9595 
 177   0.0000       0.368915        10.0387 
 178   0.0000       0.371607        10.1119 
 179   0.0000       0.375400        10.2152 
 180   0.0000       0.378779        10.3071 
 181   0.0000       0.379930        10.3384 
 182   0.0000       0.384477        10.4622 
 183   0.0000       0.388471        10.5708 
 184   0.0000       0.390279        10.6200 
 185   0.0000       0.393044        10.6953 
 186   0.0000       0.395549        10.7634 
 187   0.0000       0.402734        10.9589 
 188   0.0000       0.403233        10.9725 
 189   0.0000       0.406227        11.0540 
 190   0.0000       0.410597        11.1729 
 191   0.0000       0.410674        11.1750 
 192   0.0000       0.417629        11.3643 
 193   0.0000       0.421037        11.4570 
 194   0.0000       0.427263        11.6264 
 195   0.0000       0.431543        11.7429 
 196   0.0000       0.433055        11.7840 
 197   0.0000       0.433690        11.8013 
 198   0.0000       0.439638        11.9632 
 199   0.0000       0.446603        12.1527 
 200   0.0000       0.447675        12.1819 
 201   0.0000       0.450211        12.2509 
 202   0.0000       0.454146        12.3579 
 203   0.0000       0.455982        12.4079 
 204   0.0000       0.463095        12.6014 
 205   0.0000       0.464654        12.6439 
 206   0.0000       0.469237        12.7686 
 207   0.0000       0.471296        12.8246 
 208   0.0000       0.475305        12.9337 
 209   0.0000       0.480186        13.0665 
 210   0.0000       0.483396        13.1539 
 211   0.0000       0.488003        13.2792 
 212   0.0000       0.490383        13.3440 
 213   0.0000       0.491688        13.3795 
 214   0.0000       0.493596        13.4314 
 215   0.0000       0.498708        13.5705 
 216   0.0000       0.501540        13.6476 
 217   0.0000       0.505445        13.7539 
 218   0.0000       0.508496        13.8369 
 219   0.0000       0.512057        13.9338 
 220   0.0000       0.513709        13.9787 
 221   0.0000       0.516865        14.0646 
 222   0.0000       0.520789        14.1714 
 223   0.0000       0.525798        14.3077 
 224   0.0000       0.527422        14.3519 
 225   0.0000       0.530513        14.4360 
 226   0.0000       0.531782        14.4705 
 227   0.0000       0.536789        14.6068 
 228   0.0000       0.538078        14.6418 
 229   0.0000       0.543997        14.8029 
 230   0.0000       0.545057        14.8318 
 231   0.0000       0.547575        14.9003 
 232   0.0000       0.552351        15.0302 
 233   0.0000       0.553993        15.0749 
 234   0.0000       0.559606        15.2276 
 235   0.0000       0.562962        15.3190 
 236   0.0000       0.570599        15.5268 
 237   0.0000       0.572441        15.5769 
 238   0.0000       0.576812        15.6959 
 239   0.0000       0.577154        15.7052 
 240   0.0000       0.581290        15.8177 
 241   0.0000       0.582850        15.8601 
 242   0.0000       0.588080        16.0025 
 243   0.0000       0.589327        16.0364 
 244   0.0000       0.596681        16.2365 
 245   0.0000       0.600958        16.3529 
 246   0.0000       0.607664        16.5354 
 247   0.0000       0.610949        16.6248 
 248   0.0000       0.613698        16.6996 
 249   0.0000       0.615786        16.7564 
 250   0.0000       0.618529        16.8310 
 251   0.0000       0.619977        16.8704 
 252   0.0000       0.624696        16.9989 
 253   0.0000       0.628576        17.1044 
 254   0.0000       0.631066        17.1722 
 255   0.0000       0.636625        17.3234 
 256   0.0000       0.644825        17.5466 
 257   0.0000       0.650724        17.7071 
 258   0.0000       0.652743        17.7620 
 259   0.0000       0.656717        17.8702 
 260   0.0000       0.660282        17.9672 
 261   0.0000       0.668353        18.1868 
 262   0.0000       0.672198        18.2914 
 263   0.0000       0.674055        18.3420 
 264   0.0000       0.676698        18.4139 
 265   0.0000       0.678528        18.4637 
 266   0.0000       0.685429        18.6515 
 267   0.0000       0.691129        18.8066 
 268   0.0000       0.697313        18.9749 
 269   0.0000       0.698832        19.0162 
 270   0.0000       0.702679        19.1209 
 271   0.0000       0.707457        19.2509 
 272   0.0000       0.710426        19.3317 
 273   0.0000       0.716827        19.5058 
 274   0.0000       0.720158        19.5965 
 275   0.0000       0.721261        19.6265 
 276   0.0000       0.726592        19.7716 
 277   0.0000       0.732944        19.9444 
 278   0.0000       0.734437        19.9850 
 279   0.0000       0.737459        20.0673 
 280   0.0000       0.748600        20.3704 
 281   0.0000       0.752563        20.4783 
 282   0.0000       0.758075        20.6283 
 283   0.0000       0.761091        20.7103 
 284   0.0000       0.766253        20.8508 
 285   0.0000       0.780039        21.2259 
 286   0.0000       0.783388        21.3171 
 287   0.0000       0.790698        21.5160 
 288   0.0000       0.791902        21.5488 
 289   0.0000       0.796869        21.6839 
 290   0.0000       0.800028        21.7699 
 291   0.0000       0.814152        22.1542 
 292   0.0000       0.816266        22.2117 
 293   0.0000       0.825436        22.4612 
 294   0.0000       0.833162        22.6715 
 295   0.0000       0.835654        22.7393 
 296   0.0000       0.841442        22.8968 
 297   0.0000       0.848048        23.0766 
 298   0.0000       0.851689        23.1756 
 299   0.0000       0.856747        23.3133 
 300   0.0000       0.861194        23.4343 
 301   0.0000       0.863738        23.5035 
 302   0.0000       0.865875        23.5617 
 303   0.0000       0.868698        23.6385 
 304   0.0000       0.873642        23.7730 
 305   0.0000       0.878405        23.9026 
 306   0.0000       0.884773        24.0759 
 307   0.0000       0.887464        24.1491 
 308   0.0000       0.900363        24.5001 
 309   0.0000       0.902278        24.5522 
 310   0.0000       0.909195        24.7404 
 311   0.0000       0.910457        24.7748 
 312   0.0000       0.913080        24.8462 
 313   0.0000       0.916129        24.9291 
 314   0.0000       0.917794        24.9745 
 315   0.0000       0.925706        25.1898 
 316   0.0000       0.933951        25.4141 
 317   0.0000       0.935656        25.4605 
 318   0.0000       0.938288        25.5321 
 319   0.0000       0.943106        25.6632 
 320   0.0000       0.946065        25.7437 
 321   0.0000       0.952231        25.9115 
 322   0.0000       0.955165        25.9914 
 323   0.0000       0.957481        26.0544 
 324   0.0000       0.960922        26.1480 
 325   0.0000       0.962472        26.1902 
 326   0.0000       0.970181        26.4000 
 327   0.0000       0.974177        26.5087 
 328   0.0000       0.977761        26.6062 
 329   0.0000       0.984378        26.7863 
 330   0.0000       0.986201        26.8359 
 331   0.0000       0.987667        26.8758 
 332   0.0000       0.989681        26.9306 
 333   0.0000       0.992150        26.9978 
 334   0.0000       0.996528        27.1169 
 335   0.0000       1.000722        27.2310 
 336   0.0000       1.004755        27.3408 
 337   0.0000       1.006779        27.3959 
 338   0.0000       1.012447        27.5501 
 339   0.0000       1.016571        27.6623 
 340   0.0000       1.020543        27.7704 
 341   0.0000       1.021234        27.7892 
 342   0.0000       1.024513        27.8784 
 343   0.0000       1.029398        28.0113 
 344   0.0000       1.035700        28.1828 
 345   0.0000       1.038822        28.2678 
 346   0.0000       1.041990        28.3540 
 347   0.0000       1.043788        28.4029 
 348   0.0000       1.045148        28.4399 
 349   0.0000       1.049620        28.5616 
 350   0.0000       1.054258        28.6878 
 351   0.0000       1.061256        28.8782 
 352   0.0000       1.063451        28.9380 
 353   0.0000       1.065714        28.9995 
 354   0.0000       1.068638        29.0791 
 355   0.0000       1.075271        29.2596 
 356   0.0000       1.079164        29.3656 
 357   0.0000       1.081567        29.4309 
 358   0.0000       1.083988        29.4968 
 359   0.0000       1.088180        29.6109 
 360   0.0000       1.093105        29.7449 
 361   0.0000       1.095061        29.7981 
 362   0.0000       1.100300        29.9407 
 363   0.0000       1.103207        30.0198 
 364   0.0000       1.106813        30.1179 
 365   0.0000       1.111106        30.2347 
 366   0.0000       1.116410        30.3791 
 367   0.0000       1.124349        30.5951 
 368   0.0000       1.127532        30.6817 
 369   0.0000       1.129419        30.7331 
 370   0.0000       1.130540        30.7636 
 371   0.0000       1.139784        31.0151 
 372   0.0000       1.143819        31.1249 
 373   0.0000       1.148871        31.2624 
 374   0.0000       1.151038        31.3213 
 375   0.0000       1.156074        31.4584 
 376   0.0000       1.161183        31.5974 
 377   0.0000       1.167988        31.7826 
 378   0.0000       1.170247        31.8440 
 379   0.0000       1.175111        31.9764 
 380   0.0000       1.180027        32.1102 
 381   0.0000       1.181081        32.1389 
 382   0.0000       1.190669        32.3998 
 383   0.0000       1.191632        32.4260 
 384   0.0000       1.199355        32.6361 
 385   0.0000       1.203241        32.7418 
 386   0.0000       1.208349        32.8808 
 387   0.0000       1.211118        32.9562 
 388   0.0000       1.216844        33.1120 
 389   0.0000       1.218373        33.1536 
 390   0.0000       1.221339        33.2343 
 391   0.0000       1.227372        33.3985 
 392   0.0000       1.229330        33.4518 
 393   0.0000       1.238557        33.7028 
 394   0.0000       1.246728        33.9252 
 395   0.0000       1.255079        34.1524 
 396   0.0000       1.258622        34.2488 
 397   0.0000       1.260567        34.3018 
 398   0.0000       1.264610        34.4118 
 399   0.0000       1.267112        34.4799 
 400   0.0000       1.277308        34.7573 
 401   0.0000       1.281292        34.8657 
 402   0.0000       1.287360        35.0308 
 403   0.0000       1.292065        35.1589 
 404   0.0000       1.296075        35.2680 
 405   0.0000       1.296926        35.2912 
 406   0.0000       1.307711        35.5846 
 407   0.0000       1.307892        35.5895 
 408   0.0000       1.311081        35.6763 
 409   0.0000       1.317845        35.8604 
 410   0.0000       1.318354        35.8742 
 411   0.0000       1.322930        35.9987 
 412   0.0000       1.328800        36.1585 
 413   0.0000       1.340551        36.4782 
 414   0.0000       1.347162        36.6581 
 415   0.0000       1.352502        36.8035 
 416   0.0000       1.361018        37.0352 
 417   0.0000       1.362934        37.0873 
 418   0.0000       1.367199        37.2034 
 419   0.0000       1.371201        37.3123 
 420   0.0000       1.376658        37.4608 
 421   0.0000       1.379992        37.5515 
 422   0.0000       1.385348        37.6972 
 423   0.0000       1.391295        37.8591 
 424   0.0000       1.396781        38.0083 
 425   0.0000       1.405065        38.2338 
 426   0.0000       1.409849        38.3639 
 427   0.0000       1.419201        38.6184 
 428   0.0000       1.424937        38.7745 
 429   0.0000       1.431731        38.9594 
 430   0.0000       1.435736        39.0683 
 431   0.0000       1.438806        39.1519 
 432   0.0000       1.442998        39.2660 
 433   0.0000       1.449511        39.4432 
 434   0.0000       1.451839        39.5066 
 435   0.0000       1.456786        39.6412 
 436   0.0000       1.461626        39.7729 
 437   0.0000       1.467155        39.9233 
 438   0.0000       1.469501        39.9872 
 439   0.0000       1.474860        40.1330 
 440   0.0000       1.476983        40.1907 
 441   0.0000       1.484668        40.3999 
 442   0.0000       1.485122        40.4122 
 443   0.0000       1.497645        40.7530 
 444   0.0000       1.501039        40.8453 
 445   0.0000       1.509746        41.0823 
 446   0.0000       1.512154        41.1478 
 447   0.0000       1.513489        41.1841 
 448   0.0000       1.518076        41.3089 
 449   0.0000       1.530269        41.6407 
 450   0.0000       1.535025        41.7702 
 451   0.0000       1.541550        41.9477 
 452   0.0000       1.543580        42.0029 
 453   0.0000       1.546998        42.0959 
 454   0.0000       1.556146        42.3449 
 455   0.0000       1.562926        42.5294 
 456   0.0000       1.563943        42.5570 
 457   0.0000       1.568602        42.6838 
 458   0.0000       1.573031        42.8043 
 459   0.0000       1.577826        42.9348 
 460   0.0000       1.579308        42.9752 
 461   0.0000       1.591497        43.3068 
 462   0.0000       1.594456        43.3873 
 463   0.0000       1.598843        43.5067 
 464   0.0000       1.602709        43.6119 
 465   0.0000       1.611644        43.8551 
 466   0.0000       1.613668        43.9101 
 467   0.0000       1.621572        44.1252 
 468   0.0000       1.627031        44.2738 
 469   0.0000       1.635796        44.5123 
 470   0.0000       1.637862        44.5685 
 471   0.0000       1.639488        44.6127 
 472   0.0000       1.650346        44.9082 
 473   0.0000       1.652776        44.9743 
 474   0.0000       1.662485        45.2385 
 475   0.0000       1.666964        45.3604 
 476   0.0000       1.673583        45.5405 
 477   0.0000       1.679827        45.7104 
 478   0.0000       1.682374        45.7797 
 479   0.0000       1.686524        45.8927 
 480   0.0000       1.691897        46.0389 
 481   0.0000       1.695218        46.1292 
 482   0.0000       1.697075        46.1798 
 483   0.0000       1.699298        46.2403 
 484   0.0000       1.705177        46.4002 
 485   0.0000       1.717584        46.7378 
 486   0.0000       1.717963        46.7481 
 487   0.0000       1.724646        46.9300 
 488   0.0000       1.728136        47.0250 
 489   0.0000       1.735000        47.2117 
 490   0.0000       1.742868        47.4258 
 491   0.0000       1.752178        47.6792 
 492   0.0000       1.754918        47.7537 
 493   0.0000       1.757336        47.8195 
 494   0.0000       1.763209        47.9794 
 495   0.0000       1.770542        48.1789 
 496   0.0000       1.775714        48.3196 
 497   0.0000       1.785909        48.5970 
 498   0.0000       1.789770        48.7021 
 499   0.0000       1.796878        48.8955 
 500   0.0000       1.797594        48.9150 
 501   0.0000       1.805918        49.1415 
 502   0.0000       1.812108        49.3100 
 503   0.0000       1.813314        49.3428 
 504   0.0000       1.822874        49.6029 
 505   0.0000       1.826827        49.7105 
 506   0.0000       1.830674        49.8152 
 507   0.0000       1.833826        49.9009 
 508   0.0000       1.842117        50.1265 
 509   0.0000       1.843840        50.1734 
 510   0.0000       1.851148        50.3723 
 511   0.0000       1.856319        50.5130 
 512   0.0000       1.862905        50.6922 
 513   0.0000       1.866965        50.8027 
 514   0.0000       1.872240        50.9462 
 515   0.0000       1.873405        50.9779 
 516   0.0000       1.879082        51.1324 
 517   0.0000       1.887267        51.3551 
 518   0.0000       1.890194        51.4348 
 519   0.0000       1.897966        51.6463 
 520   0.0000       1.899191        51.6796 
 521   0.0000       1.908432        51.9311 
 522   0.0000       1.911368        52.0110 
 523   0.0000       1.915910        52.1346 
 524   0.0000       1.921636        52.2904 
 525   0.0000       1.930802        52.5398 
 526   0.0000       1.932844        52.5954 
 527   0.0000       1.935945        52.6797 
 528   0.0000       1.941615        52.8340 
 529   0.0000       1.951315        53.0980 
 530   0.0000       1.952881        53.1406 
 531   0.0000       1.960606        53.3508 
 532   0.0000       1.965208        53.4760 
 533   0.0000       1.974000        53.7153 
 534   0.0000       1.975435        53.7543 
 535   0.0000       1.977766        53.8177 
 536   0.0000       1.984040        53.9885 
 537   0.0000       1.994867        54.2831 
 538   0.0000       2.008584        54.6564 
 539   0.0000       2.010600        54.7112 
 540   0.0000       2.015233        54.8373 
 541   0.0000       2.022207        55.0271 
 542   0.0000       2.025806        55.1250 
 543   0.0000       2.039501        55.4977 
 544   0.0000       2.049974        55.7826 
 545   0.0000       2.051004        55.8107 
 546   0.0000       2.054631        55.9094 
 547   0.0000       2.060548        56.0704 
 548   0.0000       2.061379        56.0930 
 549   0.0000       2.071988        56.3817 
 550   0.0000       2.079756        56.5930 
 551   0.0000       2.089178        56.8494 
 552   0.0000       2.094772        57.0016 
 553   0.0000       2.099684        57.1353 
 554   0.0000       2.105123        57.2833 
 555   0.0000       2.118387        57.6443 
 556   0.0000       2.121577        57.7310 
 557   0.0000       2.135787        58.1177 
 558   0.0000       2.137954        58.1767 
 559   0.0000       2.145155        58.3726 
 560   0.0000       2.151683        58.5503 
 561   0.0000       2.157112        58.6980 
 562   0.0000       2.160894        58.8009 
 563   0.0000       2.165524        58.9269 
 564   0.0000       2.177580        59.2550 
 565   0.0000       2.186694        59.5030 
 566   0.0000       2.195239        59.7355 
 567   0.0000       2.201645        59.9098 
 568   0.0000       2.206973        60.0548 
 569   0.0000       2.218276        60.3624 
 570   0.0000       2.224033        60.5190 
 571   0.0000       2.228858        60.6503 
 572   0.0000       2.230056        60.6829 
 573   0.0000       2.236562        60.8599 
 574   0.0000       2.245840        61.1124 
 575   0.0000       2.251426        61.2644 
 576   0.0000       2.264130        61.6101 
 577   0.0000       2.267769        61.7091 
 578   0.0000       2.271734        61.8170 
 579   0.0000       2.285620        62.1949 
 580   0.0000       2.290933        62.3394 
 581   0.0000       2.298939        62.5573 
 582   0.0000       2.305701        62.7413 
 583   0.0000       2.308470        62.8167 
 584   0.0000       2.315465        63.0070 
 585   0.0000       2.319226        63.1093 
 586   0.0000       2.329422        63.3868 
 587   0.0000       2.333506        63.4979 
 588   0.0000       2.340351        63.6842 
 589   0.0000       2.355581        64.0986 
 590   0.0000       2.363426        64.3121 
 591   0.0000       2.374119        64.6031 
 592   0.0000       2.385640        64.9166 
 593   0.0000       2.388034        64.9817 
 594   0.0000       2.390198        65.0406 
 595   0.0000       2.397657        65.2436 
 596   0.0000       2.407690        65.5166 
 597   0.0000       2.419273        65.8318 
 598   0.0000       2.427128        66.0455 
 599   0.0000       2.439517        66.3826 
 600   0.0000       2.440622        66.4127 
 601   0.0000       2.454223        66.7828 
 602   0.0000       2.465790        67.0976 
 603   0.0000       2.474189        67.3261 
 604   0.0000       2.481357        67.5212 
 605   0.0000       2.499668        68.0194 
 606   0.0000       2.501407        68.0668 
 607   0.0000       2.515664        68.4547 
 608   0.0000       2.527732        68.7831 
 609   0.0000       2.537453        69.0476 
 610   0.0000       2.550200        69.3945 
 611   0.0000       2.568950        69.9047 
 612   0.0000       2.580546        70.2202 
 613   0.0000       2.598223        70.7012 
 614   0.0000       2.611129        71.0524 
 615   0.0000       2.619591        71.2827 
 616   0.0000       2.623486        71.3887 
 617   0.0000       2.644048        71.9482 
 618   0.0000       2.646547        72.0162 
 619   0.0000       2.653041        72.1929 
 620   0.0000       2.660510        72.3962 
 621   0.0000       2.668570        72.6155 
 622   0.0000       2.674451        72.7755 
 623   0.0000       2.690021        73.1992 
 624   0.0000       2.691305        73.2341 
 625   0.0000       2.705529        73.6212 
 626   0.0000       2.709631        73.7328 
 627   0.0000       2.717980        73.9600 
 628   0.0000       2.721370        74.0523 
 629   0.0000       2.728123        74.2360 
 630   0.0000       2.738919        74.5298 
 631   0.0000       2.741513        74.6004 
 632   0.0000       2.746458        74.7349 
 633   0.0000       2.760940        75.1290 
 634   0.0000       2.774320        75.4931 
 635   0.0000       2.779298        75.6286 
 636   0.0000       2.790552        75.9348 
 637   0.0000       2.808888        76.4337 
 638   0.0000       2.831492        77.0488 
 639   0.0000       2.838674        77.2442 
 640   0.0000       2.847565        77.4862 
 641   0.0000       2.874197        78.2109 
 642   0.0000       2.879511        78.3555 
 643   0.0000       2.888131        78.5900 
 644   0.0000       2.894497        78.7633 
 645   0.0000       2.921560        79.4997 
 646   0.0000       2.924704        79.5852 
 647   0.0000       2.936161        79.8970 
 648   0.0000       2.945207        80.1431 
 649   0.0000       2.961121        80.5762 
 650   0.0000       2.972682        80.8908 
 651   0.0000       2.975150        80.9579 
 652   0.0000       2.996213        81.5311 
 653   0.0000       3.017552        82.1118 
 654   0.0000       3.033074        82.5341 
 655   0.0000       3.048424        82.9518 
 656   0.0000       3.070425        83.5505 
 657   0.0000       3.080644        83.8286 
 658   0.0000       3.085036        83.9481 
 659   0.0000       3.097516        84.2877 
 660   0.0000       3.125166        85.0401 
 661   0.0000       3.136591        85.3510 
 662   0.0000       3.151385        85.7535 
 663   0.0000       3.157745        85.9266 
 664   0.0000       3.165661        86.1420 
 665   0.0000       3.183751        86.6343 
 666   0.0000       3.192180        86.8636 
 667   0.0000       3.208484        87.3073 
 668   0.0000       3.216675        87.5302 
 669   0.0000       3.225734        87.7767 
 670   0.0000       3.238539        88.1251 
 671   0.0000       3.242976        88.2459 
 672   0.0000       3.256119        88.6035 
 673   0.0000       3.256697        88.6192 
 674   0.0000       3.267495        88.9131 
 675   0.0000       3.275440        89.1292 
 676   0.0000       3.289261        89.5053 
 677   0.0000       3.302703        89.8711 
 678   0.0000       3.306841        89.9837 
 679   0.0000       3.315444        90.2178 
 680   0.0000       3.324079        90.4528 
 681   0.0000       3.336809        90.7992 
 682   0.0000       3.346286        91.0571 
 683   0.0000       3.349531        91.1454 
 684   0.0000       3.357547        91.3635 
 685   0.0000       3.365450        91.5786 
 686   0.0000       3.371783        91.7509 
 687   0.0000       3.387485        92.1781 
 688   0.0000       3.394631        92.3726 
 689   0.0000       3.408721        92.7560 
 690   0.0000       3.414785        92.9210 
 691   0.0000       3.429234        93.3142 
 692   0.0000       3.433214        93.4225 
 693   0.0000       3.435039        93.4722 
 694   0.0000       3.461424        94.1901 
 695   0.0000       3.469612        94.4130 
 696   0.0000       3.475784        94.5809 
 697   0.0000       3.481828        94.7454 
 698   0.0000       3.487777        94.9072 
 699   0.0000       3.492181        95.0271 
 700   0.0000       3.499003        95.2127 
 701   0.0000       3.510729        95.5318 
 702   0.0000       3.513256        95.6006 
 703   0.0000       3.519028        95.7576 
 704   0.0000       3.527101        95.9773 
 705   0.0000       3.538041        96.2750 
 706   0.0000       3.548049        96.5473 
 707   0.0000       3.552921        96.6799 
 708   0.0000       3.562518        96.9410 
 709   0.0000       3.568864        97.1137 
 710   0.0000       3.581818        97.4662 
 711   0.0000       3.589743        97.6819 
 712   0.0000       3.598405        97.9176 
 713   0.0000       3.601510        98.0021 
 714   0.0000       3.614101        98.3447 
 715   0.0000       3.627999        98.7229 
 716   0.0000       3.634655        98.9040 
 717   0.0000       3.649304        99.3026 
 718   0.0000       3.652508        99.3898 
 719   0.0000       3.667159        99.7885 
 720   0.0000       3.676153       100.0332 
 721   0.0000       3.676792       100.0506 
 722   0.0000       3.685767       100.2948 
 723   0.0000       3.694174       100.5236 
 724   0.0000       3.711183       100.9864 
 725   0.0000       3.712621       101.0255 
 726   0.0000       3.719813       101.2213 
 727   0.0000       3.732308       101.5613 
 728   0.0000       3.740450       101.7828 
 729   0.0000       3.746476       101.9468 
 730   0.0000       3.754503       102.1652 
 731   0.0000       3.758338       102.2696 
 732   0.0000       3.764055       102.4251 
 733   0.0000       3.769089       102.5621 
 734   0.0000       3.787538       103.0641 
 735   0.0000       3.790523       103.1454 
 736   0.0000       3.793594       103.2290 
 737   0.0000       3.796490       103.3077 
 738   0.0000       3.805274       103.5468 
 739   0.0000       3.812114       103.7329 
 740   0.0000       3.817166       103.8704 
 741   0.0000       3.822296       104.0100 
 742   0.0000       3.833442       104.3132 
 743   0.0000       3.840855       104.5150 
 744   0.0000       3.857352       104.9639 
 745   0.0000       3.864095       105.1474 
 746   0.0000       3.864761       105.1655 
 747   0.0000       3.870055       105.3096 
 748   0.0000       3.875917       105.4691 
 749   0.0000       3.889006       105.8252 
 750   0.0000       3.895356       105.9980 
 751   0.0000       3.905188       106.2656 
 752   0.0000       3.909949       106.3951 
 753   0.0000       3.915643       106.5501 
 754   0.0000       3.925203       106.8102 
 755   0.0000       3.930487       106.9540 
 756   0.0000       3.939355       107.1953 
 757   0.0000       3.947101       107.4061 
 758   0.0000       3.955244       107.6277 
 759   0.0000       3.956709       107.6675 
 760   0.0000       3.965049       107.8945 
 761   0.0000       3.971219       108.0624 
 762   0.0000       3.981910       108.3533 
 763   0.0000       3.994290       108.6902 
 764   0.0000       4.001255       108.8797 
 765   0.0000       4.005442       108.9936 
 766   0.0000       4.011689       109.1636 
 767   0.0000       4.014800       109.2483 
 768   0.0000       4.022476       109.4571 
 769   0.0000       4.026727       109.5728 
 770   0.0000       4.035242       109.8045 
 771   0.0000       4.046068       110.0991 
 772   0.0000       4.053099       110.2904 
 773   0.0000       4.057733       110.4165 
 774   0.0000       4.078018       110.9685 
 775   0.0000       4.082077       111.0790 
 776   0.0000       4.086320       111.1944 
 777   0.0000       4.092907       111.3737 
 778   0.0000       4.097136       111.4887 
 779   0.0000       4.101630       111.6110 
 780   0.0000       4.107515       111.7712 
 781   0.0000       4.117027       112.0300 
 782   0.0000       4.121260       112.1452 
 783   0.0000       4.139720       112.6475 
 784   0.0000       4.144119       112.7672 
 785   0.0000       4.158105       113.1478 
 786   0.0000       4.170474       113.4844 
 787   0.0000       4.174395       113.5911 
 788   0.0000       4.186379       113.9172 
 789   0.0000       4.189536       114.0031 
 790   0.0000       4.198268       114.2407 
 791   0.0000       4.200838       114.3106 
 792   0.0000       4.213574       114.6572 
 793   0.0000       4.221668       114.8774 
 794   0.0000       4.233677       115.2042 
 795   0.0000       4.237097       115.2973 
 796   0.0000       4.250799       115.6701 
 797   0.0000       4.259634       115.9105 
 798   0.0000       4.263452       116.0144 
 799   0.0000       4.275759       116.3493 
 800   0.0000       4.289016       116.7101 
 801   0.0000       4.293579       116.8342 
 802   0.0000       4.306577       117.1879 
 803   0.0000       4.310217       117.2870 
 804   0.0000       4.321082       117.5826 
 805   0.0000       4.327571       117.7592 
 806   0.0000       4.329319       117.8068 
 807   0.0000       4.339648       118.0878 
 808   0.0000       4.345143       118.2374 
 809   0.0000       4.353975       118.4777 
 810   0.0000       4.373043       118.9966 
 811   0.0000       4.379056       119.1602 
 812   0.0000       4.387567       119.3918 
 813   0.0000       4.394128       119.5703 
 814   0.0000       4.416240       120.1720 
 815   0.0000       4.429442       120.5312 
 816   0.0000       4.440476       120.8315 
 817   0.0000       4.444909       120.9521 
 818   0.0000       4.450922       121.1157 
 819   0.0000       4.454144       121.2034 
 820   0.0000       4.464841       121.4945 
 821   0.0000       4.477163       121.8298 
 822   0.0000       4.485463       122.0556 
 823   0.0000       4.491346       122.2157 
 824   0.0000       4.510724       122.7431 
 825   0.0000       4.516703       122.9057 
 826   0.0000       4.529422       123.2518 
 827   0.0000       4.537825       123.4805 
 828   0.0000       4.545983       123.7025 
 829   0.0000       4.550308       123.8202 
 830   0.0000       4.565891       124.2442 
 831   0.0000       4.584201       124.7425 
 832   0.0000       4.585920       124.7892 
 833   0.0000       4.598314       125.1265 
 834   0.0000       4.612310       125.5073 
 835   0.0000       4.616971       125.6342 
 836   0.0000       4.625609       125.8692 
 837   0.0000       4.630917       126.0137 
 838   0.0000       4.651139       126.5639 
 839   0.0000       4.662057       126.8610 
 840   0.0000       4.687458       127.5522 
 841   0.0000       4.697026       127.8126 
 842   0.0000       4.703461       127.9877 
 843   0.0000       4.707970       128.1104 
 844   0.0000       4.727527       128.6425 
 845   0.0000       4.737033       128.9012 
 846   0.0000       4.749583       129.2427 
 847   0.0000       4.752380       129.3188 
 848   0.0000       4.757881       129.4685 
 849   0.0000       4.778779       130.0372 
 850   0.0000       4.782911       130.1496 
 851   0.0000       4.788966       130.3144 
 852   0.0000       4.802994       130.6961 
 853   0.0000       4.813447       130.9806 
 854   0.0000       4.822714       131.2327 
 855   0.0000       4.838805       131.6706 
 856   0.0000       4.843099       131.7874 
 857   0.0000       4.850000       131.9752 
 858   0.0000       4.875746       132.6758 
 859   0.0000       4.881388       132.8293 
 860   0.0000       4.896125       133.2303 
 861   0.0000       4.903502       133.4311 
 862   0.0000       4.917812       133.8205 
 863   0.0000       4.937992       134.3696 
 864   0.0000       4.945806       134.5822 
 865   0.0000       4.955837       134.8552 
 866   0.0000       4.967330       135.1679 
 867   0.0000       4.969492       135.2268 
 868   0.0000       4.984417       135.6329 
 869   0.0000       4.986785       135.6973 
 870   0.0000       4.996913       135.9729 
 871   0.0000       5.023128       136.6863 
 872   0.0000       5.026906       136.7891 
 873   0.0000       5.034626       136.9991 
 874   0.0000       5.048533       137.3776 
 875   0.0000       5.059474       137.6753 
 876   0.0000       5.068752       137.9277 
 877   0.0000       5.077285       138.1600 
 878   0.0000       5.104659       138.9048 
 879   0.0000       5.105749       138.9345 
 880   0.0000       5.118123       139.2712 
 881   0.0000       5.123959       139.4300 
 882   0.0000       5.151840       140.1887 
 883   0.0000       5.165592       140.5629 
 884   0.0000       5.169504       140.6693 
 885   0.0000       5.182093       141.0119 
 886   0.0000       5.192718       141.3011 
 887   0.0000       5.203541       141.5956 
 888   0.0000       5.211258       141.8055 
 889   0.0000       5.232771       142.3909 
 890   0.0000       5.240154       142.5919 
 891   0.0000       5.255523       143.0101 
 892   0.0000       5.267497       143.3359 
 893   0.0000       5.274840       143.5357 
 894   0.0000       5.286394       143.8501 
 895   0.0000       5.295122       144.0876 
 896   0.0000       5.299514       144.2071 
 897   0.0000       5.340583       145.3247 
 898   0.0000       5.343208       145.3961 
 899   0.0000       5.359357       145.8355 
 900   0.0000       5.373150       146.2108 
 901   0.0000       5.376278       146.2960 
 902   0.0000       5.396198       146.8380 
 903   0.0000       5.404567       147.0657 
 904   0.0000       5.413674       147.3136 
 905   0.0000       5.427062       147.6779 
 906   0.0000       5.446016       148.1936 
 907   0.0000       5.455092       148.4406 
 908   0.0000       5.464507       148.6968 
 909   0.0000       5.480667       149.1365 
 910   0.0000       5.492393       149.4556 
 911   0.0000       5.497146       149.5850 
 912   0.0000       5.510425       149.9463 
 913   0.0000       5.526260       150.3772 
 914   0.0000       5.539590       150.7399 
 915   0.0000       5.543789       150.8542 
 916   0.0000       5.560849       151.3184 
 917   0.0000       5.574036       151.6772 
 918   0.0000       5.582646       151.9115 
 919   0.0000       5.590556       152.1268 
 920   0.0000       5.614701       152.7838 
 921   0.0000       5.626958       153.1173 
 922   0.0000       5.638515       153.4318 
 923   0.0000       5.643239       153.5603 
 924   0.0000       5.656213       153.9134 
 925   0.0000       5.673232       154.3765 
 926   0.0000       5.680155       154.5649 
 927   0.0000       5.687532       154.7656 
 928   0.0000       5.692750       154.9076 
 929   0.0000       5.704395       155.2245 
 930   0.0000       5.712321       155.4402 
 931   0.0000       5.732655       155.9935 
 932   0.0000       5.749837       156.4610 
 933   0.0000       5.755093       156.6040 
 934   0.0000       5.762420       156.8034 
 935   0.0000       5.776923       157.1981 
 936   0.0000       5.795566       157.7054 
 937   0.0000       5.808399       158.0546 
 938   0.0000       5.819463       158.3557 
 939   0.0000       5.835000       158.7784 
 940   0.0000       5.849037       159.1604 
 941   0.0000       5.881630       160.0473 
 942   0.0000       5.890733       160.2950 
 943   0.0000       5.915607       160.9718 
 944   0.0000       5.932955       161.4439 
 945   0.0000       5.962990       162.2612 
 946   0.0000       6.015647       163.6941 
 947   0.0000       6.058726       164.8663 
 948   0.0000       6.088199       165.6683 
 949   0.0000       6.126331       166.7059 
 950   0.0000       6.145385       167.2244 
 951   0.0000       6.162582       167.6924 
 952   0.0000       6.179760       168.1598 
 953   0.0000       6.192375       168.5031 
 954   0.0000       6.223098       169.3391 
 955   0.0000       6.229439       169.5117 
 956   0.0000       6.246275       169.9698 
 957   0.0000       6.252529       170.1400 
 958   0.0000       6.260425       170.3548 
 959   0.0000       6.295356       171.3054 
 960   0.0000       6.305599       171.5841 
 961   0.0000       6.315693       171.8587 
 962   0.0000       6.333241       172.3363 
 963   0.0000       6.353069       172.8758 
 964   0.0000       6.357781       173.0040 
 965   0.0000       6.368203       173.2876 
 966   0.0000       6.397000       174.0712 
 967   0.0000       6.421747       174.7446 
 968   0.0000       6.468469       176.0160 
 969   0.0000       6.518851       177.3870 
 970   0.0000       6.537131       177.8844 
 971   0.0000       6.674182       181.6137 
 972   0.0000       6.810380       185.3199 
 973   0.0000       6.854842       186.5297 
 974   0.0000       6.883295       187.3040 
 975   0.0000       6.905357       187.9043 
 976   0.0000       6.919256       188.2825 
 977   0.0000       6.937103       188.7682 
 978   0.0000       6.962981       189.4724 
 979   0.0000       6.985152       190.0757 
 980   0.0000       7.006522       190.6572 
 981   0.0000       7.030663       191.3141 
 982   0.0000       7.048381       191.7962 
 983   0.0000       7.064373       192.2314 
 984   0.0000       7.126574       193.9239 
 985   0.0000       7.177127       195.2996 
 986   0.0000       7.287680       198.3079 
 987   0.0000       7.361220       200.3090 
 988   0.0000       7.371549       200.5900 
 989   0.0000       7.468852       203.2378 
 990   0.0000       7.548711       205.4109 
 991   0.0000       7.601596       206.8500 
 992   0.0000       7.638436       207.8524 
 993   0.0000       7.748034       210.8347 
 994   0.0000       7.776634       211.6130 
 995   0.0000       7.906824       215.1556 
 996   0.0000       8.004969       217.8263 
 997   0.0000       8.115371       220.8305 
 998   0.0000       8.311383       226.1642 
 999   0.0000       9.435315       256.7480 
 1000   0.0000       9.447550       257.0809 
 1001   0.0000       9.458206       257.3709 
 1002   0.0000       9.465798       257.5774 
 1003   0.0000       9.475732       257.8478 
 1004   0.0000       9.505660       258.6622 
 1005   0.0000       9.727165       264.6896 
 1006   0.0000      10.102670       274.9076 
 1007   0.0000      10.113958       275.2148 
 1008   0.0000      10.138104       275.8718 
 1009   0.0000      10.221529       278.1419 
 1010   0.0000      10.226376       278.2738 
 1011   0.0000      10.256476       279.0929 
 1012   0.0000      10.387007       282.6448 
 1013   0.0000      10.416745       283.4540 
 1014   0.0000      10.534008       286.6449 
 1015   0.0000      15.424153       419.7125 
 1016   0.0000      17.314926       471.1631 
 1017   0.0000      18.132800       493.4186 
 1018   0.0000      18.449089       502.0252 
 1019   0.0000      18.586223       505.7568 
 1020   0.0000      18.991403       516.7823 
 1021   0.0000      19.076545       519.0992 
 1022   0.0000      19.739115       537.1286 
 1023   0.0000      20.474067       557.1277 
 1024   0.0000      21.818913       593.7228 

                 SPIN DOWN ORBITALS
  NO   OCC          E(Eh)            E(eV) 
   0   1.0000    -261.549646     -7117.1277 
   1   1.0000    -104.774956     -2851.0715 
   2   1.0000    -104.772341     -2851.0003 
   3   1.0000    -104.772072     -2850.9930 
   4   1.0000     -32.058979      -872.3692 
   5   1.0000     -27.536959      -749.3188 
   6   1.0000     -27.536885      -749.3167 
   7   1.0000     -27.536550      -749.3076 
   8   1.0000     -20.565413      -559.6133 
   9   1.0000     -11.391857      -309.9882 
  10   1.0000     -11.346469      -308.7531 
  11   1.0000     -11.284353      -307.0629 
  12   1.0000     -11.275782      -306.8296 
  13   1.0000     -11.263536      -306.4964 
  14   1.0000     -11.259660      -306.3909 
  15   1.0000     -11.253191      -306.2149 
  16   1.0000     -11.247543      -306.0612 
  17   1.0000     -10.501509      -285.7606 
  18   1.0000     -10.498871      -285.6888 
  19   1.0000     -10.498573      -285.6807 
  20   1.0000      -7.967410      -216.8042 
  21   1.0000      -7.966778      -216.7871 
  22   1.0000      -7.966716      -216.7854 
  23   1.0000      -7.964777      -216.7326 
  24   1.0000      -7.964550      -216.7264 
  25   1.0000      -7.964137      -216.7152 
  26   1.0000      -7.964043      -216.7126 
  27   1.0000      -7.963804      -216.7061 
  28   1.0000      -7.963704      -216.7034 
  29   1.0000      -4.133995      -112.4917 
  30   1.0000      -2.655708       -72.2655 
  31   1.0000      -2.655648       -72.2639 
  32   1.0000      -2.654981       -72.2457 
  33   1.0000      -1.398002       -38.0416 
  34   1.0000      -1.173125       -31.9224 
  35   1.0000      -1.078683       -29.3524 
  36   1.0000      -1.042791       -28.3758 
  37   1.0000      -1.033096       -28.1120 
  38   1.0000      -1.021340       -27.7921 
  39   1.0000      -1.019600       -27.7447 
  40   1.0000      -1.000710       -27.2307 
  41   1.0000      -0.985418       -26.8146 
  42   1.0000      -0.921636       -25.0790 
  43   1.0000      -0.805744       -21.9254 
  44   1.0000      -0.765552       -20.8317 
  45   1.0000      -0.693959       -18.8836 
  46   1.0000      -0.688261       -18.7285 
  47   1.0000      -0.675676       -18.3861 
  48   1.0000      -0.666955       -18.1488 
  49   1.0000      -0.653580       -17.7848 
  50   1.0000      -0.627192       -17.0668 
  51   1.0000      -0.603862       -16.4319 
  52   1.0000      -0.593878       -16.1602 
  53   1.0000      -0.589672       -16.0458 
  54   1.0000      -0.577889       -15.7252 
  55   1.0000      -0.572276       -15.5724 
  56   1.0000      -0.566176       -15.4064 
  57   1.0000      -0.559361       -15.2210 
  58   1.0000      -0.543504       -14.7895 
  59   1.0000      -0.531234       -14.4556 
  60   1.0000      -0.524541       -14.2735 
  61   1.0000      -0.504591       -13.7306 
  62   1.0000      -0.475218       -12.9313 
  63   1.0000      -0.466640       -12.6979 
  64   1.0000      -0.463967       -12.6252 
  65   1.0000      -0.437625       -11.9084 
  66   1.0000      -0.434716       -11.8292 
  67   1.0000      -0.432648       -11.7729 
  68   1.0000      -0.421166       -11.4605 
  69   1.0000      -0.412498       -11.2246 
  70   1.0000      -0.398230       -10.8364 
  71   1.0000      -0.386074       -10.5056 
  72   0.0000       0.006668         0.1814 
  73   0.0000       0.018077         0.4919 
  74   0.0000       0.019615         0.5337 
  75   0.0000       0.021733         0.5914 
  76   0.0000       0.029653         0.8069 
  77   0.0000       0.038875         1.0578 
  78   0.0000       0.039764         1.0820 
  79   0.0000       0.041328         1.1246 
  80   0.0000       0.044159         1.2016 
  81   0.0000       0.047102         1.2817 
  82   0.0000       0.056815         1.5460 
  83   0.0000       0.057527         1.5654 
  84   0.0000       0.060267         1.6399 
  85   0.0000       0.063135         1.7180 
  86   0.0000       0.065255         1.7757 
  87   0.0000       0.073386         1.9969 
  88   0.0000       0.075024         2.0415 
  89   0.0000       0.082940         2.2569 
  90   0.0000       0.086400         2.3511 
  91   0.0000       0.089402         2.4328 
  92   0.0000       0.092732         2.5234 
  93   0.0000       0.094728         2.5777 
  94   0.0000       0.097398         2.6503 
  95   0.0000       0.103497         2.8163 
  96   0.0000       0.104262         2.8371 
  97   0.0000       0.115590         3.1454 
  98   0.0000       0.116318         3.1652 
  99   0.0000       0.119326         3.2470 
 100   0.0000       0.122112         3.3228 
 101   0.0000       0.123950         3.3729 
 102   0.0000       0.124706         3.3934 
 103   0.0000       0.125861         3.4248 
 104   0.0000       0.129105         3.5131 
 105   0.0000       0.129806         3.5322 
 106   0.0000       0.132493         3.6053 
 107   0.0000       0.134008         3.6465 
 108   0.0000       0.136259         3.7078 
 109   0.0000       0.136600         3.7171 
 110   0.0000       0.141576         3.8525 
 111   0.0000       0.145054         3.9471 
 112   0.0000       0.146519         3.9870 
 113   0.0000       0.150544         4.0965 
 114   0.0000       0.152317         4.1448 
 115   0.0000       0.155852         4.2409 
 116   0.0000       0.158083         4.3016 
 117   0.0000       0.160780         4.3751 
 118   0.0000       0.161722         4.4007 
 119   0.0000       0.164617         4.4795 
 120   0.0000       0.165115         4.4930 
 121   0.0000       0.170878         4.6498 
 122   0.0000       0.174946         4.7605 
 123   0.0000       0.178273         4.8511 
 124   0.0000       0.179407         4.8819 
 125   0.0000       0.183420         4.9911 
 126   0.0000       0.190442         5.1822 
 127   0.0000       0.192186         5.2297 
 128   0.0000       0.194776         5.3001 
 129   0.0000       0.200243         5.4489 
 130   0.0000       0.202546         5.5115 
 131   0.0000       0.207708         5.6520 
 132   0.0000       0.213472         5.8089 
 133   0.0000       0.217139         5.9087 
 134   0.0000       0.218697         5.9511 
 135   0.0000       0.219513         5.9733 
 136   0.0000       0.224255         6.1023 
 137   0.0000       0.226343         6.1591 
 138   0.0000       0.229339         6.2406 
 139   0.0000       0.231542         6.3006 
 140   0.0000       0.233078         6.3424 
 141   0.0000       0.238714         6.4957 
 142   0.0000       0.241946         6.5837 
 143   0.0000       0.246205         6.6996 
 144   0.0000       0.249101         6.7784 
 145   0.0000       0.256856         6.9894 
 146   0.0000       0.257479         7.0063 
 147   0.0000       0.262769         7.1503 
 148   0.0000       0.263388         7.1672 
 149   0.0000       0.266227         7.2444 
 150   0.0000       0.273456         7.4411 
 151   0.0000       0.279096         7.5946 
 152   0.0000       0.282580         7.6894 
 153   0.0000       0.288203         7.8424 
 154   0.0000       0.291102         7.9213 
 155   0.0000       0.295428         8.0390 
 156   0.0000       0.297096         8.0844 
 157   0.0000       0.301312         8.1991 
 158   0.0000       0.302246         8.2245 
 159   0.0000       0.310361         8.4454 
 160   0.0000       0.314882         8.5684 
 161   0.0000       0.315583         8.5875 
 162   0.0000       0.317713         8.6454 
 163   0.0000       0.324018         8.8170 
 164   0.0000       0.327146         8.9021 
 165   0.0000       0.331364         9.0169 
 166   0.0000       0.335642         9.1333 
 167   0.0000       0.338376         9.2077 
 168   0.0000       0.340203         9.2574 
 169   0.0000       0.343320         9.3422 
 170   0.0000       0.346409         9.4263 
 171   0.0000       0.351898         9.5756 
 172   0.0000       0.353702         9.6247 
 173   0.0000       0.356835         9.7100 
 174   0.0000       0.361838         9.8461 
 175   0.0000       0.362868         9.8741 
 176   0.0000       0.368855        10.0371 
 177   0.0000       0.370404        10.0792 
 178   0.0000       0.374065        10.1788 
 179   0.0000       0.377089        10.2611 
 180   0.0000       0.382130        10.3983 
 181   0.0000       0.387449        10.5430 
 182   0.0000       0.388536        10.5726 
 183   0.0000       0.391370        10.6497 
 184   0.0000       0.395874        10.7723 
 185   0.0000       0.401770        10.9327 
 186   0.0000       0.402155        10.9432 
 187   0.0000       0.404896        11.0178 
 188   0.0000       0.407326        11.0839 
 189   0.0000       0.410208        11.1623 
 190   0.0000       0.413881        11.2623 
 191   0.0000       0.415546        11.3076 
 192   0.0000       0.419998        11.4287 
 193   0.0000       0.426705        11.6112 
 194   0.0000       0.430773        11.7219 
 195   0.0000       0.434669        11.8280 
 196   0.0000       0.436077        11.8663 
 197   0.0000       0.438829        11.9412 
 198   0.0000       0.443695        12.0735 
 199   0.0000       0.449726        12.2377 
 200   0.0000       0.453204        12.3323 
 201   0.0000       0.454903        12.3786 
 202   0.0000       0.455788        12.4026 
 203   0.0000       0.462276        12.5792 
 204   0.0000       0.464919        12.6511 
 205   0.0000       0.468365        12.7448 
 206   0.0000       0.471931        12.8419 
 207   0.0000       0.476983        12.9794 
 208   0.0000       0.478351        13.0166 
 209   0.0000       0.484631        13.1875 
 210   0.0000       0.486557        13.2399 
 211   0.0000       0.492240        13.3945 
 212   0.0000       0.494060        13.4440 
 213   0.0000       0.497124        13.5274 
 214   0.0000       0.501626        13.6499 
 215   0.0000       0.503080        13.6895 
 216   0.0000       0.505816        13.7640 
 217   0.0000       0.508602        13.8398 
 218   0.0000       0.511749        13.9254 
 219   0.0000       0.514333        13.9957 
 220   0.0000       0.516778        14.0622 
 221   0.0000       0.521236        14.1836 
 222   0.0000       0.527213        14.3462 
 223   0.0000       0.529141        14.3987 
 224   0.0000       0.532248        14.4832 
 225   0.0000       0.532438        14.4884 
 226   0.0000       0.536242        14.5919 
 227   0.0000       0.540475        14.7071 
 228   0.0000       0.540959        14.7202 
 229   0.0000       0.546512        14.8714 
 230   0.0000       0.547946        14.9104 
 231   0.0000       0.551001        14.9935 
 232   0.0000       0.554978        15.1017 
 233   0.0000       0.557256        15.1637 
 234   0.0000       0.561908        15.2903 
 235   0.0000       0.565390        15.3850 
 236   0.0000       0.572919        15.5899 
 237   0.0000       0.576060        15.6754 
 238   0.0000       0.578106        15.7311 
 239   0.0000       0.579729        15.7752 
 240   0.0000       0.583306        15.8726 
 241   0.0000       0.584888        15.9156 
 242   0.0000       0.589679        16.0460 
 243   0.0000       0.590885        16.0788 
 244   0.0000       0.599018        16.3001 
 245   0.0000       0.602441        16.3933 
 246   0.0000       0.609192        16.5770 
 247   0.0000       0.612524        16.6676 
 248   0.0000       0.614739        16.7279 
 249   0.0000       0.617033        16.7903 
 250   0.0000       0.620193        16.8763 
 251   0.0000       0.621835        16.9210 
 252   0.0000       0.626914        17.0592 
 253   0.0000       0.630867        17.1668 
 254   0.0000       0.633263        17.2320 
 255   0.0000       0.638913        17.3857 
 256   0.0000       0.647890        17.6300 
 257   0.0000       0.652989        17.7687 
 258   0.0000       0.655014        17.8238 
 259   0.0000       0.658155        17.9093 
 260   0.0000       0.664381        18.0787 
 261   0.0000       0.671048        18.2601 
 262   0.0000       0.674974        18.3670 
 263   0.0000       0.676618        18.4117 
 264   0.0000       0.679833        18.4992 
 265   0.0000       0.680525        18.5180 
 266   0.0000       0.689278        18.7562 
 267   0.0000       0.693978        18.8841 
 268   0.0000       0.699814        19.0429 
 269   0.0000       0.702655        19.1202 
 270   0.0000       0.706009        19.2115 
 271   0.0000       0.710057        19.3216 
 272   0.0000       0.716099        19.4861 
 273   0.0000       0.722292        19.6546 
 274   0.0000       0.723109        19.6768 
 275   0.0000       0.723537        19.6884 
 276   0.0000       0.729675        19.8555 
 277   0.0000       0.736213        20.0334 
 278   0.0000       0.739747        20.1295 
 279   0.0000       0.741378        20.1739 
 280   0.0000       0.751136        20.4395 
 281   0.0000       0.756629        20.5889 
 282   0.0000       0.763242        20.7689 
 283   0.0000       0.766846        20.8669 
[...]
  | sigma^2 in % of trace(Dij) retained ...   8.91e+00
  | sigma^2 in % of trace(Dip) retained ...   1.62e+01
  | sigma^2 in % of trace(Dpq) retained ...   1.43e-01
  | Av. % of trace(Di) retained         ...  99.998508178761
  | Av. % of trace(Dp) retained         ...  99.999997715750
  | sigma^2 in % of trace(Di) retained  ...   7.35e-07
  | sigma^2 in % of trace(Dp) retained  ...   3.23e-12
 Distributions of % trace(Dij) recovered:
  |       >= 99.9  ...   103 ( 20.9 % of all IJ-pairs)
  |   [80.0, 90.0) ...    31 (  6.3 % of all IJ-pairs)
  |   [90.0, 99.0) ...   265 ( 53.6 % of all IJ-pairs)
  |   [99.0, 99.9) ...    95 ( 19.2 % of all IJ-pairs)
 Distributions of % trace(Dip) recovered:
  |   [80.0, 90.0) ...    13 ( 11.1 % of all IP-pairs)
  |   [90.0, 99.0) ...    63 ( 53.8 % of all IP-pairs)
  |   [99.0, 99.9) ...    41 ( 35.0 % of all IP-pairs)
 Distributions of % trace(Dpq) recovered:
  |       >= 99.9  ...     5 ( 33.3 % of all PQ-pairs)
  |   [99.0, 99.9) ...    10 ( 66.7 % of all PQ-pairs)
 Distributions of % trace(Di) recovered :
  |       >= 99.9  ...    43 (100.0 % of all I-pairs )
 Distributions of % trace(Dp) recovered :
  |       >= 99.9  ...     5 (100.0 % of all P-pairs )

                       ===========================
                       1087 OF 1654 PAIRS ARE KEPT
                       ===========================

 Initial PAO correlation energy (all pairs)    ...  -2.6985039501 Eh
 Energy constituents in PAO basis (Eh):
  | Vijab(+0) ...  -2.2700761484
  | Viab (-1) ...  -0.1748555257
  | Vab  (-2) ...  -0.0573635891
  | Va   (-1) ...  -0.0000454765
  | Vija (+1) ...  -0.0721811563
  | Vij  (+2) ...  -0.0155097484
  | Via  (+0) ...  -0.1083114549
  | Vi   (+1) ...  -0.0001608508
 Initial PNO correlation energy                ...  -2.6641593002 Eh
 Energy constituents in PNO basis (Eh):
  | Vijab(+0) ...  -2.2515861920 (err=  0.0184899563)
  | Viab (-1) ...  -0.1606382513 (err=  0.0142172744)
  | Vab  (-2) ...  -0.0568904577 (err=  0.0004731314)
  | Va   (-1) ...  -0.0000256329 (err=  0.0000198437)
  | Vija (+1) ...  -0.0711824804 (err=  0.0009986759)
  | Vij  (+2) ...  -0.0154553047 (err=  0.0000544436)
  | Via  (+0) ...  -0.1082205735 (err=  0.0000908814)
  | Vi   (+1) ...  -0.0001604077 (err=  0.0000004431)
 Sum of total truncation errors ...   0.0343446499 Eh
  | Pair screening ...   0.0113124741 Eh
  | PNO truncation ...   0.0230321758 Eh

 UMP2 correlation energy (PAO) ...  -2.6935339665
  | alpha-alpha ...  -0.3876458651 (NP_aa=  895)
  | alpha-beta  ...  -1.9978143730 (NP_ab= 1629)
  | beta -beta  ...  -0.3080737284 (NP_bb=  701)
 UMP2 correlation energy (PNO) ...  -2.6588022347
  | alpha-alpha ...  -0.3756162889 (err=  0.0120295762, NP_aa=  578)
  | alpha-beta  ...  -1.9791211474 (err=  0.0186932256, NP_ab= 1062)
  | beta -beta  ...  -0.3040647984 (err=  0.0040089300, NP_bb=  451)
 Sum of total UMP2 truncation errors ...   0.0347317318 Eh
  | Pair screening ...   0.0113300659 Eh
  | PNO truncation ...   0.0234016659 Eh
 Timing for NEV-PNO construction (sec.)
  | Intermediate construction  ..           49.462
  | Amplitude construction     ..           67.036
  | Total time                 ..          116.499
 Making pair pair interaction lists ...      ok
 Total size for 2-ext PNO integrals ...     11.1 MB
Checking the number of SOMO/SOMO doubles PNOs ... 
 #Truncate: (72, 72)[173] -> [87] .. 
 #Truncate: (73, 73)[170] -> [87] .. 
 #Truncate: (74, 74)[172] -> [87] .. 
 #Truncate: (75, 75)[172] -> [87] .. 
 #Truncate: (76, 76)[173] -> [87] .. 

--------------------------------
LOCAL RI TRANSFORMATION (VABPAO)
--------------------------------

Number of PAOs:    1030
Basis functions:   1025 (343 shells)
Aux. functions:    2424 (644 shells)

Processing maps (0.0 sec)
Average map sizes:
   Aux shells -> PAOs           1030.0
   PAOs       -> AO shells       343.0

Calculating integrals (199.1 sec, 37370.165 MB)
Finished
-----------------------------
LOCAL RI TRANSFORMATION (IJV)
-----------------------------

Orbital window:      29 to 76
Basis functions:   1025 (343 shells)
Aux. functions:    2424 (644 shells)

Processing maps (0.0 sec)
Average map sizes:
   Aux shells -> MOs(i)           45.7
   Aux shells -> MOs(j)           48.0
   MOs        -> AO shells       339.7

Calculating integrals (23.0 sec, 40.741 MB)
Sorting integrals (0.3 sec, 40.714 MB)
Total time for the integral transformation: 23.4 sec


-------------------------------------
Pair Pair Term precalculation with     
RI-(ij|mn) and (im|jn) transformation  
ON THE FLY                             
-------------------------------------

   IBatch   1 (of   2)              ... done ( 1149.642 sec)
   IBatch   2 (of   2)              ... done ( 1050.742 sec)
Total EXT                           ...        2200.385 sec

---------------------
RI-PNO TRANSFORMATION
---------------------

Total Number of PNOs                   ... 34527
Total Number of IJ-PNOs                ... 30349
Total Number of IP-PNOs                ...  3219
Total Number of PQ-PNOs                ...   959
Total Number of IJ-pairs               ...   945
Total Number of PI-pairs               ...   117
Total Number of PQ-pairs               ...    25
Average number of PNOs per pair        ...    31
Maximal number of PNOs per pair        ...    87
>> Statistics for ij-pairs..
   #pairs with  1 -  5 PNOs   :    0
   #pairs with  6 - 10 PNOs   :    0
   #pairs with 11 - 15 PNOs   :   38
   #pairs with 16 - 20 PNOs   :  224
   #pairs with 21 - 25 PNOs   :  154
   #pairs with 26 - 30 PNOs   :  168
   #pairs with 31 - 35 PNOs   :   64
   #pairs with 36 - 40 PNOs   :   50
   #pairs with 41 - 45 PNOs   :   40
   #pairs with 46 - 50 PNOs   :   34
   #pairs with 51 - 55 PNOs   :   32
   #pairs with 56 - 60 PNOs   :   59
   #pairs with 61 - 65 PNOs   :   71
   #pairs with 66 - 70 PNOs   :    8
   #pairs with 76 - 80 PNOs   :    3
>> Statistics for ip-pairs..
   #pairs with  1 -  5 PNOs   :    0
   #pairs with  6 - 10 PNOs   :    1
   #pairs with 11 - 15 PNOs   :   15
   #pairs with 16 - 20 PNOs   :    4
   #pairs with 21 - 25 PNOs   :   25
   #pairs with 26 - 30 PNOs   :   13
   #pairs with 31 - 35 PNOs   :   46
   #pairs with 36 - 40 PNOs   :   13
   #pairs with 41 - 45 PNOs   :    0
   #pairs with 46 - 50 PNOs   :    0
>> Statistics for pq-pairs..
   #pairs with  1 -  5 PNOs   :    0
   #pairs with  6 - 10 PNOs   :    0
   #pairs with 11 - 15 PNOs   :    0
   #pairs with 16 - 20 PNOs   :    0
   #pairs with 21 - 25 PNOs   :   12
   #pairs with 26 - 30 PNOs   :    8
   #pairs with 31 - 35 PNOs   :    0
   #pairs with 36 - 40 PNOs   :    0
   #pairs with 41 - 45 PNOs   :    0
   #pairs with 46 - 50 PNOs   :    0
   #pairs with 86 - 90 PNOs   :    5

Generation of (ij|ab)[P] integrals            ... on
Generation of (ia|bc)[P],(ja|bc)[P] integrals ... on
Storage of 3 and 4 external integrals         ... on
Generation of ALL (ka|bc)[P] integrals        ... on
Keep RI integrals in memory                   ... off

Ibatch:  1 (of  1)
Starting 2-4 index PNO integral generation ... done

Timings:
Total PNO integral transformation time     ...       2229.869 sec
Size of the 3-external file                ...       294 MB
Size of the 4-external file                ...      2019 MB
Size of the IKJL file                      ...        18 MB
Size of the all 3-external file            ...      7066 MB
Size of the 1-external file                ...        22 MB

Size of the PAO/PNO coefficient matrices   ...     222.1 MB

Making pair/pair overlap matrices          ... done (  340.173 sec)
Size of the pair overlap file              ...    2450.0 MB
Total # unrestricted pairs ...       2091
  # of alpha-alpha pairs   ...        578
  # of alpha-beta pairs    ...       1062
  # of beta-beta pairs     ...        451
Constructing the guess amplitudes          ... done (    0.720 sec)

-------------------------
FINAL STARTUP INFORMATION
-------------------------

E(0)                                       ...  -3028.430862308
E(SL-UMP2 in NEV-PNO space)                ...     -2.694518474
Initial E(tot)                             ...  -3031.125380782
<T|T>                                      ...      0.538388266
Number of unrestricted pairs included      ... 2091
Total number of pairs                      ... 4095
----------------------------------------------------------
                     OPEN-SHELL COUPLED CLUSTER ITERATIONS
----------------------------------------------------------

Number of PNO amplitudes to be optimized        ...          2154705
Number of canonical amplitudes for strong pairs ...       1888597182
Untruncated number of canonical amplitudes      ...       3698645738

Iter       E(tot)           E(Corr)          Delta-E          Residual     Time
  0  -3031.132605214     -2.666026667      0.028491807      0.020515825 1881.30
                           *** Turning on DIIS ***
  1  -3031.242299229     -2.775720682     -0.109694015      0.009420373 1956.36
  2  -3031.306817907     -2.840239360     -0.064518678      0.008155793 1915.54
  3  -3031.327916191     -2.861337644     -0.021098285      0.002962276 1925.24
  4  -3031.335062779     -2.868484232     -0.007146588      0.002623926 1935.27
  5  -3031.338893859     -2.872315312     -0.003831080      0.001628116 1938.08
  6  -3031.340296411     -2.873717863     -0.001402551      0.000882994 1850.71
  7  -3031.341048840     -2.874470293     -0.000752429      0.000536458 1923.16
  8  -3031.341215769     -2.874637222     -0.000166929      0.000225592 1961.69
  9  -3031.341268759     -2.874690212     -0.000052990      0.000186584 1908.95
 10  -3031.341262103     -2.874683556      0.000006656      0.000101892 1953.42
 11  -3031.341274392     -2.874695845     -0.000012289      0.000076000 1925.66
 12  -3031.341280941     -2.874702394     -0.000006550      0.000031582 1934.34
 13  -3031.341283449     -2.874704901     -0.000002507      0.000014552 1856.01
 14  -3031.341284747     -2.874706200     -0.000001298      0.000007011 1957.13
               --- The CCSD iterations have converged ---

E(0)                                       ...  -3028.430862308
E(CORR)(strong-pairs)                      ...     -2.874706200
E(CORR)(weak-pairs)                        ...     -0.035716239
E(CORR)(corrected)                         ...     -2.910422439
E(TOT)                                     ...  -3031.341284747
Singles norm <S|S>**1/2                    ...      0.195992738 ( 0.068110026, 0.127882713)  
T1 diagnostic                              ...      0.020545622                              
<S**2>(linearized)                         ...      8.7507998 (ideal value:      8.7500000)

----------------------
LARGEST PNO AMPLITUDES
----------------------
  71a-> 77a  71b-> 77b       0.072075
  50b-> 73b  -1b-> -1b       0.054011
  51b-> 73b  -1b-> -1b       0.053385
  48b-> 72b  -1b-> -1b       0.051457
  71a-> 78a  71b-> 78b       0.049895
  44a-> 77a  -1a-> -1a       0.049847
  44b-> 77b  -1b-> -1b       0.047383
  48b-> 75b  -1b-> -1b       0.046384
  48b-> 74b  -1b-> -1b       0.045558
  62a-> 77a  62b-> 77b       0.045322
  66a-> 77a  66b-> 77b       0.045013
  70a-> 77a  70b-> 77b       0.043173
  61a-> 77a  61b-> 77b       0.042685
  58a-> 77a  58b-> 77b       0.042643
  57a-> 78a  57b-> 78b       0.042496
  37b-> 76b  -1b-> -1b       0.042110

Total # unrestricted pairs ...       1134
  # of alpha-alpha pairs   ...        317
  # of alpha-beta pairs    ...        567
  # of beta-beta pairs     ...        250

-------------------------------------------
DLPNO BASED TRIPLES CORRECTION
-------------------------------------------

Singles multiplier          ...  1.000000
Fragment selection                          .... not used
TCutTNO                     ... 1.000e-09
TCutMP2Pairs                ... 1.000e-05
TCutDOStrong                ... 2.000e-02
TCutMKNStrong               ... 1.000e-02
TCutDOWeak                  ... 4.000e-02
TCutMKNWeak                 ... 1.000e-01
NTCutTNO                    ... 1

Number of Triples that are to be computed         ...     32628

 . . . . . . . . .
10% done  
20% done  
30% done  
40% done  
50% done  
60% done  
70% done  
80% done  
90% done  
          Batch   1   done (  14678.188 sec)

Triples-Correction TCutTNO=   1.000e-09 (NWeakPairs = 0  1  2  3)  -0.118689551542   -0.002016279776    0.000000000000    0.000000000000
Triples-Correction  -0.120705831318

Triples timings:
Total time                      ... 15320.312 sec

Triples List generation         ...     0.000 sec
TNO generation                  ...   641.894 sec
Pair density generation         ...     0.085 sec
Look up tables                  ...     0.110 sec
Generating 3-index integrals    ...  9062.470 sec
Make 4-ind.int. from 3-ind.int  ...     3.588 sec
Projecting amplitudes (D + S)   ...  5333.432 sec
Sorting integrals for spin cases...    56.966 sec
Calculate W0/W1                 ...   178.530 sec
Energy contr. (sum over a,b,c)  ...    43.057 sec

Everything after 3-index        ...  5752.028 sec

Energy contribution AAA         ...    27.585 sec
Energy contribution AAB         ...   123.129 sec
Energy contribution ABB         ...   112.624 sec
Energy contribution BBB         ...    15.259 sec
prep                ...     3.293 sec
makeTTNO            ...  5277.480 sec
copyij              ...     0.132 sec
copyil              ...     4.191 sec
transposeij         ...     0.081 sec
newMatInDoubleProj  ...    53.621 sec
BlasInDoubleProj    ...  2885.330 sec
ProjSingles         ...    45.783 sec
ProjDoubles         ...  5287.649 sec
overall Doubles for projection      ... 2896223
used Doubles for projection         ... 2896223


Number of Triples   (0, 1, 2, 3 weak pairs; overall):  16119   10902       0       0  ( 27021)
Number of Atoms     (0, 1, 2, 3 weak pairs; overall):   19.1    15.0     0.0     0.0  (    29)
Number of PAOs      (0, 1, 2, 3 weak pairs; overall):  748.7   603.7     0.0     0.0  (  1025)
Number of AuxFcns   (0, 1, 2, 3 weak pairs; overall):  919.6   573.2     0.0     0.0  (  2424)
Number of TNOs (0, 1, 2, 3 weak pairs         ):   80.4    58.5     0.0     0.0
Aver. Number of NTNO, Atoms, PAOs, AuxFcns / Triples:  27021    71.6    17.5   690.2   779.9

Triples Correction (T)                     ...     -0.120705831
    alpha-alpha-alpha ... -0.003949999 (  3.3%)
    alpha-alpha-beta  ... -0.056649756 ( 46.9%)
    alpha-beta -beta  ... -0.055929382 ( 46.3%)
    beta -beta -beta  ... -0.004176695 (  3.5%)
Final correlation energy                   ...     -3.031128271
E(CCSD)                                    ...  -3031.341284747
E(CCSD(T))                                 ...  -3031.461990578

----------------------------
STATISTICS FOR PAIR-ENERGIES
----------------------------
Minimum, maximum and average ratios of UMP and CCSD pair-energies ... 0.53, 1.43, 1.02


------------------------------------------------------------------------------- 
                                     TIMINGS                                   
------------------------------------------------------------------------------- 


Total execution time                   ...    52982.785 sec

Localization of occupied MO's          ...       13.520 sec (  0.0%)
Fock Matrix Formation                  ...     1399.472 sec (  2.6%)
Differential overlap integrals         ...        1.494 sec (  0.0%)
Organizing maps                        ...        1.689 sec (  0.0%)
RI 3-index integral generations        ...      288.230 sec (  0.5%)
RI-PNO integral transformation         ...     5077.600 sec (  9.6%)
Initial Guess                          ...     1840.667 sec (  3.5%)
DIIS Solver                            ...       15.627 sec (  0.0%)
State Vector Update                    ...        0.863 sec (  0.0%)
Sigma-vector construction              ...    28822.866 sec ( 54.4%)
  <0|H|D>                              ...        0.031 sec (  0.0% of sigma)
  <D|H|D>(0-ext)                       ...     5389.309 sec ( 18.7% of sigma)
  <D|H|D>(2-ext Fock)                  ...        1.796 sec (  0.0% of sigma)
  <D|H|D>(2-ext)                       ...     4280.128 sec ( 14.8% of sigma)
  <D|H|D>(4-ext)                       ...      161.058 sec (  0.6% of sigma)
  <D|H|D>(4-ext-corr)                  ...      998.154 sec (  3.5% of sigma)
  CCSD doubles correction              ...      543.109 sec (  1.9% of sigma)
  <S|H|S>                              ...      662.819 sec (  2.3% of sigma)
  <S|H|D>(1-ext)                       ...      288.876 sec (  1.0% of sigma)
  <D|H|S>(1-ext)                       ...        0.911 sec (  0.0% of sigma)
  <S|H|D>(3-ext)                       ...       21.268 sec (  0.1% of sigma)
  CCSD singles correction              ...        0.005 sec (  0.0% of sigma)
  Fock-dressing                        ...     8336.898 sec ( 28.9% of sigma)
  Singles amplitudes                   ...      117.079 sec (  0.4% of sigma)
  (ik|jl)-dressing                     ...     6339.141 sec ( 22.0% of sigma)
  (ij|ab),(ia|jb)-dressing             ...     1512.558 sec (  5.2% of sigma)
  Pair energies                        ...        0.179 sec (  0.0% of sigma)
Total Time for computing (T)           ...    15842.643 sec ( 29.9% of ALL)


-------------------------   --------------------
FINAL SINGLE POINT ENERGY     -3031.461990578332
-------------------------   --------------------


                            ***************************************
                            *     ORCA property calculations      *
                            ***************************************

                                    ---------------------
                                    Active property flags
                                    ---------------------
   (+) Dipole Moment


------------------------------------------------------------------------------
                       ORCA ELECTRIC PROPERTIES CALCULATION
------------------------------------------------------------------------------

Dipole Moment Calculation                       ... on
Quadrupole Moment Calculation                   ... off
Polarizability Calculation                      ... off
GBWName                                         ... simple-grid-200-295-b3lyp_d3bj-631gd-gas-singlepoint-DLPNO_CCSD_T1-NormalPNO-augtz-gas.gbw
Electron density file                           ... simple-grid-200-295-b3lyp_d3bj-631gd-gas-singlepoint-DLPNO_CCSD_T1-NormalPNO-augtz-gas.scfp.tmp
The origin for moment calculation is the CENTER OF MASS  = ( 0.331566,  0.043819 -0.012574)

-------------
DIPOLE MOMENT
-------------
                                X             Y             Z
Electronic contribution:     44.27232       5.88343      -1.90812
Nuclear contribution   :    -49.40330      -6.52913       1.87350
                        -----------------------------------------
Total Dipole Moment    :     -5.13098      -0.64569      -0.03461
                        -----------------------------------------
Magnitude (a.u.)       :      5.17156
Magnitude (Debye)      :     13.14506



--------------------
Rotational spectrum 
--------------------
 
Rotational constants in cm-1:     0.020078     0.009962     0.009547 
Rotational constants in MHz :   601.923652   298.638528   286.203402 

 Dipole components along the rotational axes: 
x,y,z [a.u.] :    -5.132661     0.625224    -0.099679 
x,y,z [Debye]:   -13.046187     1.589194    -0.253363 

 

Timings for individual modules:

Sum of individual times         ...    69387.114 sec (=1156.452 min)
GTO integral calculation        ...       11.936 sec (=   0.199 min)   0.0 %
SCF iterations                  ...    16376.111 sec (= 272.935 min)  23.6 %
MDCI module                     ...    52999.067 sec (= 883.318 min)  76.4 %
                             ****ORCA TERMINATED NORMALLY****
TOTAL RUN TIME: 0 days 19 hours 16 minutes 29 seconds 664 msec
