
                                 *****************
                                 * O   R   C   A *
                                 *****************

           --- An Ab Initio, DFT and Semiempirical electronic structure package ---

                  #######################################################
                  #                        -***-                        #
                  #          Department of theory and spectroscopy      #
                  #               Directorship: Frank Neese             #
                  #        Max Planck Institute fuer Kohlenforschung    #
                  #                Kaiser Wilhelm Platz 1               #
                  #                 D-45470 Muelheim/Ruhr               #
                  #                      Germany                        #
                  #                                                     #
                  #                  All rights reserved                #
                  #                        -***-                        #
                  #######################################################


                         Program Version 4.1.2  - RELEASE  -


 With contributions from (in alphabetic order):
   Daniel Aravena         : Magnetic Properties
   Michael Atanasov       : Ab Initio Ligand Field Theory
   Alexander A. Auer      : GIAO ZORA
   Ute Becker             : Parallelization
   Giovanni Bistoni       : ED, Open-shell LED
   Martin Brehm           : Molecular dynamics
   Dmytro Bykov           : SCF Hessian
   Vijay G. Chilkuri      : MRCI spin determinant printing
   Dipayan Datta          : RHF DLPNO-CCSD density
   Achintya Kumar Dutta   : EOM-CC, STEOM-CC
   Dmitry Ganyushin       : Spin-Orbit,Spin-Spin,Magnetic field MRCI
   Miquel Garcia          : C-PCM Hessian
   Yang Guo               : DLPNO-NEVPT2, CIM, IAO-localization
   Andreas Hansen         : Spin unrestricted coupled pair/coupled cluster methods
   Benjamin Helmich-Paris : CASSCF linear response (MC-RPA)
   Lee Huntington         : MR-EOM, pCC
   Robert Izsak           : Overlap fitted RIJCOSX, COSX-SCS-MP3, EOM
   Christian Kollmar      : KDIIS, OOCD, Brueckner-CCSD(T), CCSD density
   Simone Kossmann        : Meta GGA functionals, TD-DFT gradient, OOMP2, MP2 Hessian
   Martin Krupicka        : AUTO-CI
   Lucas Lang             : DCDCAS
   Dagmar Lenk            : GEPOL surface, SMD
   Dimitrios Liakos       : Extrapolation schemes; parallel MDCI
   Dimitrios Manganas     : ROCIS; embedding schemes
   Dimitrios Pantazis     : SARC Basis sets
   Taras Petrenko         : DFT Hessian,TD-DFT gradient, ASA, ECA, R-Raman, ABS, FL, XAS/XES, NRVS
   Peter Pinski           : DLPNO-MP2, DLPNO-MP2 Gradient
   Christoph Reimann      : Effective Core Potentials
   Marius Retegan         : Local ZFS, SOC
   Christoph Riplinger    : Optimizer, TS searches, QM/MM, DLPNO-CCSD(T), (RO)-DLPNO pert. Triples
   Tobias Risthaus        : Range-separated hybrids, TD-DFT gradient, RPA, STAB
   Michael Roemelt        : Restricted open shell CIS
   Masaaki Saitow         : Open-shell DLPNO
   Barbara Sandhoefer     : DKH picture change effects
   Avijit Sen             : IP-ROCIS
   Kantharuban Sivalingam : CASSCF convergence, NEVPT2, FIC-MRCI
   Bernardo de Souza      : ESD, SOC TD-DFT
   Georgi Stoychev        : AutoAux, RI-MP2 NMR
   Willem Van den Heuvel  : Paramagnetic NMR
   Boris Wezisla          : Elementary symmetry handling
   Frank Wennmohs         : Technical directorship


 We gratefully acknowledge several colleagues who have allowed us to
 interface, adapt or use parts of their codes:
   Stefan Grimme, W. Hujo, H. Kruse,             : VdW corrections, initial TS optimization,
                  C. Bannwarth                     DFT functionals, gCP, sTDA/sTD-DF
   Ed Valeev                                     : LibInt (2-el integral package), F12 methods
   Garnet Chan, S. Sharma, J. Yang, R. Olivares  : DMRG
   Ulf Ekstrom                                   : XCFun DFT Library
   Mihaly Kallay                                 : mrcc  (arbitrary order and MRCC methods)
   Andreas Klamt, Michael Diedenhofen            : otool_cosmo (COSMO solvation model)
   Jiri Pittner, Ondrej Demel                    : Mk-CCSD
   Frank Weinhold                                : gennbo (NPA and NBO analysis)
   Christopher J. Cramer and Donald G. Truhlar   : smd solvation model
   Lars Goerigk                                  : TD-DFT with DH, B97 family of functionals
   V. Asgeirsson, H. Jonsson                     : NEB implementation
   FAccTs GmbH                                   : IRC, NEB, NEB-TS, Multilevel


 Your calculation uses the libint2 library for the computation of 2-el integrals
 For citations please refer to: http://libint.valeyev.net

 This ORCA versions uses:
   CBLAS   interface :  Fast vector & matrix operations
   LAPACKE interface :  Fast linear algebra routines
   SCALAPACK package :  Parallel linear algebra routines


----- Orbital basis set information -----
Your calculation utilizes the basis: aug-cc-pVTZ 
    H, B-Ne : Obtained from the ccRepo (grant-hill.group.shef.ac.uk/ccrepo) Feb. 2017
              R. A. Kendall, T. H. Dunning, Jr., R. J. Harrison, J. Chem. Phys. 96, 6796 (1992)
         He : Obtained from the ccRepo (grant-hill.group.shef.ac.uk/ccrepo) Feb. 2017
              D. E. Woon, T. H. Dunning, Jr., J. Chem. Phys. 100, 2975 (1994)
  Li-Be, Na : Obtained from the ccRepo (grant-hill.group.shef.ac.uk/ccrepo) Feb. 2017
              B. P. Prascher, D. E. Woon, K. A. Peterson, T. H. Dunning, Jr., A. K. Wilson, Theor. Chem. Acc. 128, 69 (2011)
         Mg : Obtained from the Peterson Research Group Website (tyr0.chem.wsu.edu/~kipeters) Feb. 2017
              B. P. Prascher, D. E. Woon, K. A. Peterson, T. H. Dunning, Jr., A. K. Wilson, Theor. Chem. Acc. 128, 69 (2011)
      Al-Ar : Obtained from the ccRepo (grant-hill.group.shef.ac.uk/ccrepo) Feb. 2017
              D. E. Woon, T. H. Dunning, Jr., J. Chem. Phys. 98, 1358 (1993)
      Sc-Zn : Obtained from the ccRepo (grant-hill.group.shef.ac.uk/ccrepo) Feb. 2017
              N. B. Balabanov, K. A. Peterson, J. Chem. Phys. 123, 064107 (2005)
              N. B. Balabanov, K. A. Peterson, J. Chem. Phys. 125, 074110 (2006)
      Ga-Kr : Obtained from the ccRepo (grant-hill.group.shef.ac.uk/ccrepo) Feb. 2017
              A. K. Wilson, D. E. Woon, K. A. Peterson, T. H. Dunning, Jr., J. Chem. Phys. 110, 7667 (1999)
     Ag, Au : Obtained from the Peterson Research Group Website (tyr0.chem.wsu.edu/~kipeters) Feb. 2017
              K. A. Peterson, C. Puzzarini, Theor. Chem. Acc. 114, 283 (2005)

----- AuxJ basis set information -----
Your calculation utilizes the AutoAux generation procedure.
  G. L. Stoychev, A. A. Auer, F. Neese, J. Chem. Theory Comput. 13, 554 (2017)

----- AuxC basis set information -----
Your calculation utilizes the auxiliary basis: aug-cc-pVTZ/C 
  H-He, B-F, Al-Ar, Ga-Kr : Obtained from the EMSL Basis Set Exchange (bse.pnl.gov) Feb. 2017
                            F. Weigend, A. Kohn, C. Hattig, J. Chem. Phys. 116, 3175 (2002)
                   Be, Mg : Obtained from the TURBOMOLE 7.0 basis set library
                            C. Haettig, Phys. Chem. Chem. Phys. 7, 59 (2005)
                       Ne : Obtained from the EMSL Basis Set Exchange (bse.pnl.gov) Feb. 2017
                            C. Haettig, Phys. Chem. Chem. Phys. 7, 59 (2005)
                            F. Weigend, A. Kohn, C. Hattig, J. Chem. Phys. 116, 3175 (2002)
                    Sc-Zn : Obtained from the EMSL Basis Set Exchange (bse.pnl.gov) Feb. 2017
                            J. G. Hill, J. A. Platts, J. Chem. Phys. 128, 044104 (2008)

----- AuxJK basis set information -----
Your calculation utilizes the AutoAux generation procedure.
  G. L. Stoychev, A. A. Auer, F. Neese, J. Chem. Theory Comput. 13, 554 (2017)

================================================================================
                                        WARNINGS
                       Please study these warnings very carefully!
================================================================================


WARNING: your system is open-shell and RHF/RKS was chosen
  ===> : WILL SWITCH to UHF/UKS


WARNING: MDCI localization with Augmented Hessian Foster-Boys
  ===> : Switching off randomization!

WARNING: Post HF methods need fully converged wavefunctions
  ===> : Setting SCFConvForced true
         You can overwrite this default with %scf ConvForced false 


INFO   : the flag for use of LIBINT has been found!

================================================================================
                                       INPUT FILE
================================================================================
NAME = simple-grid-225-245-b3lyp_d3bj-631gd-gas-singlepoint-DLPNO_CCSD_T1-NormalPNO-augtz-gas.inp
|  1> ! aug-cc-pVTZ aug-cc-pVTZ/C DLPNO-CCSD(T1) TightSCF NormalPNO UNO MiniPrint AutoAux
|  2> %pal nproc 10 end
|  3> %maxcore 20000
|  4> %mdci
|  5>      density none
|  6> end
|  7> 
|  8> * xyz 0 6
|  9>  O     -0.30867000     -0.15092600     -0.69631100
| 10>  C     -1.19613200     -1.07190300     -0.59769100
| 11>  C     -3.05849800     -0.08623900      0.19133100
| 12>  C     -2.38514900      1.04050000     -0.17552900
| 13>  C     -2.47728700      1.60556600     -1.55772500
| 14> Fe      1.44723600      0.08498700      0.03969700
| 15> Cl      2.07408000      2.02221900     -0.76201400
| 16>  C     -1.56319100      1.84765100      0.77770200
| 17> Cl      2.52160900     -1.67751000     -0.70874300
| 18> Cl      1.27853800      0.06457700      2.24002100
| 19>  H     -3.73172500     -0.51840100     -0.54587500
| 20>  H     -2.19121900      2.66553400      1.16012500
| 21>  H     -1.19876700      1.28058100      1.63401900
| 22>  H     -0.71001300      2.30775600      0.27092000
| 23>  H     -2.78445200      2.65702000     -1.49119700
| 24>  H     -1.48747000      1.59835700     -2.02983900
| 25>  H     -3.19646600      1.07917000     -2.18931000
| 26>  C     -3.31697900     -0.50744500      1.61594000
| 27>  H     -4.20528700      0.01663600      1.99273400
| 28>  H     -3.52451000     -1.57822300      1.69040900
| 29>  H     -2.49055400     -0.27226200      2.29029800
| 30>  C     -1.05105000     -2.09114700      0.49939900
| 31>  H     -1.92203300     -2.74076000      0.58883500
| 32>  H     -0.18875200     -2.70759100      0.20484400
| 33>  H     -0.80610800     -1.63338900      1.45763200
| 34>  C     -1.77662300     -1.56795700     -1.89933100
| 35>  H     -0.98937100     -2.19021100     -2.34764100
| 36>  H     -2.66486700     -2.18580200     -1.75700600
| 37>  H     -1.97957500     -0.75269500     -2.59265100
| 38> *
| 39> 
| 40> 
| 41>                          ****END OF INPUT****
================================================================================

                       ****************************
                       * Single Point Calculation *
                       ****************************

---------------------------------
CARTESIAN COORDINATES (ANGSTROEM)
---------------------------------
  O     -0.308670   -0.150926   -0.696311
  C     -1.196132   -1.071903   -0.597691
  C     -3.058498   -0.086239    0.191331
  C     -2.385149    1.040500   -0.175529
  C     -2.477287    1.605566   -1.557725
  Fe     1.447236    0.084987    0.039697
  Cl     2.074080    2.022219   -0.762014
  C     -1.563191    1.847651    0.777702
  Cl     2.521609   -1.677510   -0.708743
  Cl     1.278538    0.064577    2.240021
  H     -3.731725   -0.518401   -0.545875
  H     -2.191219    2.665534    1.160125
  H     -1.198767    1.280581    1.634019
  H     -0.710013    2.307756    0.270920
  H     -2.784452    2.657020   -1.491197
  H     -1.487470    1.598357   -2.029839
  H     -3.196466    1.079170   -2.189310
  C     -3.316979   -0.507445    1.615940
  H     -4.205287    0.016636    1.992734
  H     -3.524510   -1.578223    1.690409
  H     -2.490554   -0.272262    2.290298
  C     -1.051050   -2.091147    0.499399
  H     -1.922033   -2.740760    0.588835
  H     -0.188752   -2.707591    0.204844
  H     -0.806108   -1.633389    1.457632
  C     -1.776623   -1.567957   -1.899331
  H     -0.989371   -2.190211   -2.347641
  H     -2.664867   -2.185802   -1.757006
  H     -1.979575   -0.752695   -2.592651

----------------------------
CARTESIAN COORDINATES (A.U.)
----------------------------
  NO LB      ZA    FRAG     MASS         X           Y           Z
   0 O     8.0000    0    15.999   -0.583302   -0.285209   -1.315837
   1 C     6.0000    0    12.011   -2.260362   -2.025603   -1.129472
   2 C     6.0000    0    12.011   -5.779724   -0.162968    0.361563
   3 C     6.0000    0    12.011   -4.507278    1.966260   -0.331702
   4 C     6.0000    0    12.011   -4.681394    3.034080   -2.943674
   5 Fe   26.0000    0    55.850    2.734880    0.160602    0.075016
   6 Cl   17.0000    0    35.453    3.919443    3.821440   -1.439998
   7 C     6.0000    0    12.011   -2.954003    3.491554    1.469644
   8 Cl   17.0000    0    35.453    4.765150   -3.170034   -1.339330
   9 Cl   17.0000    0    35.453    2.416087    0.122033    4.233026
  10 H     1.0000    0     1.008   -7.051938   -0.979636   -1.031554
  11 H     1.0000    0     1.008   -4.140804    5.037129    2.192319
  12 H     1.0000    0     1.008   -2.265341    2.419947    3.087848
  13 H     1.0000    0     1.008   -1.341730    4.361027    0.511965
  14 H     1.0000    0     1.008   -5.261852    5.021040   -2.817954
  15 H     1.0000    0     1.008   -2.810911    3.020457   -3.835840
  16 H     1.0000    0     1.008   -6.040445    2.039336   -4.137196
  17 C     6.0000    0    12.011   -6.268182   -0.958932    3.053684
  18 H     1.0000    0     1.008   -7.946841    0.031437    3.765722
  19 H     1.0000    0     1.008   -6.660359   -2.982409    3.194410
  20 H     1.0000    0     1.008   -4.706465   -0.514501    4.328036
  21 C     6.0000    0    12.011   -1.986197   -3.951695    0.943727
  22 H     1.0000    0     1.008   -3.632116   -5.179286    1.112737
  23 H     1.0000    0     1.008   -0.356690   -5.116605    0.387099
  24 H     1.0000    0     1.008   -1.523323   -3.086658    2.754525
  25 C     6.0000    0    12.011   -3.357331   -2.963009   -3.589215
  26 H     1.0000    0     1.008   -1.869640   -4.138899   -4.436399
  27 H     1.0000    0     1.008   -5.035869   -4.130567   -3.320260
  28 H     1.0000    0     1.008   -3.740855   -1.422387   -4.899400



           ************************************************************
           *        Program running with 10 parallel MPI-processes    *
           *              working on a common directory               *
           ************************************************************


           ************************************************************
           *        Program running with 10 parallel MPI-processes    *
           *              working on a common directory               *
           ************************************************************

Diagonalization of the overlap matrix:
Smallest eigenvalue                        ... 6.513e-07
Time for diagonalization                   ...    0.329 sec
Threshold for overlap eigenvalues          ... 1.000e-08
Number of eigenvalues below threshold      ... 0
Time for construction of square roots      ...    0.270 sec
Total time needed                          ...    0.602 sec

-------------------
DFT GRID GENERATION
-------------------

General Integration Accuracy     IntAcc      ...  4.340
Radial Grid Type                 RadialGrid  ... Gauss-Chebyshev
Angular Grid (max. acc.)         AngularGrid ... Lebedev-110
Angular grid pruning method      GridPruning ... 3 (G Style)
Weight generation scheme         WeightScheme... Becke
Basis function cutoff            BFCut       ...    1.0000e-11
Integration weight cutoff        WCut        ...    1.0000e-14
Grids for H and He will be reduced by one unit

# of grid points (after initial pruning)     ...  36112 (   0.0 sec)
# of grid points (after weights+screening)   ...  32335 (   0.1 sec)
nearest neighbour list constructed           ...    0.0 sec
Grid point re-assignment to atoms done       ...    0.0 sec
Grid point division into batches done        ...    0.0 sec
Reduced shell lists constructed in    0.2 sec

Total number of grid points                  ...    32335
Total number of batches                      ...      518
Average number of points per batch           ...       62
Average number of grid points per atom       ...     1115
Average number of shells per batch           ...   292.40 (85.25%)
Average number of basis functions per batch  ...   868.74 (84.75%)
Average number of large shells per batch     ...   240.55 (82.27%)
Average number of large basis fcns per batch ...   714.32 (82.23%)
Maximum spatial batch extension              ...   4.26,  3.24,  4.25 au
Average spatial batch extension              ...   0.18,  0.18,  0.17 au

Time for grid setup =    0.337 sec

Loading Hartree-Fock densities                     ... done
Calculating cut-offs                               ... done
Setting up the integral package                    ... done
Initializing the effective Hamiltonian             ... done
Starting the Coulomb interaction                   ... done (   1.1 sec)
Reading the grid                                   ... done
Mapping shells                                     ... done
Starting the XC term evaluation                    ... done (   0.8 sec)
Transforming the Hamiltonian                       ... done (   0.2 sec)
Diagonalizing the Hamiltonian                      ... done (   0.3 sec)
Back transforming the eigenvectors                 ... done (   0.1 sec)
Now organizing SCF variables                       ... done
--------------
SCF ITERATIONS
--------------
ITER       Energy         Delta-E        Max-DP      RMS-DP      [F,P]     Damp
               ***  Starting incremental Fock matrix formation  ***
  0  -3027.5744210091   0.000000000000 0.21000994  0.00112663  0.2628004 0.7000
  1  -3027.8245404521  -0.250119442962 0.15495526  0.00088139  0.1602741 0.7000
                               ***Turning on DIIS***
  2  -3027.9925244436  -0.167983991521 0.11039181  0.00064931  0.1092982 0.7000
  3  -3029.6302716951  -1.637747251504 0.25458291  0.00162456  0.0818755 0.0000
  4  -3028.2941010822   1.336170612904 0.04641318  0.00023036  0.0199890 0.0000
  5  -3028.4141060597  -0.120004977542 0.03966135  0.00017518  0.0118696 0.0000
  6  -3028.4518807468  -0.037774687110 0.02095946  0.00007140  0.0054263 0.0000
  7  -3028.4662171214  -0.014336374552 0.00911017  0.00003255  0.0034757 0.0000
  8  -3028.4590796909   0.007137430463 0.00600244  0.00001868  0.0014527 0.0000
  9  -3028.4518749104   0.007204780485 0.00232050  0.00001068  0.0007556 0.0000
 10  -3028.4401351447   0.011739765737 0.00099509  0.00000326  0.0004268 0.0000
 11  -3028.4463611761  -0.006226031383 0.00028196  0.00000184  0.0000659 0.0000
 12  -3028.4442218785   0.002139297550 0.00056098  0.00000153  0.0000231 0.0000
 13  -3028.4442266258  -0.000004747319 0.00098970  0.00000241  0.0000089 0.0000
 14  -3028.4442510473  -0.000024421503 0.00077516  0.00000247  0.0000052 0.0000
 15  -3028.4442033719   0.000047675416 0.00069375  0.00000186  0.0000028 0.0000
 16  -3028.4442170409  -0.000013668981 0.00120816  0.00000272  0.0000018 0.0000
 17  -3028.4442336918  -0.000016650938 0.00070747  0.00000210  0.0000011 0.0000
                            ***DIIS convergence achieved***

               *****************************************************
               *                     SUCCESS                       *
               *           SCF CONVERGED AFTER  18 CYCLES          *
               *****************************************************

Total Energy       :        -3028.44421729 Eh          -82408.15670 eV
  Last Energy change         ...    1.6404e-05  Tolerance :   1.0000e-08
  Last MAX-Density change    ...    1.6757e-03  Tolerance :   1.0000e-07
             **** THE GBW FILE WAS UPDATED (simple-grid-225-245-b3lyp_d3bj-631gd-gas-singlepoint-DLPNO_CCSD_T1-NormalPNO-augtz-gas.gbw) ****
             **** DENSITY FILE WAS UPDATED (simple-grid-225-245-b3lyp_d3bj-631gd-gas-singlepoint-DLPNO_CCSD_T1-NormalPNO-augtz-gas.scfp.tmp) ****
             **** ENERGY FILE WAS UPDATED (simple-grid-225-245-b3lyp_d3bj-631gd-gas-singlepoint-DLPNO_CCSD_T1-NormalPNO-augtz-gas.en.tmp) ****
----------------------
UHF SPIN CONTAMINATION
----------------------

Expectation value of <S**2>     :     8.764580
Ideal value S*(S+1) for S=2.5   :     8.750000
Deviation                       :     0.014580

----------------
ORBITAL ENERGIES
----------------
                 SPIN UP ORBITALS
  NO   OCC          E(Eh)            E(eV) 
   0   1.0000    -261.564726     -7117.5380 
   1   1.0000    -104.785770     -2851.3658 
   2   1.0000    -104.783043     -2851.2916 
   3   1.0000    -104.782461     -2851.2757 
   4   1.0000     -32.232537      -877.0919 
   5   1.0000     -27.708780      -753.9942 
   6   1.0000     -27.708017      -753.9735 
   7   1.0000     -27.707857      -753.9691 
   8   1.0000     -20.585605      -560.1628 
   9   1.0000     -11.413990      -310.5904 
  10   1.0000     -11.307287      -307.6869 
  11   1.0000     -11.269625      -306.6621 
  12   1.0000     -11.263495      -306.4953 
  13   1.0000     -11.260701      -306.4193 
  14   1.0000     -11.254297      -306.2450 
  15   1.0000     -11.250931      -306.1534 
  16   1.0000     -11.244206      -305.9704 
  17   1.0000     -10.512428      -286.0577 
  18   1.0000     -10.509667      -285.9826 
  19   1.0000     -10.509046      -285.9657 
  20   1.0000      -7.979288      -217.1275 
  21   1.0000      -7.978483      -217.1055 
  22   1.0000      -7.978446      -217.1045 
  23   1.0000      -7.976537      -217.0526 
  24   1.0000      -7.975848      -217.0339 
  25   1.0000      -7.975763      -217.0315 
  26   1.0000      -7.975684      -217.0294 
  27   1.0000      -7.975162      -217.0152 
  28   1.0000      -7.975095      -217.0134 
  29   1.0000      -4.587697      -124.8376 
  30   1.0000      -3.200642       -87.0939 
  31   1.0000      -3.199384       -87.0597 
  32   1.0000      -3.199090       -87.0517 
  33   1.0000      -1.435954       -39.0743 
  34   1.0000      -1.151223       -31.3264 
  35   1.0000      -1.092804       -29.7367 
  36   1.0000      -1.058029       -28.7904 
  37   1.0000      -1.052548       -28.6413 
  38   1.0000      -1.050276       -28.5795 
  39   1.0000      -1.032798       -28.1039 
  40   1.0000      -1.002971       -27.2922 
  41   1.0000      -0.975297       -26.5392 
  42   1.0000      -0.933539       -25.4029 
  43   1.0000      -0.916972       -24.9521 
  44   1.0000      -0.916846       -24.9486 
  45   1.0000      -0.914214       -24.8770 
  46   1.0000      -0.906842       -24.6764 
  47   1.0000      -0.906512       -24.6674 
  48   1.0000      -0.799811       -21.7640 
  49   1.0000      -0.747412       -20.3381 
  50   1.0000      -0.697682       -18.9849 
  51   1.0000      -0.693104       -18.8603 
  52   1.0000      -0.685716       -18.6593 
  53   1.0000      -0.667625       -18.1670 
  54   1.0000      -0.636931       -17.3318 
  55   1.0000      -0.620325       -16.8799 
  56   1.0000      -0.603793       -16.4300 
  57   1.0000      -0.598477       -16.2854 
  58   1.0000      -0.582938       -15.8626 
  59   1.0000      -0.575539       -15.6612 
  60   1.0000      -0.567939       -15.4544 
  61   1.0000      -0.562358       -15.3025 
  62   1.0000      -0.551706       -15.0127 
  63   1.0000      -0.548878       -14.9357 
  64   1.0000      -0.540996       -14.7212 
  65   1.0000      -0.523816       -14.2538 
  66   1.0000      -0.511418       -13.9164 
  67   1.0000      -0.490518       -13.3477 
  68   1.0000      -0.470769       -12.8103 
  69   1.0000      -0.465446       -12.6654 
  70   1.0000      -0.438609       -11.9351 
  71   1.0000      -0.433546       -11.7974 
  72   1.0000      -0.432134       -11.7590 
  73   1.0000      -0.423529       -11.5248 
  74   1.0000      -0.422007       -11.4834 
  75   1.0000      -0.421586       -11.4719 
  76   1.0000      -0.371501       -10.1091 
  77   0.0000       0.011699         0.3184 
  78   0.0000       0.022135         0.6023 
  79   0.0000       0.022938         0.6242 
  80   0.0000       0.030282         0.8240 
  81   0.0000       0.038755         1.0546 
  82   0.0000       0.040024         1.0891 
  83   0.0000       0.042444         1.1549 
  84   0.0000       0.044000         1.1973 
  85   0.0000       0.044586         1.2132 
  86   0.0000       0.054885         1.4935 
  87   0.0000       0.056316         1.5324 
  88   0.0000       0.059602         1.6218 
  89   0.0000       0.063891         1.7386 
  90   0.0000       0.067059         1.8248 
  91   0.0000       0.067964         1.8494 
  92   0.0000       0.072859         1.9826 
  93   0.0000       0.074735         2.0336 
  94   0.0000       0.078810         2.1445 
  95   0.0000       0.091428         2.4879 
  96   0.0000       0.091908         2.5009 
  97   0.0000       0.092139         2.5072 
  98   0.0000       0.099348         2.7034 
  99   0.0000       0.101232         2.7547 
 100   0.0000       0.102611         2.7922 
 101   0.0000       0.108663         2.9569 
 102   0.0000       0.115112         3.1324 
 103   0.0000       0.121511         3.3065 
 104   0.0000       0.123148         3.3510 
 105   0.0000       0.125391         3.4121 
 106   0.0000       0.127722         3.4755 
 107   0.0000       0.128986         3.5099 
 108   0.0000       0.131003         3.5648 
 109   0.0000       0.133849         3.6422 
 110   0.0000       0.138017         3.7556 
 111   0.0000       0.140193         3.8148 
 112   0.0000       0.140815         3.8318 
 113   0.0000       0.147175         4.0048 
 114   0.0000       0.148834         4.0500 
 115   0.0000       0.151443         4.1210 
 116   0.0000       0.157363         4.2821 
 117   0.0000       0.159273         4.3340 
 118   0.0000       0.162206         4.4138 
 119   0.0000       0.166732         4.5370 
 120   0.0000       0.167989         4.5712 
 121   0.0000       0.171350         4.6627 
 122   0.0000       0.173869         4.7312 
 123   0.0000       0.176300         4.7974 
 124   0.0000       0.180664         4.9161 
 125   0.0000       0.186629         5.0784 
 126   0.0000       0.188128         5.1192 
 127   0.0000       0.190000         5.1702 
 128   0.0000       0.194364         5.2889 
 129   0.0000       0.199880         5.4390 
 130   0.0000       0.202007         5.4969 
 131   0.0000       0.203465         5.5366 
 132   0.0000       0.206809         5.6276 
 133   0.0000       0.208900         5.6845 
 134   0.0000       0.210763         5.7352 
 135   0.0000       0.214346         5.8326 
 136   0.0000       0.218226         5.9382 
 137   0.0000       0.224458         6.1078 
 138   0.0000       0.225983         6.1493 
 139   0.0000       0.231129         6.2893 
 140   0.0000       0.235021         6.3953 
 141   0.0000       0.235639         6.4121 
 142   0.0000       0.237520         6.4632 
 143   0.0000       0.244213         6.6454 
 144   0.0000       0.248422         6.7599 
 145   0.0000       0.250677         6.8213 
 146   0.0000       0.252347         6.8667 
 147   0.0000       0.252511         6.8712 
 148   0.0000       0.259009         7.0480 
 149   0.0000       0.262903         7.1540 
 150   0.0000       0.265967         7.2373 
 151   0.0000       0.272025         7.4022 
 152   0.0000       0.273206         7.4343 
 153   0.0000       0.277634         7.5548 
 154   0.0000       0.283315         7.7094 
 155   0.0000       0.287175         7.8144 
 156   0.0000       0.290612         7.9079 
 157   0.0000       0.296251         8.0614 
 158   0.0000       0.300299         8.1716 
 159   0.0000       0.304153         8.2764 
 160   0.0000       0.308163         8.3855 
 161   0.0000       0.313902         8.5417 
 162   0.0000       0.317507         8.6398 
 163   0.0000       0.319468         8.6932 
 164   0.0000       0.326110         8.8739 
 165   0.0000       0.329433         8.9643 
 166   0.0000       0.333297         9.0695 
 167   0.0000       0.339530         9.2391 
 168   0.0000       0.341927         9.3043 
 169   0.0000       0.345048         9.3892 
 170   0.0000       0.348022         9.4702 
 171   0.0000       0.354047         9.6341 
 172   0.0000       0.357395         9.7252 
 173   0.0000       0.360480         9.8092 
 174   0.0000       0.361290         9.8312 
 175   0.0000       0.364883         9.9290 
 176   0.0000       0.368333        10.0228 
 177   0.0000       0.370904        10.0928 
 178   0.0000       0.372586        10.1386 
 179   0.0000       0.376468        10.2442 
 180   0.0000       0.379853        10.3363 
 181   0.0000       0.384823        10.4716 
 182   0.0000       0.385462        10.4889 
 183   0.0000       0.388699        10.5770 
 184   0.0000       0.391697        10.6586 
 185   0.0000       0.396441        10.7877 
 186   0.0000       0.401182        10.9167 
 187   0.0000       0.403020        10.9667 
 188   0.0000       0.404769        11.0143 
 189   0.0000       0.407762        11.0958 
 190   0.0000       0.410729        11.1765 
 191   0.0000       0.415119        11.2960 
 192   0.0000       0.419545        11.4164 
 193   0.0000       0.424575        11.5533 
 194   0.0000       0.431515        11.7421 
 195   0.0000       0.431916        11.7530 
 196   0.0000       0.434035        11.8107 
 197   0.0000       0.440770        11.9940 
 198   0.0000       0.445236        12.1155 
 199   0.0000       0.447345        12.1729 
 200   0.0000       0.453183        12.3317 
 201   0.0000       0.455398        12.3920 
 202   0.0000       0.458772        12.4838 
 203   0.0000       0.461341        12.5537 
 204   0.0000       0.463900        12.6234 
 205   0.0000       0.470472        12.8022 
 206   0.0000       0.472208        12.8494 
 207   0.0000       0.473799        12.8927 
 208   0.0000       0.475916        12.9503 
 209   0.0000       0.481229        13.0949 
 210   0.0000       0.482195        13.1212 
 211   0.0000       0.485156        13.2018 
 212   0.0000       0.488999        13.3063 
 213   0.0000       0.494168        13.4470 
 214   0.0000       0.496156        13.5011 
 215   0.0000       0.502404        13.6711 
 216   0.0000       0.507280        13.8038 
 217   0.0000       0.508845        13.8464 
 218   0.0000       0.510467        13.8905 
 219   0.0000       0.512643        13.9497 
 220   0.0000       0.514252        13.9935 
 221   0.0000       0.515103        14.0167 
 222   0.0000       0.523120        14.2348 
 223   0.0000       0.526618        14.3300 
 224   0.0000       0.529656        14.4127 
 225   0.0000       0.533109        14.5066 
 226   0.0000       0.534365        14.5408 
 227   0.0000       0.541243        14.7280 
 228   0.0000       0.543643        14.7933 
 229   0.0000       0.545609        14.8468 
 230   0.0000       0.547714        14.9040 
 231   0.0000       0.554401        15.0860 
 232   0.0000       0.559325        15.2200 
 233   0.0000       0.562437        15.3047 
 234   0.0000       0.565372        15.3846 
 235   0.0000       0.569699        15.5023 
 236   0.0000       0.571902        15.5622 
 237   0.0000       0.576916        15.6987 
 238   0.0000       0.579759        15.7760 
 239   0.0000       0.582179        15.8419 
 240   0.0000       0.588323        16.0091 
 241   0.0000       0.594464        16.1762 
 242   0.0000       0.598753        16.2929 
 243   0.0000       0.600537        16.3414 
 244   0.0000       0.605839        16.4857 
 245   0.0000       0.606800        16.5119 
 246   0.0000       0.613424        16.6921 
 247   0.0000       0.615145        16.7389 
 248   0.0000       0.617869        16.8131 
 249   0.0000       0.623754        16.9732 
 250   0.0000       0.626757        17.0549 
 251   0.0000       0.632531        17.2120 
 252   0.0000       0.639027        17.3888 
 253   0.0000       0.642048        17.4710 
 254   0.0000       0.644746        17.5444 
 255   0.0000       0.645072        17.5533 
 256   0.0000       0.647437        17.6176 
 257   0.0000       0.652321        17.7506 
 258   0.0000       0.655071        17.8254 
 259   0.0000       0.656164        17.8551 
 260   0.0000       0.657929        17.9032 
 261   0.0000       0.663265        18.0484 
 262   0.0000       0.670924        18.2568 
 263   0.0000       0.674360        18.3503 
 264   0.0000       0.676809        18.4169 
 265   0.0000       0.682681        18.5767 
 266   0.0000       0.687808        18.7162 
 267   0.0000       0.690571        18.7914 
 268   0.0000       0.694255        18.8916 
 269   0.0000       0.700819        19.0703 
 270   0.0000       0.702581        19.1182 
 271   0.0000       0.709868        19.3165 
 272   0.0000       0.716425        19.4949 
 273   0.0000       0.720844        19.6152 
 274   0.0000       0.726823        19.7779 
 275   0.0000       0.730007        19.8645 
 276   0.0000       0.734005        19.9733 
 277   0.0000       0.736894        20.0519 
 278   0.0000       0.739763        20.1300 
 279   0.0000       0.741801        20.1854 
 280   0.0000       0.749375        20.3915 
 281   0.0000       0.755804        20.5665 
 282   0.0000       0.761715        20.7273 
 283   0.0000       0.766053        20.8454 
 284   0.0000       0.767962        20.8973 
 285   0.0000       0.775872        21.1125 
 286   0.0000       0.779538        21.2123 
 287   0.0000       0.788901        21.4671 
 288   0.0000       0.799283        21.7496 
 289   0.0000       0.808286        21.9946 
 290   0.0000       0.810528        22.0556 
 291   0.0000       0.817373        22.2418 
 292   0.0000       0.820552        22.3284 
 293   0.0000       0.829726        22.5780 
 294   0.0000       0.830537        22.6000 
 295   0.0000       0.837904        22.8005 
 296   0.0000       0.844606        22.9829 
 297   0.0000       0.850743        23.1499 
 298   0.0000       0.853887        23.2354 
 299   0.0000       0.858979        23.3740 
 300   0.0000       0.865923        23.5630 
 301   0.0000       0.872223        23.7344 
 302   0.0000       0.875476        23.8229 
 303   0.0000       0.876702        23.8563 
 304   0.0000       0.883754        24.0482 
 305   0.0000       0.886369        24.1193 
 306   0.0000       0.894513        24.3409 
 307   0.0000       0.898337        24.4450 
 308   0.0000       0.903882        24.5959 
 309   0.0000       0.906184        24.6585 
 310   0.0000       0.910792        24.7839 
 311   0.0000       0.913609        24.8606 
 312   0.0000       0.915198        24.9038 
 313   0.0000       0.919737        25.0273 
 314   0.0000       0.923166        25.1206 
 315   0.0000       0.928344        25.2615 
 316   0.0000       0.937277        25.5046 
 317   0.0000       0.941358        25.6156 
 318   0.0000       0.941410        25.6171 
 319   0.0000       0.946382        25.7524 
 320   0.0000       0.950532        25.8653 
 321   0.0000       0.952369        25.9153 
 322   0.0000       0.956247        26.0208 
 323   0.0000       0.959202        26.1012 
 324   0.0000       0.963672        26.2229 
 325   0.0000       0.965293        26.2670 
 326   0.0000       0.968830        26.3632 
 327   0.0000       0.972920        26.4745 
 328   0.0000       0.978159        26.6171 
 329   0.0000       0.979865        26.6635 
 330   0.0000       0.982153        26.7258 
 331   0.0000       0.988522        26.8990 
 332   0.0000       0.997684        27.1484 
 333   0.0000       0.998437        27.1688 
 334   0.0000       0.998796        27.1786 
 335   0.0000       1.001894        27.2629 
 336   0.0000       1.005847        27.3705 
 337   0.0000       1.007250        27.4087 
 338   0.0000       1.011315        27.5193 
 339   0.0000       1.014123        27.5957 
 340   0.0000       1.018097        27.7038 
 341   0.0000       1.022056        27.8116 
 342   0.0000       1.025552        27.9067 
 343   0.0000       1.029750        28.0209 
 344   0.0000       1.034587        28.1525 
 345   0.0000       1.037021        28.2188 
 346   0.0000       1.041605        28.3435 
 347   0.0000       1.044298        28.4168 
 348   0.0000       1.047838        28.5131 
 349   0.0000       1.054425        28.6924 
 350   0.0000       1.058924        28.8148 
 351   0.0000       1.063499        28.9393 
 352   0.0000       1.069075        29.0910 
 353   0.0000       1.069645        29.1065 
 354   0.0000       1.074573        29.2406 
 355   0.0000       1.076722        29.2991 
 356   0.0000       1.077584        29.3226 
 357   0.0000       1.081814        29.4377 
 358   0.0000       1.086051        29.5530 
 359   0.0000       1.089240        29.6397 
 360   0.0000       1.091734        29.7076 
 361   0.0000       1.099252        29.9122 
 362   0.0000       1.101418        29.9711 
 363   0.0000       1.105272        30.0760 
 364   0.0000       1.114144        30.3174 
 365   0.0000       1.115908        30.3654 
 366   0.0000       1.119524        30.4638 
 367   0.0000       1.124469        30.5984 
 368   0.0000       1.130291        30.7568 
 369   0.0000       1.131946        30.8018 
 370   0.0000       1.137839        30.9622 
 371   0.0000       1.142547        31.0903 
 372   0.0000       1.148248        31.2454 
 373   0.0000       1.150318        31.3017 
 374   0.0000       1.158693        31.5296 
 375   0.0000       1.160626        31.5823 
 376   0.0000       1.165853        31.7245 
 377   0.0000       1.171499        31.8781 
 378   0.0000       1.177802        32.0496 
 379   0.0000       1.180078        32.1115 
 380   0.0000       1.185864        32.2690 
 381   0.0000       1.187555        32.3150 
 382   0.0000       1.191526        32.4231 
 383   0.0000       1.197513        32.5860 
 384   0.0000       1.206785        32.8383 
 385   0.0000       1.208780        32.8926 
 386   0.0000       1.210736        32.9458 
 387   0.0000       1.213880        33.0314 
 388   0.0000       1.220680        33.2164 
 389   0.0000       1.227945        33.4141 
 390   0.0000       1.233543        33.5664 
 391   0.0000       1.237009        33.6607 
 392   0.0000       1.241159        33.7737 
 393   0.0000       1.244126        33.8544 
 394   0.0000       1.251740        34.0616 
 395   0.0000       1.255517        34.1644 
 396   0.0000       1.256919        34.2025 
 397   0.0000       1.262602        34.3572 
 398   0.0000       1.267333        34.4859 
 399   0.0000       1.275221        34.7005 
 400   0.0000       1.277614        34.7656 
 401   0.0000       1.282537        34.8996 
 402   0.0000       1.286189        34.9990 
 403   0.0000       1.290378        35.1130 
 404   0.0000       1.295600        35.2551 
 405   0.0000       1.299357        35.3573 
 406   0.0000       1.307837        35.5881 
 407   0.0000       1.315212        35.7887 
 408   0.0000       1.321770        35.9672 
 409   0.0000       1.324035        36.0288 
 410   0.0000       1.326045        36.0835 
 411   0.0000       1.329689        36.1827 
 412   0.0000       1.337999        36.4088 
 413   0.0000       1.344375        36.5823 
 414   0.0000       1.347176        36.6585 
 415   0.0000       1.352163        36.7942 
 416   0.0000       1.360907        37.0322 
 417   0.0000       1.364658        37.1342 
 418   0.0000       1.370635        37.2969 
 419   0.0000       1.375286        37.4234 
 420   0.0000       1.380510        37.5656 
 421   0.0000       1.381710        37.5982 
 422   0.0000       1.392060        37.8799 
 423   0.0000       1.396960        38.0132 
 424   0.0000       1.399634        38.0860 
 425   0.0000       1.407784        38.3078 
 426   0.0000       1.414855        38.5002 
 427   0.0000       1.415631        38.5213 
 428   0.0000       1.430695        38.9312 
 429   0.0000       1.433161        38.9983 
 430   0.0000       1.437103        39.1056 
 431   0.0000       1.440717        39.2039 
 432   0.0000       1.450109        39.4595 
 433   0.0000       1.455178        39.5974 
 434   0.0000       1.458580        39.6900 
 435   0.0000       1.461040        39.7569 
 436   0.0000       1.466393        39.9026 
 437   0.0000       1.478521        40.2326 
 438   0.0000       1.479999        40.2728 
 439   0.0000       1.486193        40.4414 
 440   0.0000       1.492792        40.6209 
 441   0.0000       1.494198        40.6592 
 442   0.0000       1.499454        40.8022 
 443   0.0000       1.500757        40.8377 
 444   0.0000       1.504988        40.9528 
 445   0.0000       1.513411        41.1820 
 446   0.0000       1.515564        41.2406 
 447   0.0000       1.520755        41.3819 
 448   0.0000       1.526930        41.5499 
 449   0.0000       1.534238        41.7487 
 450   0.0000       1.539636        41.8956 
 451   0.0000       1.548578        42.1390 
 452   0.0000       1.548932        42.1486 
 453   0.0000       1.556860        42.3643 
 454   0.0000       1.562036        42.5051 
 455   0.0000       1.569195        42.7000 
 456   0.0000       1.570352        42.7314 
 457   0.0000       1.572341        42.7856 
 458   0.0000       1.580725        43.0137 
 459   0.0000       1.584054        43.1043 
 460   0.0000       1.591098        43.2960 
 461   0.0000       1.603106        43.6227 
 462   0.0000       1.604838        43.6699 
 463   0.0000       1.608714        43.7753 
 464   0.0000       1.613679        43.9104 
 465   0.0000       1.619460        44.0677 
 466   0.0000       1.625739        44.2386 
 467   0.0000       1.631700        44.4008 
 468   0.0000       1.638424        44.5838 
 469   0.0000       1.640572        44.6422 
 470   0.0000       1.646844        44.8129 
 471   0.0000       1.651392        44.9367 
 472   0.0000       1.655808        45.0568 
 473   0.0000       1.661534        45.2126 
 474   0.0000       1.664707        45.2990 
 475   0.0000       1.676177        45.6111 
 476   0.0000       1.676978        45.6329 
 477   0.0000       1.680594        45.7313 
 478   0.0000       1.685421        45.8626 
 479   0.0000       1.693040        46.0700 
 480   0.0000       1.694794        46.1177 
 481   0.0000       1.701935        46.3120 
 482   0.0000       1.703942        46.3666 
 483   0.0000       1.714355        46.6500 
 484   0.0000       1.721892        46.8551 
 485   0.0000       1.726221        46.9729 
 486   0.0000       1.727983        47.0208 
 487   0.0000       1.739631        47.3378 
 488   0.0000       1.747265        47.5455 
 489   0.0000       1.752470        47.6871 
 490   0.0000       1.757066        47.8122 
 491   0.0000       1.761609        47.9358 
 492   0.0000       1.763859        47.9970 
 493   0.0000       1.765345        48.0375 
 494   0.0000       1.773079        48.2479 
 495   0.0000       1.775228        48.3064 
 496   0.0000       1.786542        48.6143 
 497   0.0000       1.793219        48.7960 
 498   0.0000       1.796733        48.8916 
 499   0.0000       1.798619        48.9429 
 500   0.0000       1.803165        49.0666 
 501   0.0000       1.806746        49.1641 
 502   0.0000       1.814489        49.3748 
 503   0.0000       1.817352        49.4527 
 504   0.0000       1.821478        49.5649 
 505   0.0000       1.828308        49.7508 
 506   0.0000       1.834462        49.9182 
 507   0.0000       1.841066        50.0979 
 508   0.0000       1.847242        50.2660 
 509   0.0000       1.848829        50.3092 
 510   0.0000       1.854738        50.4700 
 511   0.0000       1.856673        50.5226 
 512   0.0000       1.864545        50.7369 
 513   0.0000       1.876196        51.0539 
 514   0.0000       1.878489        51.1163 
 515   0.0000       1.881525        51.1989 
 516   0.0000       1.885952        51.3194 
 517   0.0000       1.893019        51.5117 
 518   0.0000       1.895663        51.5836 
 519   0.0000       1.900186        51.7067 
 520   0.0000       1.909138        51.9503 
 521   0.0000       1.914219        52.0886 
 522   0.0000       1.923680        52.3460 
 523   0.0000       1.924775        52.3758 
 524   0.0000       1.929605        52.5072 
 525   0.0000       1.935076        52.6561 
 526   0.0000       1.940746        52.8104 
 527   0.0000       1.943583        52.8876 
 528   0.0000       1.947928        53.0058 
 529   0.0000       1.955177        53.2031 
 530   0.0000       1.965582        53.4862 
 531   0.0000       1.968171        53.5566 
 532   0.0000       1.975461        53.7550 
 533   0.0000       1.977695        53.8158 
 534   0.0000       1.981015        53.9062 
 535   0.0000       1.988742        54.1164 
 536   0.0000       1.997924        54.3663 
 537   0.0000       2.002275        54.4847 
 538   0.0000       2.012314        54.7579 
 539   0.0000       2.018497        54.9261 
 540   0.0000       2.024296        55.0839 
 541   0.0000       2.031692        55.2852 
 542   0.0000       2.035712        55.3945 
 543   0.0000       2.039965        55.5103 
 544   0.0000       2.049474        55.7690 
 545   0.0000       2.056379        55.9569 
 546   0.0000       2.063629        56.1542 
 547   0.0000       2.067445        56.2580 
 548   0.0000       2.080302        56.6079 
 549   0.0000       2.082631        56.6713 
 550   0.0000       2.087497        56.8037 
 551   0.0000       2.090546        56.8866 
 552   0.0000       2.107779        57.3556 
 553   0.0000       2.112945        57.4962 
 554   0.0000       2.114929        57.5501 
 555   0.0000       2.125116        57.8274 
 556   0.0000       2.127966        57.9049 
 557   0.0000       2.132821        58.0370 
 558   0.0000       2.142473        58.2996 
 559   0.0000       2.152228        58.5651 
 560   0.0000       2.160594        58.7928 
 561   0.0000       2.163428        58.8699 
 562   0.0000       2.168453        59.0066 
 563   0.0000       2.176456        59.2244 
 564   0.0000       2.184438        59.4416 
 565   0.0000       2.192451        59.6596 
 566   0.0000       2.199711        59.8572 
 567   0.0000       2.203233        59.9530 
 568   0.0000       2.208711        60.1021 
 569   0.0000       2.217163        60.3321 
 570   0.0000       2.224744        60.5384 
 571   0.0000       2.230693        60.7002 
 572   0.0000       2.239393        60.9370 
 573   0.0000       2.244628        61.0794 
 574   0.0000       2.249860        61.2218 
 575   0.0000       2.257585        61.4320 
 576   0.0000       2.261104        61.5278 
 577   0.0000       2.269965        61.7689 
 578   0.0000       2.280734        62.0619 
 579   0.0000       2.281670        62.0874 
 580   0.0000       2.289404        62.2979 
 581   0.0000       2.291187        62.3464 
 582   0.0000       2.302367        62.6506 
 583   0.0000       2.314205        62.9727 
 584   0.0000       2.320079        63.1326 
 585   0.0000       2.334367        63.5214 
 586   0.0000       2.336934        63.5912 
 587   0.0000       2.342613        63.7457 
 588   0.0000       2.352220        64.0072 
 589   0.0000       2.365465        64.3676 
 590   0.0000       2.374097        64.6025 
 591   0.0000       2.380593        64.7792 
 592   0.0000       2.391592        65.0785 
 593   0.0000       2.394248        65.1508 
 594   0.0000       2.414183        65.6932 
 595   0.0000       2.416271        65.7501 
 596   0.0000       2.419324        65.8331 
 597   0.0000       2.428204        66.0748 
 598   0.0000       2.442419        66.4616 
 599   0.0000       2.448545        66.6283 
 600   0.0000       2.458163        66.8900 
 601   0.0000       2.464522        67.0631 
 602   0.0000       2.471488        67.2526 
 603   0.0000       2.479405        67.4681 
 604   0.0000       2.492973        67.8372 
 605   0.0000       2.495011        67.8927 
 606   0.0000       2.511007        68.3280 
 607   0.0000       2.515853        68.4598 
 608   0.0000       2.523181        68.6592 
 609   0.0000       2.542763        69.1921 
 610   0.0000       2.550003        69.3891 
 611   0.0000       2.558400        69.6176 
 612   0.0000       2.570529        69.9477 
 613   0.0000       2.575174        70.0740 
 614   0.0000       2.593746        70.5794 
 615   0.0000       2.595478        70.6265 
 616   0.0000       2.609735        71.0145 
 617   0.0000       2.620793        71.3154 
 618   0.0000       2.641575        71.8809 
 619   0.0000       2.647892        72.0528 
 620   0.0000       2.663624        72.4809 
 621   0.0000       2.671442        72.6936 
 622   0.0000       2.674765        72.7841 
 623   0.0000       2.676719        72.8372 
 624   0.0000       2.687524        73.1312 
 625   0.0000       2.702220        73.5312 
 626   0.0000       2.706718        73.6535 
 627   0.0000       2.713832        73.8471 
 628   0.0000       2.728137        74.2364 
 629   0.0000       2.734074        74.3979 
 630   0.0000       2.748704        74.7960 
 631   0.0000       2.756939        75.0201 
 632   0.0000       2.777192        75.5712 
 633   0.0000       2.778004        75.5933 
 634   0.0000       2.783226        75.7354 
 635   0.0000       2.787019        75.8387 
 636   0.0000       2.801909        76.2438 
 637   0.0000       2.813781        76.5669 
 638   0.0000       2.818181        76.6866 
 639   0.0000       2.844117        77.3924 
 640   0.0000       2.854957        77.6873 
 641   0.0000       2.869554        78.0845 
 642   0.0000       2.875151        78.2368 
 643   0.0000       2.885932        78.5302 
 644   0.0000       2.902481        78.9805 
 645   0.0000       2.917834        79.3983 
 646   0.0000       2.924494        79.5795 
 647   0.0000       2.932115        79.7869 
 648   0.0000       2.943137        80.0868 
 649   0.0000       2.959624        80.5355 
 650   0.0000       2.981997        81.1443 
 651   0.0000       2.988869        81.3312 
 652   0.0000       2.997868        81.5761 
 653   0.0000       3.023011        82.2603 
 654   0.0000       3.033976        82.5587 
 655   0.0000       3.053541        83.0911 
 656   0.0000       3.064946        83.4014 
 657   0.0000       3.081774        83.8593 
 658   0.0000       3.087048        84.0028 
 659   0.0000       3.094603        84.2084 
 660   0.0000       3.112311        84.6903 
 661   0.0000       3.119036        84.8733 
 662   0.0000       3.141604        85.4874 
 663   0.0000       3.160241        85.9945 
 664   0.0000       3.180523        86.5464 
 665   0.0000       3.184053        86.6425 
 666   0.0000       3.197228        87.0010 
 667   0.0000       3.209842        87.3442 
 668   0.0000       3.218190        87.5714 
 669   0.0000       3.237795        88.1049 
 670   0.0000       3.238872        88.1342 
 671   0.0000       3.249810        88.4318 
 672   0.0000       3.259381        88.6923 
 673   0.0000       3.268037        88.9278 
 674   0.0000       3.272075        89.0377 
 675   0.0000       3.284523        89.3764 
 676   0.0000       3.293506        89.6208 
 677   0.0000       3.295912        89.6863 
 678   0.0000       3.312217        90.1300 
 679   0.0000       3.320358        90.3515 
 680   0.0000       3.328541        90.5742 
 681   0.0000       3.330590        90.6300 
 682   0.0000       3.338504        90.8453 
 683   0.0000       3.343675        90.9860 
 684   0.0000       3.359670        91.4213 
 685   0.0000       3.365476        91.5793 
 686   0.0000       3.384393        92.0940 
 687   0.0000       3.387637        92.1823 
 688   0.0000       3.412997        92.8724 
 689   0.0000       3.416307        92.9624 
 690   0.0000       3.430329        93.3440 
 691   0.0000       3.438095        93.5553 
 692   0.0000       3.447525        93.8119 
 693   0.0000       3.453655        93.9787 
 694   0.0000       3.468495        94.3826 
 695   0.0000       3.474217        94.5383 
 696   0.0000       3.488223        94.9194 
 697   0.0000       3.490857        94.9910 
 698   0.0000       3.506927        95.4283 
 699   0.0000       3.509607        95.5013 
 700   0.0000       3.520272        95.7915 
 701   0.0000       3.522878        95.8624 
 702   0.0000       3.538518        96.2880 
 703   0.0000       3.542671        96.4010 
 704   0.0000       3.553649        96.6997 
 705   0.0000       3.558784        96.8394 
 706   0.0000       3.567634        97.0803 
 707   0.0000       3.577614        97.3518 
 708   0.0000       3.583824        97.5208 
 709   0.0000       3.588114        97.6376 
 710   0.0000       3.592962        97.7695 
 711   0.0000       3.606912        98.1491 
 712   0.0000       3.619250        98.4848 
 713   0.0000       3.625373        98.6514 
 714   0.0000       3.634572        98.9017 
 715   0.0000       3.641698        99.0956 
 716   0.0000       3.643563        99.1464 
 717   0.0000       3.654625        99.4474 
 718   0.0000       3.666150        99.7610 
 719   0.0000       3.672767        99.9411 
 720   0.0000       3.680285       100.1456 
 721   0.0000       3.687602       100.3448 
 722   0.0000       3.698074       100.6297 
 723   0.0000       3.707422       100.8841 
 724   0.0000       3.715788       101.1117 
 725   0.0000       3.719554       101.2142 
 726   0.0000       3.726123       101.3930 
 727   0.0000       3.736983       101.6885 
 728   0.0000       3.749327       102.0244 
 729   0.0000       3.755047       102.1800 
 730   0.0000       3.758636       102.2777 
 731   0.0000       3.759916       102.3125 
 732   0.0000       3.771406       102.6252 
 733   0.0000       3.780062       102.8607 
 734   0.0000       3.787870       103.0732 
 735   0.0000       3.797349       103.3311 
 736   0.0000       3.805000       103.5393 
 737   0.0000       3.807609       103.6103 
 738   0.0000       3.811381       103.7130 
 739   0.0000       3.819556       103.9354 
 740   0.0000       3.822744       104.0222 
 741   0.0000       3.831677       104.2652 
 742   0.0000       3.842042       104.5473 
 743   0.0000       3.847674       104.7005 
 744   0.0000       3.864126       105.1482 
 745   0.0000       3.874782       105.4382 
 746   0.0000       3.878796       105.5474 
 747   0.0000       3.884667       105.7072 
 748   0.0000       3.892995       105.9338 
 749   0.0000       3.900305       106.1327 
 750   0.0000       3.906295       106.2957 
 751   0.0000       3.909892       106.3936 
 752   0.0000       3.915768       106.5535 
 753   0.0000       3.922462       106.7356 
 754   0.0000       3.923661       106.7682 
 755   0.0000       3.933247       107.0291 
 756   0.0000       3.946303       107.3844 
 757   0.0000       3.953606       107.5831 
 758   0.0000       3.960234       107.7635 
 759   0.0000       3.963342       107.8480 
 760   0.0000       3.972914       108.1085 
 761   0.0000       3.980255       108.3082 
 762   0.0000       3.982569       108.3712 
 763   0.0000       3.994267       108.6895 
 764   0.0000       3.995282       108.7172 
 765   0.0000       4.004747       108.9747 
 766   0.0000       4.011509       109.1587 
 767   0.0000       4.018216       109.3412 
 768   0.0000       4.026764       109.5738 
 769   0.0000       4.034230       109.7770 
 770   0.0000       4.036914       109.8500 
 771   0.0000       4.048846       110.1747 
 772   0.0000       4.054874       110.3387 
 773   0.0000       4.064457       110.5995 
 774   0.0000       4.081525       111.0639 
 775   0.0000       4.087619       111.2298 
 776   0.0000       4.096321       111.4666 
 777   0.0000       4.097163       111.4895 
 778   0.0000       4.106038       111.7310 
 779   0.0000       4.116408       112.0131 
 780   0.0000       4.124722       112.2394 
 781   0.0000       4.129289       112.3637 
 782   0.0000       4.134381       112.5022 
 783   0.0000       4.146154       112.8226 
 784   0.0000       4.151340       112.9637 
 785   0.0000       4.156561       113.1058 
 786   0.0000       4.173168       113.5577 
 787   0.0000       4.177868       113.6856 
 788   0.0000       4.183831       113.8478 
 789   0.0000       4.200746       114.3081 
 790   0.0000       4.202395       114.3530 
 791   0.0000       4.211486       114.6003 
 792   0.0000       4.218432       114.7894 
 793   0.0000       4.224014       114.9413 
 794   0.0000       4.233269       115.1931 
 795   0.0000       4.249588       115.6372 
 796   0.0000       4.253100       115.7327 
 797   0.0000       4.257522       115.8531 
 798   0.0000       4.268219       116.1441 
 799   0.0000       4.275341       116.3380 
 800   0.0000       4.279956       116.4635 
 801   0.0000       4.300843       117.0319 
 802   0.0000       4.305071       117.1469 
 803   0.0000       4.310274       117.2885 
 804   0.0000       4.311044       117.3095 
 805   0.0000       4.329445       117.8102 
 806   0.0000       4.341712       118.1440 
 807   0.0000       4.342931       118.1772 
 808   0.0000       4.357097       118.5626 
 809   0.0000       4.368058       118.8609 
 810   0.0000       4.379200       119.1641 
 811   0.0000       4.385300       119.3301 
 812   0.0000       4.390605       119.4744 
 813   0.0000       4.405224       119.8722 
 814   0.0000       4.411550       120.0444 
 815   0.0000       4.424502       120.3968 
 816   0.0000       4.431409       120.5848 
 817   0.0000       4.439528       120.8057 
 818   0.0000       4.446588       120.9978 
 819   0.0000       4.462908       121.4419 
 820   0.0000       4.465507       121.5126 
 821   0.0000       4.471915       121.6870 
 822   0.0000       4.478094       121.8551 
 823   0.0000       4.496430       122.3541 
 824   0.0000       4.512872       122.8015 
 825   0.0000       4.520246       123.0022 
 826   0.0000       4.525076       123.1336 
 827   0.0000       4.537480       123.4711 
 828   0.0000       4.549747       123.8049 
 829   0.0000       4.553015       123.8938 
 830   0.0000       4.559508       124.0705 
 831   0.0000       4.569715       124.3483 
 832   0.0000       4.588586       124.8618 
 833   0.0000       4.594624       125.0261 
 834   0.0000       4.604116       125.2844 
 835   0.0000       4.616731       125.6276 
 836   0.0000       4.623331       125.8072 
 837   0.0000       4.644378       126.3800 
 838   0.0000       4.649884       126.5298 
 839   0.0000       4.654767       126.6626 
 840   0.0000       4.676789       127.2619 
 841   0.0000       4.678664       127.3129 
 842   0.0000       4.685777       127.5065 
 843   0.0000       4.713617       128.2640 
 844   0.0000       4.721986       128.4918 
 845   0.0000       4.723320       128.5281 
 846   0.0000       4.734417       128.8300 
 847   0.0000       4.744182       129.0958 
 848   0.0000       4.760890       129.5504 
 849   0.0000       4.766170       129.6941 
 850   0.0000       4.782845       130.1478 
 851   0.0000       4.796905       130.5304 
 852   0.0000       4.805280       130.7583 
 853   0.0000       4.809311       130.8680 
 854   0.0000       4.822914       131.2382 
 855   0.0000       4.843742       131.8049 
 856   0.0000       4.847033       131.8945 
 857   0.0000       4.864012       132.3565 
 858   0.0000       4.865870       132.4071 
 859   0.0000       4.885516       132.9417 
 860   0.0000       4.893320       133.1540 
 861   0.0000       4.905976       133.4984 
 862   0.0000       4.912614       133.6790 
 863   0.0000       4.923899       133.9861 
 864   0.0000       4.935689       134.3069 
 865   0.0000       4.944491       134.5464 
 866   0.0000       4.957993       134.9138 
 867   0.0000       4.974515       135.3634 
 868   0.0000       4.990286       135.7926 
 869   0.0000       5.001622       136.1010 
 870   0.0000       5.008622       136.2915 
 871   0.0000       5.019106       136.5768 
 872   0.0000       5.034416       136.9934 
 873   0.0000       5.039979       137.1448 
 874   0.0000       5.050651       137.4352 
 875   0.0000       5.056644       137.5983 
 876   0.0000       5.069440       137.9465 
 877   0.0000       5.082576       138.3039 
 878   0.0000       5.091430       138.5448 
 879   0.0000       5.113841       139.1547 
 880   0.0000       5.125110       139.4613 
 881   0.0000       5.135585       139.7464 
 882   0.0000       5.146352       140.0394 
 883   0.0000       5.158889       140.3805 
 884   0.0000       5.160318       140.4194 
 885   0.0000       5.179448       140.9399 
 886   0.0000       5.193248       141.3155 
 887   0.0000       5.210091       141.7738 
 888   0.0000       5.215820       141.9297 
 889   0.0000       5.225200       142.1849 
 890   0.0000       5.238711       142.5526 
 891   0.0000       5.243608       142.6858 
 892   0.0000       5.276525       143.5816 
 893   0.0000       5.286669       143.8576 
 894   0.0000       5.304667       144.3473 
 895   0.0000       5.326715       144.9473 
 896   0.0000       5.332490       145.1044 
 897   0.0000       5.336757       145.2205 
 898   0.0000       5.353290       145.6704 
 899   0.0000       5.364050       145.9632 
 900   0.0000       5.370812       146.1472 
 901   0.0000       5.378296       146.3509 
 902   0.0000       5.389301       146.6503 
 903   0.0000       5.405633       147.0948 
 904   0.0000       5.412602       147.2844 
 905   0.0000       5.413667       147.3134 
 906   0.0000       5.429924       147.7557 
 907   0.0000       5.431819       147.8073 
 908   0.0000       5.459549       148.5619 
 909   0.0000       5.465280       148.7178 
 910   0.0000       5.490311       149.3990 
 911   0.0000       5.501835       149.7125 
 912   0.0000       5.508021       149.8809 
 913   0.0000       5.522214       150.2671 
 914   0.0000       5.535455       150.6274 
 915   0.0000       5.544553       150.8750 
 916   0.0000       5.565490       151.4447 
 917   0.0000       5.574218       151.6822 
 918   0.0000       5.581840       151.8896 
 919   0.0000       5.594201       152.2260 
 920   0.0000       5.608289       152.6093 
 921   0.0000       5.620371       152.9381 
 922   0.0000       5.622961       153.0086 
 923   0.0000       5.644215       153.5869 
 924   0.0000       5.648972       153.7163 
 925   0.0000       5.674160       154.4018 
 926   0.0000       5.678106       154.5091 
 927   0.0000       5.688521       154.7925 
 928   0.0000       5.695342       154.9781 
 929   0.0000       5.703838       155.2093 
 930   0.0000       5.715617       155.5298 
 931   0.0000       5.723036       155.7317 
 932   0.0000       5.738177       156.1437 
 933   0.0000       5.743092       156.2775 
 934   0.0000       5.771987       157.0638 
 935   0.0000       5.784280       157.3983 
 936   0.0000       5.789567       157.5421 
 937   0.0000       5.810655       158.1160 
 938   0.0000       5.822791       158.4462 
 939   0.0000       5.833872       158.7477 
 940   0.0000       5.849901       159.1839 
 941   0.0000       5.877788       159.9427 
 942   0.0000       5.897777       160.4867 
 943   0.0000       5.927663       161.2999 
 944   0.0000       5.943321       161.7260 
 945   0.0000       6.005856       163.4277 
 946   0.0000       6.020645       163.8301 
 947   0.0000       6.104455       166.1107 
 948   0.0000       6.120922       166.5588 
 949   0.0000       6.128427       166.7630 
 950   0.0000       6.167451       167.8249 
 951   0.0000       6.173609       167.9924 
 952   0.0000       6.193062       168.5218 
 953   0.0000       6.208792       168.9498 
 954   0.0000       6.223213       169.3422 
 955   0.0000       6.232401       169.5923 
 956   0.0000       6.250936       170.0966 
 957   0.0000       6.260504       170.3570 
 958   0.0000       6.273203       170.7025 
 959   0.0000       6.305882       171.5918 
 960   0.0000       6.313349       171.7950 
 961   0.0000       6.324707       172.1040 
 962   0.0000       6.331384       172.2857 
 963   0.0000       6.364559       173.1885 
 964   0.0000       6.389103       173.8563 
 965   0.0000       6.399382       174.1360 
 966   0.0000       6.434160       175.0824 
 967   0.0000       6.456462       175.6893 
 968   0.0000       6.518543       177.3786 
 969   0.0000       6.544676       178.0897 
 970   0.0000       6.604651       179.7217 
 971   0.0000       6.681429       181.8109 
 972   0.0000       6.835055       185.9913 
 973   0.0000       6.869647       186.9326 
 974   0.0000       6.876963       187.1317 
 975   0.0000       6.899808       187.7533 
 976   0.0000       6.938623       188.8095 
 977   0.0000       6.958526       189.3511 
 978   0.0000       6.961876       189.4423 
 979   0.0000       6.995803       190.3655 
 980   0.0000       7.025625       191.1770 
 981   0.0000       7.028774       191.2627 
 982   0.0000       7.053647       191.9395 
 983   0.0000       7.070979       192.4111 
 984   0.0000       7.165971       194.9960 
 985   0.0000       7.170615       195.1224 
 986   0.0000       7.332730       199.5337 
 987   0.0000       7.377886       200.7625 
 988   0.0000       7.437997       202.3982 
 989   0.0000       7.487012       203.7319 
 990   0.0000       7.552412       205.5116 
 991   0.0000       7.644076       208.0059 
 992   0.0000       7.655053       208.3046 
 993   0.0000       7.720980       210.0986 
 994   0.0000       7.818253       212.7455 
 995   0.0000       7.906905       215.1578 
 996   0.0000       8.005805       217.8490 
 997   0.0000       8.075026       219.7326 
 998   0.0000       8.292693       225.6556 
 999   0.0000       9.421053       256.3599 
 1000   0.0000       9.444687       257.0030 
 1001   0.0000       9.445643       257.0290 
 1002   0.0000       9.460167       257.4242 
 1003   0.0000       9.475613       257.8445 
 1004   0.0000       9.498703       258.4729 
 1005   0.0000       9.699707       263.9425 
 1006   0.0000      10.092531       274.6317 
 1007   0.0000      10.110157       275.1113 
 1008   0.0000      10.123573       275.4764 
 1009   0.0000      10.209679       277.8195 
 1010   0.0000      10.216186       277.9965 
 1011   0.0000      10.252988       278.9980 
 1012   0.0000      10.363595       282.0078 
 1013   0.0000      10.407174       283.1936 
 1014   0.0000      10.508935       285.9627 
 1015   0.0000      15.387507       418.7154 
 1016   0.0000      17.435552       474.4455 
 1017   0.0000      18.055674       491.3199 
 1018   0.0000      18.298391       497.9245 
 1019   0.0000      18.625943       506.8377 
 1020   0.0000      18.770574       510.7733 
 1021   0.0000      18.947348       515.5836 
 1022   0.0000      20.456063       556.6378 
 1023   0.0000      21.060154       573.0759 
 1024   0.0000      21.947419       597.2196 

                 SPIN DOWN ORBITALS
  NO   OCC          E(Eh)            E(eV) 
   0   1.0000    -261.561167     -7117.4412 
   1   1.0000    -104.784336     -2851.3267 
   2   1.0000    -104.781550     -2851.2509 
   3   1.0000    -104.780991     -2851.2357 
   4   1.0000     -32.070498      -872.6826 
   5   1.0000     -27.548444      -749.6313 
   6   1.0000     -27.548384      -749.6296 
   7   1.0000     -27.548117      -749.6224 
   8   1.0000     -20.581394      -560.0482 
   9   1.0000     -11.413876      -310.5873 
  10   1.0000     -11.307230      -307.6854 
  11   1.0000     -11.269517      -306.6591 
  12   1.0000     -11.263480      -306.4949 
  13   1.0000     -11.260569      -306.4157 
  14   1.0000     -11.254299      -306.2450 
  15   1.0000     -11.250945      -306.1538 
  16   1.0000     -11.244236      -305.9712 
  17   1.0000     -10.510892      -286.0159 
  18   1.0000     -10.508069      -285.9391 
  19   1.0000     -10.507480      -285.9231 
  20   1.0000      -7.976785      -217.0594 
  21   1.0000      -7.976156      -217.0423 
  22   1.0000      -7.976094      -217.0405 
  23   1.0000      -7.973963      -216.9826 
  24   1.0000      -7.973463      -216.9690 
  25   1.0000      -7.973309      -216.9648 
  26   1.0000      -7.973215      -216.9622 
  27   1.0000      -7.972670      -216.9474 
  28   1.0000      -7.972582      -216.9450 
  29   1.0000      -4.145430      -112.8029 
  30   1.0000      -2.667058       -72.5743 
  31   1.0000      -2.667034       -72.5737 
  32   1.0000      -2.666454       -72.5579 
  33   1.0000      -1.425298       -38.7843 
  34   1.0000      -1.150553       -31.3081 
  35   1.0000      -1.090163       -29.6648 
  36   1.0000      -1.043099       -28.3842 
  37   1.0000      -1.032485       -28.0953 
  38   1.0000      -1.030932       -28.0531 
  39   1.0000      -1.028759       -27.9940 
  40   1.0000      -1.002138       -27.2696 
  41   1.0000      -0.975198       -26.5365 
  42   1.0000      -0.915132       -24.9020 
  43   1.0000      -0.813479       -22.1359 
  44   1.0000      -0.747483       -20.3400 
  45   1.0000      -0.700227       -19.0542 
  46   1.0000      -0.693335       -18.8666 
  47   1.0000      -0.684201       -18.6181 
  48   1.0000      -0.667325       -18.1588 
  49   1.0000      -0.636838       -17.3292 
  50   1.0000      -0.619924       -16.8690 
  51   1.0000      -0.603296       -16.4165 
  52   1.0000      -0.598431       -16.2841 
  53   1.0000      -0.582653       -15.8548 
  54   1.0000      -0.575153       -15.6507 
  55   1.0000      -0.567674       -15.4472 
  56   1.0000      -0.562155       -15.2970 
  57   1.0000      -0.551098       -14.9961 
  58   1.0000      -0.546726       -14.8772 
  59   1.0000      -0.539413       -14.6782 
  60   1.0000      -0.514083       -13.9889 
  61   1.0000      -0.511376       -13.9152 
  62   1.0000      -0.489689       -13.3251 
  63   1.0000      -0.476236       -12.9591 
  64   1.0000      -0.475036       -12.9264 
  65   1.0000      -0.446451       -12.1485 
  66   1.0000      -0.443386       -12.0652 
  67   1.0000      -0.441276       -12.0077 
  68   1.0000      -0.426235       -11.5984 
  69   1.0000      -0.421988       -11.4829 
  70   1.0000      -0.407286       -11.0828 
  71   1.0000      -0.369903       -10.0656 
  72   0.0000       0.011691         0.3181 
  73   0.0000       0.022111         0.6017 
  74   0.0000       0.022917         0.6236 
  75   0.0000       0.030275         0.8238 
  76   0.0000       0.038650         1.0517 
  77   0.0000       0.039903         1.0858 
  78   0.0000       0.042332         1.1519 
  79   0.0000       0.043905         1.1947 
  80   0.0000       0.044605         1.2138 
  81   0.0000       0.052961         1.4412 
  82   0.0000       0.056318         1.5325 
  83   0.0000       0.059560         1.6207 
  84   0.0000       0.063475         1.7272 
  85   0.0000       0.066181         1.8009 
  86   0.0000       0.067249         1.8299 
  87   0.0000       0.072758         1.9798 
  88   0.0000       0.074718         2.0332 
  89   0.0000       0.078628         2.1396 
  90   0.0000       0.090693         2.4679 
  91   0.0000       0.091681         2.4948 
  92   0.0000       0.092009         2.5037 
  93   0.0000       0.099350         2.7035 
  94   0.0000       0.101050         2.7497 
  95   0.0000       0.102353         2.7852 
  96   0.0000       0.107138         2.9154 
  97   0.0000       0.113114         3.0780 
  98   0.0000       0.113158         3.0792 
  99   0.0000       0.115533         3.1438 
 100   0.0000       0.116113         3.1596 
 101   0.0000       0.118999         3.2381 
 102   0.0000       0.120880         3.2893 
 103   0.0000       0.122561         3.3351 
 104   0.0000       0.124739         3.3943 
 105   0.0000       0.127259         3.4629 
 106   0.0000       0.128465         3.4957 
 107   0.0000       0.131400         3.5756 
 108   0.0000       0.133638         3.6365 
 109   0.0000       0.135616         3.6903 
 110   0.0000       0.139100         3.7851 
 111   0.0000       0.141460         3.8493 
 112   0.0000       0.142130         3.8676 
 113   0.0000       0.148565         4.0427 
 114   0.0000       0.150466         4.0944 
 115   0.0000       0.152739         4.1562 
 116   0.0000       0.157576         4.2879 
 117   0.0000       0.162396         4.4190 
 118   0.0000       0.163984         4.4622 
 119   0.0000       0.167332         4.5533 
 120   0.0000       0.169692         4.6175 
 121   0.0000       0.172394         4.6911 
 122   0.0000       0.177085         4.8187 
 123   0.0000       0.177686         4.8351 
 124   0.0000       0.182034         4.9534 
 125   0.0000       0.188669         5.1339 
 126   0.0000       0.189704         5.1621 
 127   0.0000       0.190646         5.1877 
 128   0.0000       0.197534         5.3752 
 129   0.0000       0.202673         5.5150 
 130   0.0000       0.203517         5.5380 
 131   0.0000       0.205119         5.5816 
 132   0.0000       0.209606         5.7037 
 133   0.0000       0.210431         5.7261 
 134   0.0000       0.214973         5.8497 
 135   0.0000       0.218854         5.9553 
 136   0.0000       0.221898         6.0381 
 137   0.0000       0.227301         6.1852 
 138   0.0000       0.228655         6.2220 
 139   0.0000       0.233205         6.3458 
 140   0.0000       0.237861         6.4725 
 141   0.0000       0.239689         6.5223 
 142   0.0000       0.244808         6.6616 
 143   0.0000       0.246562         6.7093 
 144   0.0000       0.250764         6.8236 
 145   0.0000       0.253529         6.8989 
 146   0.0000       0.256119         6.9693 
 147   0.0000       0.258449         7.0328 
 148   0.0000       0.265040         7.2121 
 149   0.0000       0.266784         7.2596 
 150   0.0000       0.272697         7.4205 
 151   0.0000       0.276604         7.5268 
 152   0.0000       0.279097         7.5946 
 153   0.0000       0.286263         7.7896 
 154   0.0000       0.288425         7.8485 
 155   0.0000       0.292404         7.9567 
 156   0.0000       0.299234         8.1426 
 157   0.0000       0.301623         8.2076 
 158   0.0000       0.303512         8.2590 
 159   0.0000       0.308767         8.4020 
 160   0.0000       0.311086         8.4651 
 161   0.0000       0.319496         8.6939 
 162   0.0000       0.320439         8.7196 
 163   0.0000       0.326582         8.8868 
 164   0.0000       0.331480         9.0200 
 165   0.0000       0.332036         9.0352 
 166   0.0000       0.335218         9.1218 
 167   0.0000       0.341959         9.3052 
 168   0.0000       0.345818         9.4102 
 169   0.0000       0.347228         9.4486 
 170   0.0000       0.349677         9.5152 
 171   0.0000       0.359782         9.7902 
 172   0.0000       0.361767         9.8442 
 173   0.0000       0.362983         9.8773 
 174   0.0000       0.364419         9.9164 
 175   0.0000       0.367523        10.0008 
 176   0.0000       0.369238        10.0475 
 177   0.0000       0.373605        10.1663 
 178   0.0000       0.377413        10.2699 
 179   0.0000       0.380946        10.3661 
 180   0.0000       0.387330        10.5398 
 181   0.0000       0.388449        10.5702 
 182   0.0000       0.391849        10.6628 
 183   0.0000       0.395498        10.7620 
 184   0.0000       0.399116        10.8605 
 185   0.0000       0.400244        10.8912 
 186   0.0000       0.404467        11.0061 
 187   0.0000       0.404773        11.0144 
 188   0.0000       0.409011        11.1298 
 189   0.0000       0.410061        11.1583 
 190   0.0000       0.414902        11.2901 
 191   0.0000       0.418565        11.3897 
 192   0.0000       0.420793        11.4504 
 193   0.0000       0.427166        11.6238 
 194   0.0000       0.434040        11.8108 
 195   0.0000       0.435668        11.8551 
 196   0.0000       0.438985        11.9454 
 197   0.0000       0.443197        12.0600 
 198   0.0000       0.450230        12.2514 
 199   0.0000       0.452800        12.3213 
 200   0.0000       0.455871        12.4049 
 201   0.0000       0.458555        12.4779 
 202   0.0000       0.464441        12.6381 
 203   0.0000       0.466056        12.6820 
 204   0.0000       0.470919        12.8144 
 205   0.0000       0.472490        12.8571 
 206   0.0000       0.476143        12.9565 
 207   0.0000       0.480087        13.0638 
 208   0.0000       0.481814        13.1108 
 209   0.0000       0.485537        13.2121 
 210   0.0000       0.486711        13.2441 
 211   0.0000       0.487818        13.2742 
 212   0.0000       0.495303        13.4779 
 213   0.0000       0.497380        13.5344 
 214   0.0000       0.501275        13.6404 
 215   0.0000       0.504979        13.7412 
 216   0.0000       0.509313        13.8591 
 217   0.0000       0.512755        13.9528 
 218   0.0000       0.514333        13.9957 
 219   0.0000       0.516790        14.0626 
 220   0.0000       0.517124        14.0717 
 221   0.0000       0.521170        14.1818 
 222   0.0000       0.525517        14.3000 
 223   0.0000       0.529265        14.4020 
 224   0.0000       0.532619        14.4933 
 225   0.0000       0.535596        14.5743 
 226   0.0000       0.536981        14.6120 
 227   0.0000       0.543936        14.8013 
 228   0.0000       0.545006        14.8304 
 229   0.0000       0.548626        14.9289 
 230   0.0000       0.552876        15.0445 
 231   0.0000       0.556448        15.1417 
 232   0.0000       0.561004        15.2657 
 233   0.0000       0.563478        15.3330 
 234   0.0000       0.567463        15.4415 
 235   0.0000       0.570891        15.5347 
 236   0.0000       0.573063        15.5938 
 237   0.0000       0.580525        15.7969 
 238   0.0000       0.580720        15.8022 
 239   0.0000       0.583641        15.8817 
 240   0.0000       0.591976        16.1085 
 241   0.0000       0.595521        16.2049 
 242   0.0000       0.601410        16.3652 
 243   0.0000       0.603203        16.4140 
 244   0.0000       0.608059        16.5461 
 245   0.0000       0.609917        16.5967 
 246   0.0000       0.615500        16.7486 
 247   0.0000       0.616286        16.7700 
 248   0.0000       0.620973        16.8975 
 249   0.0000       0.624648        16.9975 
 250   0.0000       0.629213        17.1217 
 251   0.0000       0.634322        17.2608 
 252   0.0000       0.641662        17.4605 
 253   0.0000       0.644060        17.5258 
 254   0.0000       0.646299        17.5867 
 255   0.0000       0.648294        17.6410 
 256   0.0000       0.649402        17.6711 
 257   0.0000       0.653426        17.7806 
 258   0.0000       0.656361        17.8605 
 259   0.0000       0.659641        17.9498 
 260   0.0000       0.662191        18.0191 
 261   0.0000       0.666141        18.1266 
 262   0.0000       0.674243        18.3471 
 263   0.0000       0.678608        18.4659 
 264   0.0000       0.680859        18.5271 
 265   0.0000       0.687094        18.6968 
 266   0.0000       0.690101        18.7786 
 267   0.0000       0.692998        18.8574 
 268   0.0000       0.696040        18.9402 
 269   0.0000       0.703029        19.1304 
 270   0.0000       0.707933        19.2638 
 271   0.0000       0.714158        19.4332 
 272   0.0000       0.718401        19.5487 
 273   0.0000       0.723531        19.6883 
 274   0.0000       0.730381        19.8747 
 275   0.0000       0.734517        19.9872 
 276   0.0000       0.737205        20.0604 
 277   0.0000       0.740585        20.1523 
 278   0.0000       0.746870        20.3234 
 279   0.0000       0.747091        20.3294 
 280   0.0000       0.752604        20.4794 
 281   0.0000       0.760361        20.6905 
 282   0.0000       0.763992        20.7893 
 283   0.0000       0.768333        20.9074 
 284   0.0000       0.773497        21.0479 
[...]
  | sigma^2 in % of trace(Dip) retained ...   2.08e+01
  | sigma^2 in % of trace(Dpq) retained ...   1.34e-01
  | Av. % of trace(Di) retained         ...  99.998509221720
  | Av. % of trace(Dp) retained         ...  99.999998259233
  | sigma^2 in % of trace(Di) retained  ...   7.40e-07
  | sigma^2 in % of trace(Dp) retained  ...   2.35e-12
 Distributions of % trace(Dij) recovered:
  |       >= 99.9  ...   105 ( 21.0 % of all IJ-pairs)
  |   [80.0, 90.0) ...    29 (  5.8 % of all IJ-pairs)
  |   [90.0, 99.0) ...   275 ( 54.9 % of all IJ-pairs)
  |   [99.0, 99.9) ...    92 ( 18.4 % of all IJ-pairs)
 Distributions of % trace(Dip) recovered:
  |   [70.0, 80.0) ...     2 (  1.7 % of all IP-pairs)
  |   [80.0, 90.0) ...    16 ( 13.4 % of all IP-pairs)
  |   [90.0, 99.0) ...    59 ( 49.6 % of all IP-pairs)
  |   [99.0, 99.9) ...    42 ( 35.3 % of all IP-pairs)
 Distributions of % trace(Dpq) recovered:
  |       >= 99.9  ...     5 ( 33.3 % of all PQ-pairs)
  |   [99.0, 99.9) ...    10 ( 66.7 % of all PQ-pairs)
 Distributions of % trace(Di) recovered :
  |       >= 99.9  ...    43 (100.0 % of all I-pairs )
 Distributions of % trace(Dp) recovered :
  |       >= 99.9  ...     5 (100.0 % of all P-pairs )

                       ===========================
                       1103 OF 1716 PAIRS ARE KEPT
                       ===========================

 Initial PAO correlation energy (all pairs)    ...  -2.6937186417 Eh
 Energy constituents in PAO basis (Eh):
  | Vijab(+0) ...  -2.2654805495
  | Viab (-1) ...  -0.1748035896
  | Vab  (-2) ...  -0.0573559097
  | Va   (-1) ...  -0.0000430962
  | Vija (+1) ...  -0.0720160306
  | Vij  (+2) ...  -0.0155113472
  | Via  (+0) ...  -0.1083482023
  | Vi   (+1) ...  -0.0001599167
 Initial PNO correlation energy                ...  -2.6584790610 Eh
 Energy constituents in PNO basis (Eh):
  | Vijab(+0) ...  -2.2462887237 (err=  0.0191918257)
  | Viab (-1) ...  -0.1604792474 (err=  0.0143243422)
  | Vab  (-2) ...  -0.0569040235 (err=  0.0004518862)
  | Va   (-1) ...  -0.0000250142 (err=  0.0000180819)
  | Vija (+1) ...  -0.0709407103 (err=  0.0010753202)
  | Vij  (+2) ...  -0.0154414053 (err=  0.0000699420)
  | Via  (+0) ...  -0.1082404577 (err=  0.0001077446)
  | Vi   (+1) ...  -0.0001594788 (err=  0.0000004379)
 Sum of total truncation errors ...   0.0352395807 Eh
  | Pair screening ...   0.0121737218 Eh
  | PNO truncation ...   0.0230658589 Eh

 UMP2 correlation energy (PAO) ...  -2.6887492696
  | alpha-alpha ...  -0.3866725595 (NP_aa=  928)
  | alpha-beta  ...  -1.9950305738 (NP_ab= 1691)
  | beta -beta  ...  -0.3070461364 (NP_bb=  730)
 UMP2 correlation energy (PNO) ...  -2.6531213740
  | alpha-alpha ...  -0.3744274233 (err=  0.0122451361, NP_aa=  587)
  | alpha-beta  ...  -1.9759026057 (err=  0.0191279681, NP_ab= 1078)
  | beta -beta  ...  -0.3027913450 (err=  0.0042547914, NP_bb=  458)
 Sum of total UMP2 truncation errors ...   0.0356278956 Eh
  | Pair screening ...   0.0121937503 Eh
  | PNO truncation ...   0.0234341453 Eh
 Timing for NEV-PNO construction (sec.)
  | Intermediate construction  ..           52.164
  | Amplitude construction     ..           67.875
  | Total time                 ..          120.039
 Making pair pair interaction lists ...      ok
 Total size for 2-ext PNO integrals ...     11.0 MB
Checking the number of SOMO/SOMO doubles PNOs ... 
 #Truncate: (72, 72)[176] -> [85] .. 
 #Truncate: (73, 73)[177] -> [85] .. 
 #Truncate: (74, 74)[176] -> [85] .. 
 #Truncate: (75, 75)[176] -> [85] .. 
 #Truncate: (76, 76)[178] -> [85] .. 

--------------------------------
LOCAL RI TRANSFORMATION (VABPAO)
--------------------------------

Number of PAOs:    1030
Basis functions:   1025 (343 shells)
Aux. functions:    2424 (644 shells)

Processing maps (0.0 sec)
Average map sizes:
   Aux shells -> PAOs           1030.0
   PAOs       -> AO shells       343.0

Calculating integrals (222.3 sec, 37370.165 MB)
Finished
-----------------------------
LOCAL RI TRANSFORMATION (IJV)
-----------------------------

Orbital window:      29 to 76
Basis functions:   1025 (343 shells)
Aux. functions:    2424 (644 shells)

Processing maps (0.0 sec)
Average map sizes:
   Aux shells -> MOs(i)           46.6
   Aux shells -> MOs(j)           48.0
   MOs        -> AO shells       340.8

Calculating integrals (27.2 sec, 41.512 MB)
Sorting integrals (0.3 sec, 41.485 MB)
Total time for the integral transformation: 27.6 sec


-------------------------------------
Pair Pair Term precalculation with     
RI-(ij|mn) and (im|jn) transformation  
ON THE FLY                             
-------------------------------------

   IBatch   1 (of   2)              ... done ( 1223.204 sec)
   IBatch   2 (of   2)              ... done ( 1306.436 sec)
Total EXT                           ...        2529.640 sec

---------------------
RI-PNO TRANSFORMATION
---------------------

Total Number of PNOs                   ... 34430
Total Number of IJ-PNOs                ... 30246
Total Number of IP-PNOs                ...  3231
Total Number of PQ-PNOs                ...   953
Total Number of IJ-pairs               ...   959
Total Number of PI-pairs               ...   119
Total Number of PQ-pairs               ...    25
Average number of PNOs per pair        ...    31
Maximal number of PNOs per pair        ...    85
>> Statistics for ij-pairs..
   #pairs with  1 -  5 PNOs   :    0
   #pairs with  6 - 10 PNOs   :    0
   #pairs with 11 - 15 PNOs   :   54
   #pairs with 16 - 20 PNOs   :  240
   #pairs with 21 - 25 PNOs   :  160
   #pairs with 26 - 30 PNOs   :  146
   #pairs with 31 - 35 PNOs   :   62
   #pairs with 36 - 40 PNOs   :   50
   #pairs with 41 - 45 PNOs   :   52
   #pairs with 46 - 50 PNOs   :   24
   #pairs with 51 - 55 PNOs   :   35
   #pairs with 56 - 60 PNOs   :   57
   #pairs with 61 - 65 PNOs   :   74
   #pairs with 66 - 70 PNOs   :    2
   #pairs with 76 - 80 PNOs   :    1
   #pairs with 81 - 85 PNOs   :    2
>> Statistics for ip-pairs..
   #pairs with  1 -  5 PNOs   :    0
   #pairs with  6 - 10 PNOs   :    2
   #pairs with 11 - 15 PNOs   :   16
   #pairs with 16 - 20 PNOs   :    3
   #pairs with 21 - 25 PNOs   :   28
   #pairs with 26 - 30 PNOs   :   13
   #pairs with 31 - 35 PNOs   :   44
   #pairs with 36 - 40 PNOs   :   13
   #pairs with 41 - 45 PNOs   :    0
   #pairs with 46 - 50 PNOs   :    0
>> Statistics for pq-pairs..
   #pairs with  1 -  5 PNOs   :    0
   #pairs with  6 - 10 PNOs   :    0
   #pairs with 11 - 15 PNOs   :    0
   #pairs with 16 - 20 PNOs   :    0
   #pairs with 21 - 25 PNOs   :   10
   #pairs with 26 - 30 PNOs   :   10
   #pairs with 31 - 35 PNOs   :    0
   #pairs with 36 - 40 PNOs   :    0
   #pairs with 41 - 45 PNOs   :    0
   #pairs with 46 - 50 PNOs   :    0
   #pairs with 81 - 85 PNOs   :    5

Generation of (ij|ab)[P] integrals            ... on
Generation of (ia|bc)[P],(ja|bc)[P] integrals ... on
Storage of 3 and 4 external integrals         ... on
Generation of ALL (ka|bc)[P] integrals        ... on
Keep RI integrals in memory                   ... off

Ibatch:  1 (of  1)
Starting 2-4 index PNO integral generation ... done

Timings:
Total PNO integral transformation time     ...       2270.400 sec
Size of the 3-external file                ...       287 MB
Size of the 4-external file                ...      1955 MB
Size of the IKJL file                      ...        18 MB
Size of the all 3-external file            ...      6910 MB
Size of the 1-external file                ...        22 MB

Size of the PAO/PNO coefficient matrices   ...     223.3 MB

Making pair/pair overlap matrices          ... done (  396.353 sec)
Size of the pair overlap file              ...    2445.0 MB
Total # unrestricted pairs ...       2123
  # of alpha-alpha pairs   ...        587
  # of alpha-beta pairs    ...       1078
  # of beta-beta pairs     ...        458
Constructing the guess amplitudes          ... done (    0.659 sec)

-------------------------
FINAL STARTUP INFORMATION
-------------------------

E(0)                                       ...  -3028.436214849
E(SL-UMP2 in NEV-PNO space)                ...     -2.689662937
Initial E(tot)                             ...  -3031.125877785
<T|T>                                      ...      0.534904036
Number of unrestricted pairs included      ... 2123
Total number of pairs                      ... 4095
----------------------------------------------------------
                     OPEN-SHELL COUPLED CLUSTER ITERATIONS
----------------------------------------------------------

Number of PNO amplitudes to be optimized        ...          2118809
Number of canonical amplitudes for strong pairs ...       1917498085
Untruncated number of canonical amplitudes      ...       3698645738

Iter       E(tot)           E(Corr)          Delta-E          Residual     Time
  0  -3031.133077395     -2.660320984      0.029341953      0.020723948 1972.38
                           *** Turning on DIIS ***
  1  -3031.245700198     -2.772943787     -0.112622804      0.009300908 1960.13
  2  -3031.310179988     -2.837423576     -0.064479789      0.008282985 1953.30
  3  -3031.331450596     -2.858694185     -0.021270609      0.002960336 1817.41
  4  -3031.338686609     -2.865930197     -0.007236013      0.002645283 1693.75
  5  -3031.342552562     -2.869796151     -0.003865954      0.001666625 1684.28
  6  -3031.343967484     -2.871211072     -0.001414921      0.000812982 1688.46
  7  -3031.344749583     -2.871993172     -0.000782100      0.000575285 1693.07
  8  -3031.344918720     -2.872162308     -0.000169136      0.000233424 1685.56
  9  -3031.344974253     -2.872217841     -0.000055533      0.000195560 1724.86
 10  -3031.344969740     -2.872213329      0.000004513      0.000100507 1736.24
 11  -3031.344981158     -2.872224746     -0.000011417      0.000076741 1744.80
 12  -3031.344987783     -2.872231371     -0.000006625      0.000031761 1680.41
 13  -3031.344990466     -2.872234055     -0.000002684      0.000015888 1591.61
 14  -3031.344991833     -2.872235421     -0.000001367      0.000009107 1578.08
               --- The CCSD iterations have converged ---

E(0)                                       ...  -3028.436214849
E(CORR)(strong-pairs)                      ...     -2.872235421
E(CORR)(weak-pairs)                        ...     -0.036541563
E(CORR)(corrected)                         ...     -2.908776984
E(TOT)                                     ...  -3031.344991833
Singles norm <S|S>**1/2                    ...      0.192912654 ( 0.064851412, 0.128061242)  
T1 diagnostic                              ...      0.020222741                              
<S**2>(linearized)                         ...      8.7507997 (ideal value:      8.7500000)

----------------------
LARGEST PNO AMPLITUDES
----------------------
  70a-> 78a  70b-> 78b       0.056646
  50b-> 76b  -1b-> -1b       0.054850
  51b-> 76b  -1b-> -1b       0.053432
  48b-> 72b  -1b-> -1b       0.052542
  70a-> 77a  70b-> 77b       0.050575
  30a-> 77a  -1a-> -1a       0.049316
  30b-> 77b  -1b-> -1b       0.047107
  48b-> 74b  -1b-> -1b       0.046245
  48b-> 75b  -1b-> -1b       0.045774
  55a-> 77a  55b-> 77b       0.045585
  54a-> 77a  54b-> 77b       0.045379
  65a-> 77a  65b-> 77b       0.045162
  69a-> 77a  69b-> 77b       0.043972
  61a-> 77a  61b-> 77b       0.043379
  39b-> 73b  -1b-> -1b       0.043357
  63a-> 77a  63b-> 77b       0.042999

Total # unrestricted pairs ...       1226
  # of alpha-alpha pairs   ...        341
  # of alpha-beta pairs    ...        613
  # of beta-beta pairs     ...        272

-------------------------------------------
DLPNO BASED TRIPLES CORRECTION
-------------------------------------------

Singles multiplier          ...  1.000000
Fragment selection                          .... not used
TCutTNO                     ... 1.000e-09
TCutMP2Pairs                ... 1.000e-05
TCutDOStrong                ... 2.000e-02
TCutMKNStrong               ... 1.000e-02
TCutDOWeak                  ... 4.000e-02
TCutMKNWeak                 ... 1.000e-01
NTCutTNO                    ... 1

Number of Triples that are to be computed         ...     34476

 . . . . . . . . .
10% done  
20% done  
30% done  
40% done  
50% done  
60% done  
70% done  
80% done  
90% done  
          Batch   1   done (  14547.884 sec)

Triples-Correction TCutTNO=   1.000e-09 (NWeakPairs = 0  1  2  3)  -0.117501133784   -0.001994029599    0.000000000000    0.000000000000
Triples-Correction  -0.119495163382

Triples timings:
Total time                      ... 15157.447 sec

Triples List generation         ...     0.000 sec
TNO generation                  ...   609.319 sec
Pair density generation         ...     0.096 sec
Look up tables                  ...     0.114 sec
Generating 3-index integrals    ...  8808.250 sec
Make 4-ind.int. from 3-ind.int  ...     3.430 sec
Projecting amplitudes (D + S)   ...  5489.016 sec
Sorting integrals for spin cases...    51.485 sec
Calculate W0/W1                 ...   158.559 sec
Energy contr. (sum over a,b,c)  ...    36.990 sec

Everything after 3-index        ...  5861.813 sec

Energy contribution AAA         ...    24.009 sec
Energy contribution AAB         ...   109.765 sec
Energy contribution ABB         ...    99.983 sec
Energy contribution BBB         ...    13.322 sec
prep                ...     3.140 sec
makeTTNO            ...  5433.104 sec
copyij              ...     0.126 sec
copyil              ...     4.133 sec
transposeij         ...     0.077 sec
newMatInDoubleProj  ...    52.643 sec
BlasInDoubleProj    ...  2929.497 sec
ProjSingles         ...    45.901 sec
ProjDoubles         ...  5443.114 sec
overall Doubles for projection      ... 3155642
used Doubles for projection         ... 3155642


Number of Triples   (0, 1, 2, 3 weak pairs; overall):  16225   12355       0       0  ( 28580)
Number of Atoms     (0, 1, 2, 3 weak pairs; overall):   20.0    14.5     0.0     0.0  (    29)
Number of PAOs      (0, 1, 2, 3 weak pairs; overall):  772.1   587.1     0.0     0.0  (  1025)
Number of AuxFcns   (0, 1, 2, 3 weak pairs; overall):  903.0   582.5     0.0     0.0  (  2424)
Number of TNOs (0, 1, 2, 3 weak pairs         ):   79.4    56.1     0.0     0.0
Aver. Number of NTNO, Atoms, PAOs, AuxFcns / Triples:  28580    69.3    17.6   692.2   764.5

Triples Correction (T)                     ...     -0.119495163
    alpha-alpha-alpha ... -0.003893444 (  3.3%)
    alpha-alpha-beta  ... -0.056098478 ( 46.9%)
    alpha-beta -beta  ... -0.055379740 ( 46.3%)
    beta -beta -beta  ... -0.004123502 (  3.5%)
Final correlation energy                   ...     -3.028272147
E(CCSD)                                    ...  -3031.344991833
E(CCSD(T))                                 ...  -3031.464486996

----------------------------
STATISTICS FOR PAIR-ENERGIES
----------------------------
Minimum, maximum and average ratios of UMP and CCSD pair-energies ... 0.44, 1.44, 1.02


------------------------------------------------------------------------------- 
                                     TIMINGS                                   
------------------------------------------------------------------------------- 


Total execution time                   ...    51073.107 sec

Localization of occupied MO's          ...       10.467 sec (  0.0%)
Fock Matrix Formation                  ...     1609.028 sec (  3.2%)
Differential overlap integrals         ...        2.000 sec (  0.0%)
Organizing maps                        ...        1.817 sec (  0.0%)
RI 3-index integral generations        ...      322.385 sec (  0.6%)
RI-PNO integral transformation         ...     5227.547 sec ( 10.2%)
Initial Guess                          ...     2065.598 sec (  4.0%)
DIIS Solver                            ...       14.967 sec (  0.0%)
State Vector Update                    ...        0.707 sec (  0.0%)
Sigma-vector construction              ...    26204.341 sec ( 51.3%)
  <0|H|D>                              ...        0.029 sec (  0.0% of sigma)
  <D|H|D>(0-ext)                       ...     4732.249 sec ( 18.1% of sigma)
  <D|H|D>(2-ext Fock)                  ...        1.518 sec (  0.0% of sigma)
  <D|H|D>(2-ext)                       ...     3574.717 sec ( 13.6% of sigma)
  <D|H|D>(4-ext)                       ...      148.736 sec (  0.6% of sigma)
  <D|H|D>(4-ext-corr)                  ...      922.440 sec (  3.5% of sigma)
  CCSD doubles correction              ...      439.179 sec (  1.7% of sigma)
  <S|H|S>                              ...      710.100 sec (  2.7% of sigma)
  <S|H|D>(1-ext)                       ...      230.682 sec (  0.9% of sigma)
  <D|H|S>(1-ext)                       ...        0.929 sec (  0.0% of sigma)
  <S|H|D>(3-ext)                       ...       20.490 sec (  0.1% of sigma)
  CCSD singles correction              ...        0.004 sec (  0.0% of sigma)
  Fock-dressing                        ...     7955.474 sec ( 30.4% of sigma)
  Singles amplitudes                   ...      100.926 sec (  0.4% of sigma)
  (ik|jl)-dressing                     ...     5965.915 sec ( 22.8% of sigma)
  (ij|ab),(ia|jb)-dressing             ...     1354.238 sec (  5.2% of sigma)
  Pair energies                        ...        0.144 sec (  0.0% of sigma)
Total Time for computing (T)           ...    16008.948 sec ( 31.3% of ALL)


-------------------------   --------------------
FINAL SINGLE POINT ENERGY     -3031.464486996098
-------------------------   --------------------


                            ***************************************
                            *     ORCA property calculations      *
                            ***************************************

                                    ---------------------
                                    Active property flags
                                    ---------------------
   (+) Dipole Moment


------------------------------------------------------------------------------
                       ORCA ELECTRIC PROPERTIES CALCULATION
------------------------------------------------------------------------------

Dipole Moment Calculation                       ... on
Quadrupole Moment Calculation                   ... off
Polarizability Calculation                      ... off
GBWName                                         ... simple-grid-225-245-b3lyp_d3bj-631gd-gas-singlepoint-DLPNO_CCSD_T1-NormalPNO-augtz-gas.gbw
Electron density file                           ... simple-grid-225-245-b3lyp_d3bj-631gd-gas-singlepoint-DLPNO_CCSD_T1-NormalPNO-augtz-gas.scfp.tmp
The origin for moment calculation is the CENTER OF MASS  = ( 0.310510,  0.025138  0.018929)

-------------
DIPOLE MOMENT
-------------
                                X             Y             Z
Electronic contribution:     42.27050       3.05769       2.23914
Nuclear contribution   :    -46.26597      -3.74560      -2.82036
                        -----------------------------------------
Total Dipole Moment    :     -3.99547      -0.68790      -0.58123
                        -----------------------------------------
Magnitude (a.u.)       :      4.09571
Magnitude (Debye)      :     10.41047



--------------------
Rotational spectrum 
--------------------
 
Rotational constants in cm-1:     0.019277     0.011133     0.010467 
Rotational constants in MHz :   577.924483   333.758001   313.802422 

 Dipole components along the rotational axes: 
x,y,z [a.u.] :     3.990939    -0.703797    -0.593225 
x,y,z [Debye]:    10.144162    -1.788910    -1.507858 

 

Timings for individual modules:

Sum of individual times         ...    68379.198 sec (=1139.653 min)
GTO integral calculation        ...       11.881 sec (=   0.198 min)   0.0 %
SCF iterations                  ...    17276.238 sec (= 287.937 min)  25.3 %
MDCI module                     ...    51091.079 sec (= 851.518 min)  74.7 %
                             ****ORCA TERMINATED NORMALLY****
TOTAL RUN TIME: 0 days 18 hours 59 minutes 41 seconds 669 msec
