
                                 *****************
                                 * O   R   C   A *
                                 *****************

           --- An Ab Initio, DFT and Semiempirical electronic structure package ---

                  #######################################################
                  #                        -***-                        #
                  #          Department of theory and spectroscopy      #
                  #               Directorship: Frank Neese             #
                  #        Max Planck Institute fuer Kohlenforschung    #
                  #                Kaiser Wilhelm Platz 1               #
                  #                 D-45470 Muelheim/Ruhr               #
                  #                      Germany                        #
                  #                                                     #
                  #                  All rights reserved                #
                  #                        -***-                        #
                  #######################################################


                         Program Version 4.1.2  - RELEASE  -


 With contributions from (in alphabetic order):
   Daniel Aravena         : Magnetic Properties
   Michael Atanasov       : Ab Initio Ligand Field Theory
   Alexander A. Auer      : GIAO ZORA
   Ute Becker             : Parallelization
   Giovanni Bistoni       : ED, Open-shell LED
   Martin Brehm           : Molecular dynamics
   Dmytro Bykov           : SCF Hessian
   Vijay G. Chilkuri      : MRCI spin determinant printing
   Dipayan Datta          : RHF DLPNO-CCSD density
   Achintya Kumar Dutta   : EOM-CC, STEOM-CC
   Dmitry Ganyushin       : Spin-Orbit,Spin-Spin,Magnetic field MRCI
   Miquel Garcia          : C-PCM Hessian
   Yang Guo               : DLPNO-NEVPT2, CIM, IAO-localization
   Andreas Hansen         : Spin unrestricted coupled pair/coupled cluster methods
   Benjamin Helmich-Paris : CASSCF linear response (MC-RPA)
   Lee Huntington         : MR-EOM, pCC
   Robert Izsak           : Overlap fitted RIJCOSX, COSX-SCS-MP3, EOM
   Christian Kollmar      : KDIIS, OOCD, Brueckner-CCSD(T), CCSD density
   Simone Kossmann        : Meta GGA functionals, TD-DFT gradient, OOMP2, MP2 Hessian
   Martin Krupicka        : AUTO-CI
   Lucas Lang             : DCDCAS
   Dagmar Lenk            : GEPOL surface, SMD
   Dimitrios Liakos       : Extrapolation schemes; parallel MDCI
   Dimitrios Manganas     : ROCIS; embedding schemes
   Dimitrios Pantazis     : SARC Basis sets
   Taras Petrenko         : DFT Hessian,TD-DFT gradient, ASA, ECA, R-Raman, ABS, FL, XAS/XES, NRVS
   Peter Pinski           : DLPNO-MP2, DLPNO-MP2 Gradient
   Christoph Reimann      : Effective Core Potentials
   Marius Retegan         : Local ZFS, SOC
   Christoph Riplinger    : Optimizer, TS searches, QM/MM, DLPNO-CCSD(T), (RO)-DLPNO pert. Triples
   Tobias Risthaus        : Range-separated hybrids, TD-DFT gradient, RPA, STAB
   Michael Roemelt        : Restricted open shell CIS
   Masaaki Saitow         : Open-shell DLPNO
   Barbara Sandhoefer     : DKH picture change effects
   Avijit Sen             : IP-ROCIS
   Kantharuban Sivalingam : CASSCF convergence, NEVPT2, FIC-MRCI
   Bernardo de Souza      : ESD, SOC TD-DFT
   Georgi Stoychev        : AutoAux, RI-MP2 NMR
   Willem Van den Heuvel  : Paramagnetic NMR
   Boris Wezisla          : Elementary symmetry handling
   Frank Wennmohs         : Technical directorship


 We gratefully acknowledge several colleagues who have allowed us to
 interface, adapt or use parts of their codes:
   Stefan Grimme, W. Hujo, H. Kruse,             : VdW corrections, initial TS optimization,
                  C. Bannwarth                     DFT functionals, gCP, sTDA/sTD-DF
   Ed Valeev                                     : LibInt (2-el integral package), F12 methods
   Garnet Chan, S. Sharma, J. Yang, R. Olivares  : DMRG
   Ulf Ekstrom                                   : XCFun DFT Library
   Mihaly Kallay                                 : mrcc  (arbitrary order and MRCC methods)
   Andreas Klamt, Michael Diedenhofen            : otool_cosmo (COSMO solvation model)
   Jiri Pittner, Ondrej Demel                    : Mk-CCSD
   Frank Weinhold                                : gennbo (NPA and NBO analysis)
   Christopher J. Cramer and Donald G. Truhlar   : smd solvation model
   Lars Goerigk                                  : TD-DFT with DH, B97 family of functionals
   V. Asgeirsson, H. Jonsson                     : NEB implementation
   FAccTs GmbH                                   : IRC, NEB, NEB-TS, Multilevel


 Your calculation uses the libint2 library for the computation of 2-el integrals
 For citations please refer to: http://libint.valeyev.net

 This ORCA versions uses:
   CBLAS   interface :  Fast vector & matrix operations
   LAPACKE interface :  Fast linear algebra routines
   SCALAPACK package :  Parallel linear algebra routines


----- Orbital basis set information -----
Your calculation utilizes the basis: aug-cc-pVTZ 
    H, B-Ne : Obtained from the ccRepo (grant-hill.group.shef.ac.uk/ccrepo) Feb. 2017
              R. A. Kendall, T. H. Dunning, Jr., R. J. Harrison, J. Chem. Phys. 96, 6796 (1992)
         He : Obtained from the ccRepo (grant-hill.group.shef.ac.uk/ccrepo) Feb. 2017
              D. E. Woon, T. H. Dunning, Jr., J. Chem. Phys. 100, 2975 (1994)
  Li-Be, Na : Obtained from the ccRepo (grant-hill.group.shef.ac.uk/ccrepo) Feb. 2017
              B. P. Prascher, D. E. Woon, K. A. Peterson, T. H. Dunning, Jr., A. K. Wilson, Theor. Chem. Acc. 128, 69 (2011)
         Mg : Obtained from the Peterson Research Group Website (tyr0.chem.wsu.edu/~kipeters) Feb. 2017
              B. P. Prascher, D. E. Woon, K. A. Peterson, T. H. Dunning, Jr., A. K. Wilson, Theor. Chem. Acc. 128, 69 (2011)
      Al-Ar : Obtained from the ccRepo (grant-hill.group.shef.ac.uk/ccrepo) Feb. 2017
              D. E. Woon, T. H. Dunning, Jr., J. Chem. Phys. 98, 1358 (1993)
      Sc-Zn : Obtained from the ccRepo (grant-hill.group.shef.ac.uk/ccrepo) Feb. 2017
              N. B. Balabanov, K. A. Peterson, J. Chem. Phys. 123, 064107 (2005)
              N. B. Balabanov, K. A. Peterson, J. Chem. Phys. 125, 074110 (2006)
      Ga-Kr : Obtained from the ccRepo (grant-hill.group.shef.ac.uk/ccrepo) Feb. 2017
              A. K. Wilson, D. E. Woon, K. A. Peterson, T. H. Dunning, Jr., J. Chem. Phys. 110, 7667 (1999)
     Ag, Au : Obtained from the Peterson Research Group Website (tyr0.chem.wsu.edu/~kipeters) Feb. 2017
              K. A. Peterson, C. Puzzarini, Theor. Chem. Acc. 114, 283 (2005)

----- AuxJ basis set information -----
Your calculation utilizes the AutoAux generation procedure.
  G. L. Stoychev, A. A. Auer, F. Neese, J. Chem. Theory Comput. 13, 554 (2017)

----- AuxC basis set information -----
Your calculation utilizes the auxiliary basis: aug-cc-pVTZ/C 
  H-He, B-F, Al-Ar, Ga-Kr : Obtained from the EMSL Basis Set Exchange (bse.pnl.gov) Feb. 2017
                            F. Weigend, A. Kohn, C. Hattig, J. Chem. Phys. 116, 3175 (2002)
                   Be, Mg : Obtained from the TURBOMOLE 7.0 basis set library
                            C. Haettig, Phys. Chem. Chem. Phys. 7, 59 (2005)
                       Ne : Obtained from the EMSL Basis Set Exchange (bse.pnl.gov) Feb. 2017
                            C. Haettig, Phys. Chem. Chem. Phys. 7, 59 (2005)
                            F. Weigend, A. Kohn, C. Hattig, J. Chem. Phys. 116, 3175 (2002)
                    Sc-Zn : Obtained from the EMSL Basis Set Exchange (bse.pnl.gov) Feb. 2017
                            J. G. Hill, J. A. Platts, J. Chem. Phys. 128, 044104 (2008)

----- AuxJK basis set information -----
Your calculation utilizes the AutoAux generation procedure.
  G. L. Stoychev, A. A. Auer, F. Neese, J. Chem. Theory Comput. 13, 554 (2017)

================================================================================
                                        WARNINGS
                       Please study these warnings very carefully!
================================================================================


WARNING: your system is open-shell and RHF/RKS was chosen
  ===> : WILL SWITCH to UHF/UKS


WARNING: MDCI localization with Augmented Hessian Foster-Boys
  ===> : Switching off randomization!

WARNING: Post HF methods need fully converged wavefunctions
  ===> : Setting SCFConvForced true
         You can overwrite this default with %scf ConvForced false 


INFO   : the flag for use of LIBINT has been found!

================================================================================
                                       INPUT FILE
================================================================================
NAME = simple-grid-165-260-b3lyp_d3bj-631gd-gas-singlepoint-DLPNO_CCSD_T1-NormalPNO-augtz-gas.inp
|  1> ! aug-cc-pVTZ aug-cc-pVTZ/C DLPNO-CCSD(T1) TightSCF NormalPNO UNO MiniPrint AutoAux
|  2> %pal nproc 10 end
|  3> %maxcore 20000
|  4> %mdci
|  5>      density none
|  6> end
|  7> 
|  8> * xyz 0 6
|  9>  O     -0.35366800     -0.12386000     -0.44965000
| 10>  C     -1.26792000     -1.11869600     -0.29761200
| 11>  C     -2.50079900     -0.48632700      0.59828100
| 12>  C     -2.76270300      0.77043500     -0.05362800
| 13>  C     -3.74757400      0.86187700     -1.15882800
| 14> Fe      1.44099800      0.16914700     -0.07478400
| 15> Cl      1.63114200      2.28011500     -0.73249900
| 16>  C     -2.00540500      1.96390600      0.27266600
| 17> Cl      2.61776400     -1.32519600     -1.18017400
| 18> Cl      1.67528900     -0.00057300      2.12837100
| 19>  H     -3.33176600     -1.18016600      0.43856700
| 20>  H     -2.38567000      2.87993600     -0.18108400
| 21>  H     -1.78807700      2.08414900      1.33598400
| 22>  H     -1.01013500      1.71685400     -0.18008000
| 23>  H     -4.57344900      1.49810900     -0.80340500
| 24>  H     -3.31682400      1.38852000     -2.02002600
| 25>  H     -4.15546200     -0.10129500     -1.46421000
| 26>  C     -2.11486100     -0.38326400      2.08091100
| 27>  H     -2.82687800      0.25174400      2.61795600
| 28>  H     -2.14161300     -1.37204300      2.54147600
| 29>  H     -1.10896200      0.02239900      2.21060200
| 30>  C     -0.72481800     -2.32905800      0.48166100
| 31>  H     -1.50785000     -3.06871200      0.67758400
| 32>  H      0.04580800     -2.79121200     -0.14365900
| 33>  H     -0.25571900     -2.03170600      1.41945300
| 34>  C     -1.77275800     -1.58170200     -1.67350900
| 35>  H     -0.94439400     -2.09483900     -2.16991900
| 36>  H     -2.61524100     -2.27785200     -1.59629900
| 37>  H     -2.05064800     -0.73774900     -2.30787300
| 38> *
| 39> 
| 40> 
| 41>                          ****END OF INPUT****
================================================================================

                       ****************************
                       * Single Point Calculation *
                       ****************************

---------------------------------
CARTESIAN COORDINATES (ANGSTROEM)
---------------------------------
  O     -0.353668   -0.123860   -0.449650
  C     -1.267920   -1.118696   -0.297612
  C     -2.500799   -0.486327    0.598281
  C     -2.762703    0.770435   -0.053628
  C     -3.747574    0.861877   -1.158828
  Fe     1.440998    0.169147   -0.074784
  Cl     1.631142    2.280115   -0.732499
  C     -2.005405    1.963906    0.272666
  Cl     2.617764   -1.325196   -1.180174
  Cl     1.675289   -0.000573    2.128371
  H     -3.331766   -1.180166    0.438567
  H     -2.385670    2.879936   -0.181084
  H     -1.788077    2.084149    1.335984
  H     -1.010135    1.716854   -0.180080
  H     -4.573449    1.498109   -0.803405
  H     -3.316824    1.388520   -2.020026
  H     -4.155462   -0.101295   -1.464210
  C     -2.114861   -0.383264    2.080911
  H     -2.826878    0.251744    2.617956
  H     -2.141613   -1.372043    2.541476
  H     -1.108962    0.022399    2.210602
  C     -0.724818   -2.329058    0.481661
  H     -1.507850   -3.068712    0.677584
  H      0.045808   -2.791212   -0.143659
  H     -0.255719   -2.031706    1.419453
  C     -1.772758   -1.581702   -1.673509
  H     -0.944394   -2.094839   -2.169919
  H     -2.615241   -2.277852   -1.596299
  H     -2.050648   -0.737749   -2.307873

----------------------------
CARTESIAN COORDINATES (A.U.)
----------------------------
  NO LB      ZA    FRAG     MASS         X           Y           Z
   0 O     8.0000    0    15.999   -0.668336   -0.234061   -0.849715
   1 C     6.0000    0    12.011   -2.396022   -2.114029   -0.562405
   2 C     6.0000    0    12.011   -4.725825   -0.919025    1.130587
   3 C     6.0000    0    12.011   -5.220752    1.455911   -0.101342
   4 C     6.0000    0    12.011   -7.081889    1.628711   -2.189868
   5 Fe   26.0000    0    55.850    2.723092    0.319642   -0.141321
   6 Cl   17.0000    0    35.453    3.082412    4.308793   -1.384223
   7 C     6.0000    0    12.011   -3.789666    3.711244    0.515264
   8 Cl   17.0000    0    35.453    4.946857   -2.504258   -2.230206
   9 Cl   17.0000    0    35.453    3.165837   -0.001083    4.022038
  10 H     1.0000    0     1.008   -6.296125   -2.230191    0.828772
  11 H     1.0000    0     1.008   -4.508263    5.442290   -0.342199
  12 H     1.0000    0     1.008   -3.378976    3.938471    2.524644
  13 H     1.0000    0     1.008   -1.908879    3.244384   -0.340302
  14 H     1.0000    0     1.008   -8.642566    2.831016   -1.518215
  15 H     1.0000    0     1.008   -6.267889    2.623923   -3.817296
  16 H     1.0000    0     1.008   -7.852685   -0.191420   -2.766956
  17 C     6.0000    0    12.011   -3.996508   -0.724264    3.932352
  18 H     1.0000    0     1.008   -5.342025    0.475727    4.947220
  19 H     1.0000    0     1.008   -4.047062   -2.592786    4.802694
  20 H     1.0000    0     1.008   -2.095634    0.042328    4.177432
  21 C     6.0000    0    12.011   -1.369708   -4.401282    0.910207
  22 H     1.0000    0     1.008   -2.849424   -5.799025    1.280448
  23 H     1.0000    0     1.008    0.086565   -5.274626   -0.271476
  24 H     1.0000    0     1.008   -0.483239   -3.839368    2.682377
  25 C     6.0000    0    12.011   -3.350027   -2.988984   -3.162474
  26 H     1.0000    0     1.008   -1.784646   -3.958672   -4.100553
  27 H     1.0000    0     1.008   -4.942089   -4.304516   -3.016568
  28 H     1.0000    0     1.008   -3.875163   -1.394144   -4.361248



           ************************************************************
           *        Program running with 10 parallel MPI-processes    *
           *              working on a common directory               *
           ************************************************************


           ************************************************************
           *        Program running with 10 parallel MPI-processes    *
           *              working on a common directory               *
           ************************************************************

Diagonalization of the overlap matrix:
Smallest eigenvalue                        ... 6.053e-07
Time for diagonalization                   ...    0.401 sec
Threshold for overlap eigenvalues          ... 1.000e-08
Number of eigenvalues below threshold      ... 0
Time for construction of square roots      ...    0.330 sec
Total time needed                          ...    0.736 sec

-------------------
DFT GRID GENERATION
-------------------

General Integration Accuracy     IntAcc      ...  4.340
Radial Grid Type                 RadialGrid  ... Gauss-Chebyshev
Angular Grid (max. acc.)         AngularGrid ... Lebedev-110
Angular grid pruning method      GridPruning ... 3 (G Style)
Weight generation scheme         WeightScheme... Becke
Basis function cutoff            BFCut       ...    1.0000e-11
Integration weight cutoff        WCut        ...    1.0000e-14
Grids for H and He will be reduced by one unit

# of grid points (after initial pruning)     ...  36112 (   0.0 sec)
# of grid points (after weights+screening)   ...  32271 (   0.1 sec)
nearest neighbour list constructed           ...    0.0 sec
Grid point re-assignment to atoms done       ...    0.0 sec
Grid point division into batches done        ...    0.0 sec
Reduced shell lists constructed in    0.3 sec

Total number of grid points                  ...    32271
Total number of batches                      ...      521
Average number of points per batch           ...       61
Average number of grid points per atom       ...     1113
Average number of shells per batch           ...   294.65 (85.90%)
Average number of basis functions per batch  ...   876.61 (85.52%)
Average number of large shells per batch     ...   243.28 (82.57%)
Average number of large basis fcns per batch ...   723.17 (82.50%)
Maximum spatial batch extension              ...   3.38,  3.44,  3.64 au
Average spatial batch extension              ...   0.17,  0.17,  0.17 au

Time for grid setup =    0.412 sec

Loading Hartree-Fock densities                     ... done
Calculating cut-offs                               ... done
Setting up the integral package                    ... done
Initializing the effective Hamiltonian             ... done
Starting the Coulomb interaction                   ... done (   1.1 sec)
Reading the grid                                   ... done
Mapping shells                                     ... done
Starting the XC term evaluation                    ... done (   0.8 sec)
Transforming the Hamiltonian                       ... done (   0.2 sec)
Diagonalizing the Hamiltonian                      ... done (   0.3 sec)
Back transforming the eigenvectors                 ... done (   0.1 sec)
Now organizing SCF variables                       ... done
--------------
SCF ITERATIONS
--------------
ITER       Energy         Delta-E        Max-DP      RMS-DP      [F,P]     Damp
               ***  Starting incremental Fock matrix formation  ***
  0  -3027.5659035883   0.000000000000 0.57114699  0.00130712  0.2997515 0.7000
  1  -3027.8164118023  -0.250508214010 0.40961106  0.00100611  0.1719127 0.7000
                               ***Turning on DIIS***
  2  -3027.9838107094  -0.167398907054 0.28036973  0.00073197  0.1096145 0.7000
  3  -3029.6902298853  -1.706419175882 0.59795783  0.00179694  0.0824839 0.0000
  4  -3028.2929305327   1.397299352560 0.04971115  0.00023402  0.0183836 0.0000
  5  -3028.4115017825  -0.118571249785 0.04063704  0.00017567  0.0113525 0.0000
  6  -3028.4369252366  -0.025423454105 0.02110761  0.00007251  0.0051923 0.0000
  7  -3028.4526867548  -0.015761518235 0.00925452  0.00003435  0.0032398 0.0000
  8  -3028.4502591194   0.002427635469 0.00597604  0.00001988  0.0013894 0.0000
  9  -3028.4405511333   0.009707986042 0.00221655  0.00001193  0.0006744 0.0000
 10  -3028.4305634946   0.009987638718 0.00077273  0.00000347  0.0003823 0.0000
 11  -3028.4358508693  -0.005287374709 0.00042568  0.00000199  0.0001112 0.0000
 12  -3028.4327263976   0.003124471740 0.00043535  0.00000164  0.0000186 0.0000
 13  -3028.4329279655  -0.000201567904 0.00144703  0.00000293  0.0000082 0.0000
 14  -3028.4329908218  -0.000062856347 0.00067779  0.00000213  0.0000038 0.0000
 15  -3028.4329492686   0.000041553199 0.00238562  0.00000430  0.0000020 0.0000
 16  -3028.4329892836  -0.000040014990 0.00083362  0.00000259  0.0000022 0.0000
                            ***DIIS convergence achieved***

               *****************************************************
               *                     SUCCESS                       *
               *           SCF CONVERGED AFTER  17 CYCLES          *
               *****************************************************

Total Energy       :        -3028.43299812 Eh          -82407.85141 eV
  Last Energy change         ...   -8.8329e-06  Tolerance :   1.0000e-08
  Last MAX-Density change    ...    1.6838e-03  Tolerance :   1.0000e-07
             **** THE GBW FILE WAS UPDATED (simple-grid-165-260-b3lyp_d3bj-631gd-gas-singlepoint-DLPNO_CCSD_T1-NormalPNO-augtz-gas.gbw) ****
             **** DENSITY FILE WAS UPDATED (simple-grid-165-260-b3lyp_d3bj-631gd-gas-singlepoint-DLPNO_CCSD_T1-NormalPNO-augtz-gas.scfp.tmp) ****
             **** ENERGY FILE WAS UPDATED (simple-grid-165-260-b3lyp_d3bj-631gd-gas-singlepoint-DLPNO_CCSD_T1-NormalPNO-augtz-gas.en.tmp) ****
----------------------
UHF SPIN CONTAMINATION
----------------------

Expectation value of <S**2>     :     8.764421
Ideal value S*(S+1) for S=2.5   :     8.750000
Deviation                       :     0.014421

----------------
ORBITAL ENERGIES
----------------
                 SPIN UP ORBITALS
  NO   OCC          E(Eh)            E(eV) 
   0   1.0000    -261.538753     -7116.8313 
   1   1.0000    -104.767778     -2850.8762 
   2   1.0000    -104.767551     -2850.8700 
   3   1.0000    -104.765209     -2850.8063 
   4   1.0000     -32.206686      -876.3885 
   5   1.0000     -27.682531      -753.2800 
   6   1.0000     -27.682444      -753.2776 
   7   1.0000     -27.682153      -753.2697 
   8   1.0000     -20.531581      -558.6927 
   9   1.0000     -11.406027      -310.3738 
  10   1.0000     -11.341052      -308.6057 
  11   1.0000     -11.307732      -307.6990 
  12   1.0000     -11.291344      -307.2531 
  13   1.0000     -11.277449      -306.8750 
  14   1.0000     -11.255204      -306.2697 
  15   1.0000     -11.241536      -305.8977 
  16   1.0000     -11.231535      -305.6256 
  17   1.0000     -10.494348      -285.5657 
  18   1.0000     -10.494057      -285.5578 
  19   1.0000     -10.491781      -285.4959 
  20   1.0000      -7.961234      -216.6362 
  21   1.0000      -7.960897      -216.6270 
  22   1.0000      -7.960392      -216.6133 
  23   1.0000      -7.960329      -216.6116 
  24   1.0000      -7.960139      -216.6064 
  25   1.0000      -7.960042      -216.6038 
  26   1.0000      -7.958586      -216.5641 
  27   1.0000      -7.957890      -216.5452 
  28   1.0000      -7.957810      -216.5430 
  29   1.0000      -4.562214      -124.1441 
  30   1.0000      -3.174686       -86.3876 
  31   1.0000      -3.174428       -86.3806 
  32   1.0000      -3.173853       -86.3649 
  33   1.0000      -1.366297       -37.1788 
  34   1.0000      -1.204745       -32.7828 
  35   1.0000      -1.092799       -29.7366 
  36   1.0000      -1.046638       -28.4805 
  37   1.0000      -1.038577       -28.2611 
  38   1.0000      -1.033420       -28.1208 
  39   1.0000      -1.031599       -28.0712 
  40   1.0000      -1.020804       -27.7775 
  41   1.0000      -0.966443       -26.2983 
  42   1.0000      -0.934546       -25.4303 
  43   1.0000      -0.903742       -24.5921 
  44   1.0000      -0.891899       -24.2698 
  45   1.0000      -0.891776       -24.2665 
  46   1.0000      -0.883744       -24.0479 
  47   1.0000      -0.883526       -24.0420 
  48   1.0000      -0.805394       -21.9159 
  49   1.0000      -0.767460       -20.8837 
  50   1.0000      -0.716199       -19.4888 
  51   1.0000      -0.698960       -19.0197 
  52   1.0000      -0.680141       -18.5076 
  53   1.0000      -0.648246       -17.6397 
  54   1.0000      -0.645616       -17.5681 
  55   1.0000      -0.631350       -17.1799 
  56   1.0000      -0.611803       -16.6480 
  57   1.0000      -0.601745       -16.3743 
  58   1.0000      -0.591001       -16.0819 
  59   1.0000      -0.585260       -15.9257 
  60   1.0000      -0.570206       -15.5161 
  61   1.0000      -0.562228       -15.2990 
  62   1.0000      -0.554227       -15.0813 
  63   1.0000      -0.536900       -14.6098 
  64   1.0000      -0.527524       -14.3547 
  65   1.0000      -0.517045       -14.0695 
  66   1.0000      -0.499776       -13.5996 
  67   1.0000      -0.463776       -12.6200 
  68   1.0000      -0.458936       -12.4883 
  69   1.0000      -0.439373       -11.9559 
  70   1.0000      -0.430140       -11.7047 
  71   1.0000      -0.418700       -11.3934 
  72   1.0000      -0.414075       -11.2675 
  73   1.0000      -0.410031       -11.1575 
  74   1.0000      -0.406972       -11.0743 
  75   1.0000      -0.405693       -11.0395 
  76   1.0000      -0.404826       -11.0159 
  77   0.0000      -0.003443        -0.0937 
  78   0.0000       0.001601         0.0436 
  79   0.0000       0.017207         0.4682 
  80   0.0000       0.018117         0.4930 
  81   0.0000       0.027726         0.7545 
  82   0.0000       0.037569         1.0223 
  83   0.0000       0.038032         1.0349 
  84   0.0000       0.040998         1.1156 
  85   0.0000       0.044912         1.2221 
  86   0.0000       0.048785         1.3275 
  87   0.0000       0.057945         1.5768 
  88   0.0000       0.058393         1.5890 
  89   0.0000       0.060248         1.6394 
  90   0.0000       0.061744         1.6801 
  91   0.0000       0.063939         1.7399 
  92   0.0000       0.071521         1.9462 
  93   0.0000       0.074910         2.0384 
  94   0.0000       0.077072         2.0972 
  95   0.0000       0.088747         2.4149 
  96   0.0000       0.090361         2.4588 
  97   0.0000       0.092687         2.5221 
  98   0.0000       0.094583         2.5737 
  99   0.0000       0.096786         2.6337 
 100   0.0000       0.099171         2.6986 
 101   0.0000       0.107167         2.9162 
 102   0.0000       0.112311         3.0561 
 103   0.0000       0.117004         3.1838 
 104   0.0000       0.120430         3.2771 
 105   0.0000       0.122684         3.3384 
 106   0.0000       0.126136         3.4323 
 107   0.0000       0.131805         3.5866 
 108   0.0000       0.132566         3.6073 
 109   0.0000       0.133718         3.6387 
 110   0.0000       0.136133         3.7044 
 111   0.0000       0.138825         3.7776 
 112   0.0000       0.145794         3.9673 
 113   0.0000       0.150137         4.0854 
 114   0.0000       0.154365         4.2005 
 115   0.0000       0.155748         4.2381 
 116   0.0000       0.157421         4.2836 
 117   0.0000       0.160750         4.3742 
 118   0.0000       0.162270         4.4156 
 119   0.0000       0.164519         4.4768 
 120   0.0000       0.170089         4.6284 
 121   0.0000       0.172682         4.6989 
 122   0.0000       0.174575         4.7504 
 123   0.0000       0.175906         4.7867 
 124   0.0000       0.178340         4.8529 
 125   0.0000       0.185308         5.0425 
 126   0.0000       0.187516         5.1026 
 127   0.0000       0.189440         5.1549 
 128   0.0000       0.196821         5.3558 
 129   0.0000       0.203812         5.5460 
 130   0.0000       0.205222         5.5844 
 131   0.0000       0.209666         5.7053 
 132   0.0000       0.212194         5.7741 
 133   0.0000       0.217265         5.9121 
 134   0.0000       0.217632         5.9221 
 135   0.0000       0.222406         6.0520 
 136   0.0000       0.224493         6.1088 
 137   0.0000       0.226853         6.1730 
 138   0.0000       0.228715         6.2236 
 139   0.0000       0.231353         6.2954 
 140   0.0000       0.234876         6.3913 
 141   0.0000       0.238520         6.4905 
 142   0.0000       0.242058         6.5867 
 143   0.0000       0.242666         6.6033 
 144   0.0000       0.249866         6.7992 
 145   0.0000       0.254117         6.9149 
 146   0.0000       0.254572         6.9273 
 147   0.0000       0.258679         7.0390 
 148   0.0000       0.259944         7.0734 
 149   0.0000       0.270330         7.3561 
 150   0.0000       0.273089         7.4311 
 151   0.0000       0.273732         7.4486 
 152   0.0000       0.278446         7.5769 
 153   0.0000       0.282354         7.6832 
 154   0.0000       0.286729         7.8023 
 155   0.0000       0.291425         7.9301 
 156   0.0000       0.293878         7.9968 
 157   0.0000       0.298582         8.1248 
 158   0.0000       0.300718         8.1829 
 159   0.0000       0.307597         8.3701 
 160   0.0000       0.309835         8.4310 
 161   0.0000       0.312199         8.4954 
 162   0.0000       0.314918         8.5694 
 163   0.0000       0.322079         8.7642 
 164   0.0000       0.326057         8.8725 
 165   0.0000       0.332529         9.0486 
 166   0.0000       0.336576         9.1587 
 167   0.0000       0.337640         9.1876 
 168   0.0000       0.338243         9.2041 
 169   0.0000       0.339601         9.2410 
 170   0.0000       0.351753         9.5717 
 171   0.0000       0.352478         9.5914 
 172   0.0000       0.353256         9.6126 
 173   0.0000       0.356487         9.7005 
 174   0.0000       0.360775         9.8172 
 175   0.0000       0.361799         9.8451 
 176   0.0000       0.367449         9.9988 
 177   0.0000       0.370827        10.0907 
 178   0.0000       0.372687        10.1413 
 179   0.0000       0.379447        10.3253 
 180   0.0000       0.381465        10.3802 
 181   0.0000       0.384870        10.4728 
 182   0.0000       0.385842        10.4993 
 183   0.0000       0.390121        10.6157 
 184   0.0000       0.390791        10.6340 
 185   0.0000       0.397653        10.8207 
 186   0.0000       0.399758        10.8780 
 187   0.0000       0.401369        10.9218 
 188   0.0000       0.403263        10.9733 
 189   0.0000       0.408669        11.1205 
 190   0.0000       0.413112        11.2413 
 191   0.0000       0.416126        11.3234 
 192   0.0000       0.419185        11.4066 
 193   0.0000       0.426450        11.6043 
 194   0.0000       0.429217        11.6796 
 195   0.0000       0.432408        11.7664 
 196   0.0000       0.438170        11.9232 
 197   0.0000       0.443210        12.0604 
 198   0.0000       0.445790        12.1306 
 199   0.0000       0.446444        12.1484 
 200   0.0000       0.451006        12.2725 
 201   0.0000       0.453043        12.3279 
 202   0.0000       0.455854        12.4044 
 203   0.0000       0.462976        12.5982 
 204   0.0000       0.465963        12.6795 
 205   0.0000       0.470244        12.7960 
 206   0.0000       0.471749        12.8369 
 207   0.0000       0.476074        12.9546 
 208   0.0000       0.477725        12.9996 
 209   0.0000       0.481046        13.0899 
 210   0.0000       0.482832        13.1385 
 211   0.0000       0.486994        13.2518 
 212   0.0000       0.492437        13.3999 
 213   0.0000       0.496122        13.5002 
 214   0.0000       0.496669        13.5151 
 215   0.0000       0.498291        13.5592 
 216   0.0000       0.501058        13.6345 
 217   0.0000       0.506154        13.7731 
 218   0.0000       0.510008        13.8780 
 219   0.0000       0.512713        13.9516 
 220   0.0000       0.517867        14.0919 
 221   0.0000       0.520568        14.1654 
 222   0.0000       0.523228        14.2377 
 223   0.0000       0.525839        14.3088 
 224   0.0000       0.527028        14.3412 
 225   0.0000       0.531208        14.4549 
 226   0.0000       0.533177        14.5085 
 227   0.0000       0.539407        14.6780 
 228   0.0000       0.543553        14.7908 
 229   0.0000       0.548077        14.9139 
 230   0.0000       0.548818        14.9341 
 231   0.0000       0.551468        15.0062 
 232   0.0000       0.556062        15.1312 
 233   0.0000       0.559199        15.2166 
 234   0.0000       0.565585        15.3904 
 235   0.0000       0.567112        15.4319 
 236   0.0000       0.571789        15.5592 
 237   0.0000       0.576653        15.6915 
 238   0.0000       0.580839        15.8054 
 239   0.0000       0.581360        15.8196 
 240   0.0000       0.588737        16.0204 
 241   0.0000       0.590766        16.0756 
 242   0.0000       0.592595        16.1253 
 243   0.0000       0.599522        16.3138 
 244   0.0000       0.600959        16.3529 
 245   0.0000       0.602581        16.3971 
 246   0.0000       0.608905        16.5691 
 247   0.0000       0.610616        16.6157 
 248   0.0000       0.614500        16.7214 
 249   0.0000       0.619280        16.8515 
 250   0.0000       0.623173        16.9574 
 251   0.0000       0.627023        17.0622 
 252   0.0000       0.629274        17.1234 
 253   0.0000       0.631320        17.1791 
 254   0.0000       0.633758        17.2454 
 255   0.0000       0.643240        17.5035 
 256   0.0000       0.653514        17.7830 
 257   0.0000       0.655052        17.8249 
 258   0.0000       0.659862        17.9558 
 259   0.0000       0.661905        18.0113 
 260   0.0000       0.663463        18.0537 
 261   0.0000       0.672805        18.3080 
 262   0.0000       0.673698        18.3323 
 263   0.0000       0.681573        18.5465 
 264   0.0000       0.684030        18.6134 
 265   0.0000       0.687463        18.7068 
 266   0.0000       0.692981        18.8570 
 267   0.0000       0.695246        18.9186 
 268   0.0000       0.698930        19.0189 
 269   0.0000       0.699868        19.0444 
 270   0.0000       0.705101        19.1868 
 271   0.0000       0.713370        19.4118 
 272   0.0000       0.714769        19.4499 
 273   0.0000       0.722203        19.6521 
 274   0.0000       0.727827        19.8052 
 275   0.0000       0.732682        19.9373 
 276   0.0000       0.735577        20.0161 
 277   0.0000       0.739263        20.1164 
 278   0.0000       0.741528        20.1780 
 279   0.0000       0.750875        20.4323 
 280   0.0000       0.751955        20.4617 
 281   0.0000       0.763975        20.7888 
 282   0.0000       0.770733        20.9727 
 283   0.0000       0.771609        20.9966 
 284   0.0000       0.777585        21.1592 
 285   0.0000       0.780318        21.2335 
 286   0.0000       0.786726        21.4079 
 287   0.0000       0.787104        21.4182 
 288   0.0000       0.793895        21.6030 
 289   0.0000       0.807512        21.9735 
 290   0.0000       0.811160        22.0728 
 291   0.0000       0.818114        22.2620 
 292   0.0000       0.823591        22.4110 
 293   0.0000       0.826724        22.4963 
 294   0.0000       0.831698        22.6317 
 295   0.0000       0.836592        22.7648 
 296   0.0000       0.842377        22.9222 
 297   0.0000       0.852618        23.2009 
 298   0.0000       0.855689        23.2845 
 299   0.0000       0.856282        23.3006 
 300   0.0000       0.863646        23.5010 
 301   0.0000       0.868522        23.6337 
 302   0.0000       0.870257        23.6809 
 303   0.0000       0.872727        23.7481 
 304   0.0000       0.883869        24.0513 
 305   0.0000       0.885711        24.1014 
 306   0.0000       0.894371        24.3371 
 307   0.0000       0.897733        24.4285 
 308   0.0000       0.898919        24.4608 
 309   0.0000       0.904891        24.6233 
 310   0.0000       0.911881        24.8135 
 311   0.0000       0.915615        24.9151 
 312   0.0000       0.916653        24.9434 
 313   0.0000       0.918390        24.9907 
 314   0.0000       0.924890        25.1675 
 315   0.0000       0.932785        25.3824 
 316   0.0000       0.936681        25.4884 
 317   0.0000       0.938719        25.5438 
 318   0.0000       0.944544        25.7024 
 319   0.0000       0.948367        25.8064 
 320   0.0000       0.953926        25.9577 
 321   0.0000       0.956556        26.0292 
 322   0.0000       0.958522        26.0827 
 323   0.0000       0.962914        26.2022 
 324   0.0000       0.966163        26.2906 
 325   0.0000       0.968629        26.3577 
 326   0.0000       0.974122        26.5072 
 327   0.0000       0.978204        26.6183 
 328   0.0000       0.982136        26.7253 
 329   0.0000       0.984521        26.7902 
 330   0.0000       0.989296        26.9201 
 331   0.0000       0.995505        27.0891 
 332   0.0000       0.997780        27.1510 
 333   0.0000       0.999479        27.1972 
 334   0.0000       1.001746        27.2589 
 335   0.0000       1.004906        27.3449 
 336   0.0000       1.006958        27.4007 
 337   0.0000       1.016031        27.6476 
 338   0.0000       1.019000        27.7284 
 339   0.0000       1.021288        27.7907 
 340   0.0000       1.023676        27.8556 
 341   0.0000       1.030279        28.0353 
 342   0.0000       1.033562        28.1247 
 343   0.0000       1.038826        28.2679 
 344   0.0000       1.043259        28.3885 
 345   0.0000       1.045343        28.4452 
 346   0.0000       1.049468        28.5575 
 347   0.0000       1.050677        28.5904 
 348   0.0000       1.053428        28.6652 
 349   0.0000       1.057596        28.7787 
 350   0.0000       1.063905        28.9503 
 351   0.0000       1.070268        29.1235 
 352   0.0000       1.072343        29.1799 
 353   0.0000       1.074094        29.2276 
 354   0.0000       1.076135        29.2831 
 355   0.0000       1.082620        29.4596 
 356   0.0000       1.087196        29.5841 
 357   0.0000       1.094366        29.7792 
 358   0.0000       1.097884        29.8750 
 359   0.0000       1.100323        29.9413 
 360   0.0000       1.103149        30.0182 
 361   0.0000       1.106917        30.1208 
 362   0.0000       1.113606        30.3028 
 363   0.0000       1.116371        30.3780 
 364   0.0000       1.119911        30.4743 
 365   0.0000       1.126310        30.6485 
 366   0.0000       1.132027        30.8040 
 367   0.0000       1.132940        30.8289 
 368   0.0000       1.137621        30.9562 
 369   0.0000       1.138828        30.9891 
 370   0.0000       1.143350        31.1121 
 371   0.0000       1.144489        31.1431 
 372   0.0000       1.152788        31.3690 
 373   0.0000       1.155355        31.4388 
 374   0.0000       1.155866        31.4527 
 375   0.0000       1.162785        31.6410 
 376   0.0000       1.167400        31.7666 
 377   0.0000       1.169021        31.8107 
 378   0.0000       1.182805        32.1858 
 379   0.0000       1.184724        32.2380 
 380   0.0000       1.191055        32.4103 
 381   0.0000       1.199596        32.6427 
 382   0.0000       1.202710        32.7274 
 383   0.0000       1.209053        32.9000 
 384   0.0000       1.210865        32.9493 
 385   0.0000       1.214287        33.0424 
 386   0.0000       1.216394        33.0998 
 387   0.0000       1.223635        33.2968 
 388   0.0000       1.226482        33.3743 
 389   0.0000       1.231483        33.5104 
 390   0.0000       1.233950        33.5775 
 391   0.0000       1.238831        33.7103 
 392   0.0000       1.248128        33.9633 
 393   0.0000       1.249782        34.0083 
 394   0.0000       1.252475        34.0816 
 395   0.0000       1.259278        34.2667 
 396   0.0000       1.263727        34.3878 
 397   0.0000       1.270827        34.5810 
 398   0.0000       1.275939        34.7201 
 399   0.0000       1.277740        34.7691 
 400   0.0000       1.281675        34.8761 
 401   0.0000       1.290049        35.1040 
 402   0.0000       1.292437        35.1690 
 403   0.0000       1.299570        35.3631 
 404   0.0000       1.301423        35.4135 
 405   0.0000       1.304615        35.5004 
 406   0.0000       1.315764        35.8038 
 407   0.0000       1.318794        35.8862 
 408   0.0000       1.325426        36.0667 
 409   0.0000       1.327611        36.1261 
 410   0.0000       1.332477        36.2585 
 411   0.0000       1.334969        36.3264 
 412   0.0000       1.340339        36.4725 
 413   0.0000       1.343332        36.5539 
 414   0.0000       1.354727        36.8640 
 415   0.0000       1.357429        36.9375 
 416   0.0000       1.362115        37.0650 
 417   0.0000       1.371745        37.3271 
 418   0.0000       1.374566        37.4038 
 419   0.0000       1.378925        37.5225 
 420   0.0000       1.390135        37.8275 
 421   0.0000       1.393575        37.9211 
 422   0.0000       1.396652        38.0048 
 423   0.0000       1.408070        38.3155 
 424   0.0000       1.408801        38.3354 
 425   0.0000       1.416902        38.5559 
 426   0.0000       1.420794        38.6618 
 427   0.0000       1.428814        38.8800 
 428   0.0000       1.436686        39.0942 
 429   0.0000       1.438039        39.1310 
 430   0.0000       1.443632        39.2832 
 431   0.0000       1.452606        39.5274 
 432   0.0000       1.454442        39.5774 
 433   0.0000       1.460997        39.7557 
 434   0.0000       1.465177        39.8695 
 435   0.0000       1.470519        40.0149 
 436   0.0000       1.476583        40.1799 
 437   0.0000       1.483593        40.3706 
 438   0.0000       1.484750        40.4021 
 439   0.0000       1.487344        40.4727 
 440   0.0000       1.498353        40.7722 
 441   0.0000       1.503995        40.9258 
 442   0.0000       1.508772        41.0558 
 443   0.0000       1.515894        41.2496 
 444   0.0000       1.519506        41.3479 
 445   0.0000       1.523509        41.4568 
 446   0.0000       1.528456        41.5914 
 447   0.0000       1.536823        41.8191 
 448   0.0000       1.542238        41.9664 
 449   0.0000       1.548268        42.1305 
 450   0.0000       1.549463        42.1630 
 451   0.0000       1.555722        42.3333 
 452   0.0000       1.556952        42.3668 
 453   0.0000       1.567356        42.6499 
 454   0.0000       1.569424        42.7062 
 455   0.0000       1.571229        42.7553 
 456   0.0000       1.583597        43.0919 
 457   0.0000       1.589851        43.2620 
 458   0.0000       1.594287        43.3828 
 459   0.0000       1.602369        43.6027 
 460   0.0000       1.603080        43.6220 
 461   0.0000       1.605171        43.6789 
 462   0.0000       1.612487        43.8780 
 463   0.0000       1.622570        44.1524 
 464   0.0000       1.624396        44.2021 
 465   0.0000       1.628607        44.3167 
 466   0.0000       1.632616        44.4257 
 467   0.0000       1.635472        44.5035 
 468   0.0000       1.646397        44.8007 
 469   0.0000       1.651895        44.9503 
 470   0.0000       1.656999        45.0892 
 471   0.0000       1.660197        45.1763 
 472   0.0000       1.663940        45.2781 
 473   0.0000       1.668269        45.3959 
 474   0.0000       1.670698        45.4620 
 475   0.0000       1.677313        45.6420 
 476   0.0000       1.683401        45.8077 
 477   0.0000       1.688848        45.9559 
 478   0.0000       1.698046        46.2062 
 479   0.0000       1.700435        46.2712 
 480   0.0000       1.704627        46.3852 
 481   0.0000       1.705714        46.4148 
 482   0.0000       1.714579        46.6561 
 483   0.0000       1.720297        46.8117 
 484   0.0000       1.722030        46.8588 
 485   0.0000       1.726278        46.9744 
 486   0.0000       1.735507        47.2255 
 487   0.0000       1.738843        47.3163 
 488   0.0000       1.743307        47.4378 
 489   0.0000       1.745670        47.5021 
 490   0.0000       1.761534        47.9338 
 491   0.0000       1.763658        47.9916 
 492   0.0000       1.767230        48.0888 
 493   0.0000       1.769924        48.1621 
 494   0.0000       1.777545        48.3694 
 495   0.0000       1.778790        48.4033 
 496   0.0000       1.788587        48.6699 
 497   0.0000       1.789964        48.7074 
 498   0.0000       1.799957        48.9793 
 499   0.0000       1.809628        49.2425 
 500   0.0000       1.813181        49.3392 
 501   0.0000       1.813665        49.3523 
 502   0.0000       1.821357        49.5617 
 503   0.0000       1.824048        49.6349 
 504   0.0000       1.833264        49.8856 
 505   0.0000       1.834306        49.9140 
 506   0.0000       1.842818        50.1456 
 507   0.0000       1.846412        50.2434 
 508   0.0000       1.853466        50.4354 
 509   0.0000       1.858310        50.5672 
 510   0.0000       1.862136        50.6713 
 511   0.0000       1.868656        50.8487 
 512   0.0000       1.872715        50.9592 
 513   0.0000       1.874678        51.0126 
 514   0.0000       1.882969        51.2382 
 515   0.0000       1.888626        51.3921 
 516   0.0000       1.890899        51.4540 
 517   0.0000       1.897990        51.6469 
 518   0.0000       1.908833        51.9420 
 519   0.0000       1.916104        52.1398 
 520   0.0000       1.919476        52.2316 
 521   0.0000       1.921194        52.2783 
 522   0.0000       1.925999        52.4091 
 523   0.0000       1.932270        52.5797 
 524   0.0000       1.936361        52.6911 
 525   0.0000       1.940654        52.8079 
 526   0.0000       1.945396        52.9369 
 527   0.0000       1.948682        53.0263 
 528   0.0000       1.953291        53.1518 
 529   0.0000       1.965661        53.4884 
 530   0.0000       1.974248        53.7220 
 531   0.0000       1.978146        53.8281 
 532   0.0000       1.982897        53.9574 
 533   0.0000       1.987883        54.0930 
 534   0.0000       1.994648        54.2771 
 535   0.0000       2.001036        54.4510 
 536   0.0000       2.002450        54.4894 
 537   0.0000       2.005545        54.5737 
 538   0.0000       2.013318        54.7852 
 539   0.0000       2.016444        54.8702 
 540   0.0000       2.031775        55.2874 
 541   0.0000       2.032750        55.3139 
 542   0.0000       2.040724        55.5309 
 543   0.0000       2.041149        55.5425 
 544   0.0000       2.062765        56.1307 
 545   0.0000       2.071465        56.3674 
 546   0.0000       2.075058        56.4652 
 547   0.0000       2.082733        56.6740 
 548   0.0000       2.086188        56.7681 
 549   0.0000       2.097972        57.0887 
 550   0.0000       2.102382        57.2087 
 551   0.0000       2.104639        57.2701 
 552   0.0000       2.111302        57.4514 
 553   0.0000       2.119044        57.6621 
 554   0.0000       2.123996        57.7969 
 555   0.0000       2.136923        58.1486 
 556   0.0000       2.139760        58.2258 
 557   0.0000       2.147465        58.4355 
 558   0.0000       2.161356        58.8135 
 559   0.0000       2.165692        58.9315 
 560   0.0000       2.170947        59.0745 
 561   0.0000       2.177432        59.2509 
 562   0.0000       2.180882        59.3448 
 563   0.0000       2.189217        59.5716 
 564   0.0000       2.196443        59.7683 
 565   0.0000       2.203415        59.9580 
 566   0.0000       2.209546        60.1248 
 567   0.0000       2.219878        60.4060 
 568   0.0000       2.221454        60.4488 
 569   0.0000       2.224805        60.5400 
 570   0.0000       2.233520        60.7772 
 571   0.0000       2.240963        60.9797 
 572   0.0000       2.250972        61.2521 
 573   0.0000       2.257168        61.4207 
 574   0.0000       2.259082        61.4727 
 575   0.0000       2.264250        61.6134 
 576   0.0000       2.268653        61.7332 
 577   0.0000       2.273168        61.8561 
 578   0.0000       2.285078        62.1801 
 579   0.0000       2.297517        62.5186 
 580   0.0000       2.301894        62.6377 
 581   0.0000       2.308197        62.8092 
 582   0.0000       2.315335        63.0035 
 583   0.0000       2.327606        63.3374 
 584   0.0000       2.338769        63.6411 
 585   0.0000       2.344780        63.8047 
 586   0.0000       2.347126        63.8686 
 587   0.0000       2.360256        64.2258 
 588   0.0000       2.363078        64.3026 
 589   0.0000       2.375773        64.6481 
 590   0.0000       2.382873        64.8413 
 591   0.0000       2.395031        65.1721 
 592   0.0000       2.405127        65.4468 
 593   0.0000       2.409999        65.5794 
 594   0.0000       2.414608        65.7048 
 595   0.0000       2.420671        65.8698 
 596   0.0000       2.430262        66.1308 
 597   0.0000       2.442759        66.4709 
 598   0.0000       2.454357        66.7864 
 599   0.0000       2.456273        66.8386 
 600   0.0000       2.460944        66.9657 
 601   0.0000       2.475315        67.3567 
 602   0.0000       2.484908        67.6178 
 603   0.0000       2.490781        67.7776 
 604   0.0000       2.505179        68.1694 
 605   0.0000       2.506729        68.2116 
 606   0.0000       2.511262        68.3349 
 607   0.0000       2.533057        68.9280 
 608   0.0000       2.541909        69.1689 
 609   0.0000       2.550989        69.4159 
 610   0.0000       2.565686        69.8159 
 611   0.0000       2.573366        70.0249 
 612   0.0000       2.582650        70.2775 
 613   0.0000       2.610480        71.0348 
 614   0.0000       2.621531        71.3355 
 615   0.0000       2.627591        71.5004 
 616   0.0000       2.638084        71.7859 
 617   0.0000       2.647433        72.0403 
 618   0.0000       2.654957        72.2450 
 619   0.0000       2.676340        72.8269 
 620   0.0000       2.676933        72.8430 
 621   0.0000       2.690476        73.2116 
 622   0.0000       2.697375        73.3993 
 623   0.0000       2.705499        73.6204 
 624   0.0000       2.716926        73.9313 
 625   0.0000       2.724677        74.1422 
 626   0.0000       2.730297        74.2952 
 627   0.0000       2.738292        74.5127 
 628   0.0000       2.742900        74.6381 
 629   0.0000       2.750996        74.8584 
 630   0.0000       2.753551        74.9279 
 631   0.0000       2.765854        75.2627 
 632   0.0000       2.777559        75.5812 
 633   0.0000       2.781299        75.6830 
 634   0.0000       2.784534        75.7710 
 635   0.0000       2.791270        75.9543 
 636   0.0000       2.814990        76.5998 
 637   0.0000       2.832790        77.0841 
 638   0.0000       2.851754        77.6002 
 639   0.0000       2.862272        77.8864 
 640   0.0000       2.883108        78.4533 
 641   0.0000       2.884988        78.5045 
 642   0.0000       2.911778        79.2335 
 643   0.0000       2.919324        79.4388 
 644   0.0000       2.927376        79.6579 
 645   0.0000       2.941882        80.0527 
 646   0.0000       2.945377        80.1478 
 647   0.0000       2.956573        80.4524 
 648   0.0000       2.975052        80.9553 
 649   0.0000       2.987482        81.2935 
 650   0.0000       3.001182        81.6663 
 651   0.0000       3.011022        81.9341 
 652   0.0000       3.021451        82.2179 
 653   0.0000       3.032265        82.5121 
 654   0.0000       3.058605        83.2289 
 655   0.0000       3.080411        83.8222 
 656   0.0000       3.087999        84.0287 
 657   0.0000       3.097594        84.2898 
 658   0.0000       3.126573        85.0784 
 659   0.0000       3.131173        85.2035 
 660   0.0000       3.144162        85.5570 
 661   0.0000       3.162100        86.0451 
 662   0.0000       3.176415        86.4346 
 663   0.0000       3.189277        86.7846 
 664   0.0000       3.198246        87.0287 
 665   0.0000       3.203607        87.1746 
 666   0.0000       3.211997        87.4029 
 667   0.0000       3.221413        87.6591 
 668   0.0000       3.227724        87.8308 
 669   0.0000       3.244222        88.2798 
 670   0.0000       3.251058        88.4658 
 671   0.0000       3.263438        88.8027 
 672   0.0000       3.267558        88.9148 
 673   0.0000       3.274776        89.1112 
 674   0.0000       3.288542        89.4858 
 675   0.0000       3.299925        89.7955 
 676   0.0000       3.311424        90.1084 
 677   0.0000       3.320111        90.3448 
 678   0.0000       3.329137        90.5904 
 679   0.0000       3.331959        90.6672 
 680   0.0000       3.340570        90.9015 
 681   0.0000       3.357992        91.3756 
 682   0.0000       3.358748        91.3962 
 683   0.0000       3.368091        91.6504 
 684   0.0000       3.372812        91.7789 
 685   0.0000       3.392284        92.3087 
 686   0.0000       3.396010        92.4101 
 687   0.0000       3.411147        92.8220 
 688   0.0000       3.414280        92.9073 
 689   0.0000       3.418818        93.0308 
 690   0.0000       3.433457        93.4291 
 691   0.0000       3.439956        93.6060 
 692   0.0000       3.455746        94.0356 
 693   0.0000       3.459922        94.1493 
 694   0.0000       3.483053        94.7787 
 695   0.0000       3.486043        94.8601 
 696   0.0000       3.492545        95.0370 
 697   0.0000       3.503269        95.3288 
 698   0.0000       3.512586        95.5823 
 699   0.0000       3.516703        95.6944 
 700   0.0000       3.522766        95.8593 
 701   0.0000       3.525759        95.9408 
 702   0.0000       3.539230        96.3073 
 703   0.0000       3.550563        96.6157 
 704   0.0000       3.553830        96.7046 
 705   0.0000       3.564425        96.9929 
 706   0.0000       3.576764        97.3287 
 707   0.0000       3.586588        97.5960 
 708   0.0000       3.596627        97.8692 
 709   0.0000       3.600044        97.9622 
 710   0.0000       3.610473        98.2460 
 711   0.0000       3.616582        98.4122 
 712   0.0000       3.626656        98.6863 
 713   0.0000       3.628420        98.7343 
 714   0.0000       3.637217        98.9737 
 715   0.0000       3.650489        99.3349 
 716   0.0000       3.658350        99.5488 
 717   0.0000       3.660690        99.6124 
 718   0.0000       3.672903        99.9448 
 719   0.0000       3.689327       100.3917 
 720   0.0000       3.699068       100.6567 
 721   0.0000       3.712009       101.0089 
 722   0.0000       3.717545       101.1596 
 723   0.0000       3.725298       101.3705 
 724   0.0000       3.730995       101.5255 
 725   0.0000       3.738415       101.7274 
 726   0.0000       3.741956       101.8238 
 727   0.0000       3.746205       101.9394 
 728   0.0000       3.757304       102.2415 
 729   0.0000       3.761985       102.3688 
 730   0.0000       3.762898       102.3937 
 731   0.0000       3.776581       102.7660 
 732   0.0000       3.779813       102.8539 
 733   0.0000       3.786614       103.0390 
 734   0.0000       3.791792       103.1799 
 735   0.0000       3.801776       103.4516 
 736   0.0000       3.804148       103.5161 
 737   0.0000       3.807351       103.6033 
 738   0.0000       3.824836       104.0791 
 739   0.0000       3.831723       104.2665 
 740   0.0000       3.836306       104.3912 
 741   0.0000       3.845781       104.6490 
 742   0.0000       3.850657       104.7817 
 743   0.0000       3.857254       104.9612 
 744   0.0000       3.871639       105.3526 
 745   0.0000       3.876895       105.4957 
 746   0.0000       3.886985       105.7702 
 747   0.0000       3.898504       106.0837 
 748   0.0000       3.905938       106.2860 
 749   0.0000       3.914124       106.5087 
 750   0.0000       3.920792       106.6902 
 751   0.0000       3.928718       106.9059 
 752   0.0000       3.930119       106.9440 
 753   0.0000       3.936215       107.1098 
 754   0.0000       3.942125       107.2707 
 755   0.0000       3.942812       107.2894 
 756   0.0000       3.959903       107.7544 
 757   0.0000       3.964239       107.8724 
 758   0.0000       3.965274       107.9006 
 759   0.0000       3.967708       107.9668 
 760   0.0000       3.978416       108.2582 
 761   0.0000       3.992034       108.6288 
 762   0.0000       3.999304       108.8266 
 763   0.0000       4.008661       109.0812 
 764   0.0000       4.011080       109.1470 
 765   0.0000       4.018049       109.3367 
 766   0.0000       4.032462       109.7289 
 767   0.0000       4.037642       109.8698 
 768   0.0000       4.044200       110.0483 
 769   0.0000       4.051983       110.2601 
 770   0.0000       4.061678       110.5239 
 771   0.0000       4.065071       110.6162 
 772   0.0000       4.070614       110.7670 
 773   0.0000       4.081042       111.0508 
 774   0.0000       4.094995       111.4305 
 775   0.0000       4.104857       111.6988 
 776   0.0000       4.107807       111.7791 
 777   0.0000       4.113073       111.9224 
 778   0.0000       4.122025       112.1660 
 779   0.0000       4.123827       112.2150 
 780   0.0000       4.137608       112.5901 
 781   0.0000       4.140501       112.6688 
 782   0.0000       4.154782       113.0574 
 783   0.0000       4.163369       113.2910 
 784   0.0000       4.174559       113.5955 
 785   0.0000       4.183638       113.8426 
 786   0.0000       4.192401       114.0810 
 787   0.0000       4.192694       114.0890 
 788   0.0000       4.206723       114.4708 
 789   0.0000       4.216391       114.7338 
 790   0.0000       4.223763       114.9344 
 791   0.0000       4.233416       115.1971 
 792   0.0000       4.240811       115.3983 
 793   0.0000       4.252191       115.7080 
 794   0.0000       4.254996       115.7843 
 795   0.0000       4.263549       116.0171 
 796   0.0000       4.267891       116.1352 
 797   0.0000       4.274887       116.3256 
 798   0.0000       4.295131       116.8764 
 799   0.0000       4.300824       117.0314 
 800   0.0000       4.311200       117.3137 
 801   0.0000       4.328999       117.7981 
 802   0.0000       4.329556       117.8132 
 803   0.0000       4.341032       118.1255 
 804   0.0000       4.347808       118.3099 
 805   0.0000       4.356119       118.5360 
 806   0.0000       4.366004       118.8050 
 807   0.0000       4.369846       118.9095 
 808   0.0000       4.387405       119.3874 
 809   0.0000       4.389987       119.4576 
 810   0.0000       4.399575       119.7185 
 811   0.0000       4.406734       119.9133 
 812   0.0000       4.413586       120.0998 
 813   0.0000       4.424851       120.4063 
 814   0.0000       4.432227       120.6070 
 815   0.0000       4.447176       121.0138 
 816   0.0000       4.453962       121.1985 
 817   0.0000       4.463091       121.4469 
 818   0.0000       4.474249       121.7505 
 819   0.0000       4.482372       121.9715 
 820   0.0000       4.492756       122.2541 
 821   0.0000       4.498938       122.4223 
 822   0.0000       4.507661       122.6597 
 823   0.0000       4.518157       122.9453 
 824   0.0000       4.522832       123.0725 
 825   0.0000       4.524154       123.1085 
 826   0.0000       4.544053       123.6500 
 827   0.0000       4.557391       124.0129 
 828   0.0000       4.561820       124.1334 
 829   0.0000       4.569601       124.3452 
 830   0.0000       4.583847       124.7328 
 831   0.0000       4.601440       125.2116 
 832   0.0000       4.611892       125.4960 
 833   0.0000       4.622831       125.7936 
 834   0.0000       4.629620       125.9784 
 835   0.0000       4.635245       126.1314 
 836   0.0000       4.640046       126.2621 
 837   0.0000       4.665068       126.9430 
 838   0.0000       4.681440       127.3885 
 839   0.0000       4.692598       127.6921 
 840   0.0000       4.704091       128.0048 
 841   0.0000       4.705476       128.0425 
 842   0.0000       4.714858       128.2978 
 843   0.0000       4.729115       128.6858 
 844   0.0000       4.737624       128.9173 
 845   0.0000       4.748744       129.2199 
 846   0.0000       4.762607       129.5971 
 847   0.0000       4.776399       129.9724 
 848   0.0000       4.784862       130.2027 
 849   0.0000       4.795190       130.4837 
 850   0.0000       4.804904       130.7481 
 851   0.0000       4.825357       131.3046 
 852   0.0000       4.834077       131.5419 
 853   0.0000       4.844875       131.8357 
 854   0.0000       4.860706       132.2665 
 855   0.0000       4.865450       132.3956 
 856   0.0000       4.885382       132.9380 
 857   0.0000       4.888297       133.0173 
 858   0.0000       4.896126       133.2304 
 859   0.0000       4.923841       133.9845 
 860   0.0000       4.934445       134.2731 
 861   0.0000       4.939385       134.4075 
 862   0.0000       4.950681       134.7149 
 863   0.0000       4.963829       135.0726 
 864   0.0000       4.973971       135.3486 
 865   0.0000       4.985689       135.6675 
 866   0.0000       4.992325       135.8481 
 867   0.0000       5.006256       136.2272 
 868   0.0000       5.010022       136.3296 
 869   0.0000       5.025205       136.7428 
 870   0.0000       5.031402       136.9114 
 871   0.0000       5.040529       137.1598 
 872   0.0000       5.051533       137.4592 
 873   0.0000       5.065231       137.8319 
 874   0.0000       5.072509       138.0300 
 875   0.0000       5.088542       138.4663 
 876   0.0000       5.098563       138.7389 
 877   0.0000       5.111246       139.0841 
 878   0.0000       5.118294       139.2759 
 879   0.0000       5.136251       139.7645 
 880   0.0000       5.157873       140.3529 
 881   0.0000       5.164235       140.5260 
 882   0.0000       5.181655       141.0000 
 883   0.0000       5.188213       141.1784 
 884   0.0000       5.195144       141.3671 
 885   0.0000       5.214897       141.9046 
 886   0.0000       5.226013       142.2070 
 887   0.0000       5.254186       142.9737 
 888   0.0000       5.258894       143.1018 
 889   0.0000       5.270354       143.4136 
 890   0.0000       5.279763       143.6697 
 891   0.0000       5.296346       144.1209 
 892   0.0000       5.303267       144.3092 
 893   0.0000       5.307489       144.4241 
 894   0.0000       5.330475       145.0496 
 895   0.0000       5.342682       145.3818 
 896   0.0000       5.349200       145.5591 
 897   0.0000       5.360648       145.8706 
 898   0.0000       5.364616       145.9786 
 899   0.0000       5.388479       146.6280 
 900   0.0000       5.392000       146.7238 
 901   0.0000       5.394848       146.8013 
 902   0.0000       5.411072       147.2428 
 903   0.0000       5.429039       147.7317 
 904   0.0000       5.450105       148.3049 
 905   0.0000       5.457547       148.5074 
 906   0.0000       5.463530       148.6702 
 907   0.0000       5.482553       149.1879 
 908   0.0000       5.494989       149.5262 
 909   0.0000       5.509915       149.9324 
 910   0.0000       5.521067       150.2359 
 911   0.0000       5.538691       150.7154 
 912   0.0000       5.543962       150.8589 
 913   0.0000       5.556383       151.1969 
 914   0.0000       5.568361       151.5228 
 915   0.0000       5.570646       151.5850 
 916   0.0000       5.597238       152.3086 
 917   0.0000       5.607543       152.5890 
 918   0.0000       5.614600       152.7810 
 919   0.0000       5.624582       153.0526 
 920   0.0000       5.628696       153.1646 
 921   0.0000       5.638710       153.4371 
 922   0.0000       5.649198       153.7225 
 923   0.0000       5.670178       154.2934 
 924   0.0000       5.681751       154.6083 
 925   0.0000       5.692935       154.9126 
 926   0.0000       5.708286       155.3304 
 927   0.0000       5.720136       155.6528 
 928   0.0000       5.734084       156.0324 
 929   0.0000       5.734526       156.0444 
 930   0.0000       5.753004       156.5472 
 931   0.0000       5.761636       156.7821 
 932   0.0000       5.773289       157.0992 
 933   0.0000       5.793382       157.6459 
 934   0.0000       5.802299       157.8886 
 935   0.0000       5.820824       158.3927 
 936   0.0000       5.835402       158.7894 
 937   0.0000       5.846355       159.0874 
 938   0.0000       5.855101       159.3254 
 939   0.0000       5.885676       160.1574 
 940   0.0000       5.894710       160.4032 
 941   0.0000       5.911716       160.8660 
 942   0.0000       5.934485       161.4855 
 943   0.0000       5.947636       161.8434 
 944   0.0000       5.956981       162.0977 
 945   0.0000       5.984107       162.8358 
 946   0.0000       6.003221       163.3559 
 947   0.0000       6.076532       165.3509 
 948   0.0000       6.098053       165.9365 
 949   0.0000       6.139271       167.0580 
 950   0.0000       6.159268       167.6022 
 951   0.0000       6.168463       167.8524 
 952   0.0000       6.199592       168.6995 
 953   0.0000       6.210565       168.9981 
 954   0.0000       6.224871       169.3874 
 955   0.0000       6.244937       169.9334 
 956   0.0000       6.248619       170.0336 
 957   0.0000       6.275040       170.7525 
 958   0.0000       6.277153       170.8100 
 959   0.0000       6.307580       171.6380 
 960   0.0000       6.317107       171.8972 
 961   0.0000       6.325009       172.1122 
 962   0.0000       6.369921       173.3344 
 963   0.0000       6.374471       173.4582 
 964   0.0000       6.391253       173.9148 
 965   0.0000       6.419441       174.6819 
 966   0.0000       6.444769       175.3711 
 967   0.0000       6.454809       175.6443 
 968   0.0000       6.466289       175.9567 
 969   0.0000       6.534119       177.8024 
 970   0.0000       6.596616       179.5031 
 971   0.0000       6.745046       183.5420 
 972   0.0000       6.800168       185.0420 
 973   0.0000       6.873276       187.0313 
 974   0.0000       6.903601       187.8565 
 975   0.0000       6.916615       188.2107 
 976   0.0000       6.940442       188.8590 
 977   0.0000       6.961928       189.4437 
 978   0.0000       6.983491       190.0305 
 979   0.0000       6.993120       190.2925 
 980   0.0000       7.028846       191.2646 
 981   0.0000       7.057992       192.0577 
 982   0.0000       7.089018       192.9020 
 983   0.0000       7.096257       193.0990 
 984   0.0000       7.191837       195.6998 
 985   0.0000       7.296306       198.5426 
 986   0.0000       7.347702       199.9411 
 987   0.0000       7.418799       201.8758 
 988   0.0000       7.515769       204.5145 
 989   0.0000       7.537766       205.1130 
 990   0.0000       7.577366       206.1906 
 991   0.0000       7.638730       207.8604 
 992   0.0000       7.693379       209.3475 
 993   0.0000       7.809264       212.5009 
 994   0.0000       7.851358       213.6463 
 995   0.0000       7.938813       216.0261 
 996   0.0000       8.098994       220.3848 
 997   0.0000       8.175662       222.4711 
 998   0.0000       8.392312       228.3664 
 999   0.0000       9.451468       257.1875 
 1000   0.0000       9.467226       257.6163 
 1001   0.0000       9.482835       258.0411 
 1002   0.0000       9.491685       258.2819 
 1003   0.0000       9.522929       259.1321 
 1004   0.0000       9.537392       259.5256 
 1005   0.0000       9.794119       266.5115 
 1006   0.0000      10.113945       275.2144 
 1007   0.0000      10.137840       275.8646 
 1008   0.0000      10.170423       276.7513 
 1009   0.0000      10.232897       278.4513 
 1010   0.0000      10.239521       278.6315 
 1011   0.0000      10.266072       279.3540 
 1012   0.0000      10.426193       283.7111 
 1013   0.0000      10.450523       284.3732 
 1014   0.0000      10.592594       288.2391 
 1015   0.0000      17.097041       465.2341 
 1016   0.0000      17.727532       482.3907 
 1017   0.0000      18.287309       497.6230 
 1018   0.0000      18.630927       506.9733 
 1019   0.0000      18.923181       514.9259 
 1020   0.0000      19.167335       521.5697 
 1021   0.0000      19.238730       523.5125 
 1022   0.0000      19.664532       535.0991 
 1023   0.0000      20.529715       558.6419 
 1024   0.0000      21.980072       598.1082 

                 SPIN DOWN ORBITALS
  NO   OCC          E(Eh)            E(eV) 
   0   1.0000    -261.535205     -7116.7347 
   1   1.0000    -104.766437     -2850.8397 
   2   1.0000    -104.766245     -2850.8345 
   3   1.0000    -104.763809     -2850.7682 
   4   1.0000     -32.044650      -871.9793 
   5   1.0000     -27.522775      -748.9328 
   6   1.0000     -27.522549      -748.9266 
   7   1.0000     -27.522019      -748.9122 
   8   1.0000     -20.525489      -558.5270 
   9   1.0000     -11.406036      -310.3740 
  10   1.0000     -11.340908      -308.6018 
  11   1.0000     -11.307732      -307.6990 
  12   1.0000     -11.291199      -307.2492 
  13   1.0000     -11.277467      -306.8755 
  14   1.0000     -11.255225      -306.2703 
  15   1.0000     -11.241434      -305.8950 
  16   1.0000     -11.231490      -305.6244 
  17   1.0000     -10.492903      -285.5264 
  18   1.0000     -10.492654      -285.5196 
  19   1.0000     -10.490281      -285.4551 
  20   1.0000      -7.958782      -216.5695 
  21   1.0000      -7.958583      -216.5641 
  22   1.0000      -7.958277      -216.5557 
  23   1.0000      -7.958200      -216.5536 
  24   1.0000      -7.958037      -216.5492 
  25   1.0000      -7.957928      -216.5462 
  26   1.0000      -7.956269      -216.5011 
  27   1.0000      -7.955535      -216.4811 
  28   1.0000      -7.955466      -216.4792 
  29   1.0000      -4.120056      -112.1124 
  30   1.0000      -2.641984       -71.8920 
  31   1.0000      -2.641893       -71.8896 
  32   1.0000      -2.641007       -71.8654 
  33   1.0000      -1.350917       -36.7603 
  34   1.0000      -1.203541       -32.7500 
  35   1.0000      -1.090199       -29.6658 
  36   1.0000      -1.045724       -28.4556 
  37   1.0000      -1.024570       -27.8800 
  38   1.0000      -1.019898       -27.7528 
  39   1.0000      -1.013627       -27.5822 
  40   1.0000      -1.011921       -27.5358 
  41   1.0000      -0.965649       -26.2766 
  42   1.0000      -0.933809       -25.4102 
  43   1.0000      -0.809794       -22.0356 
  44   1.0000      -0.775178       -21.0937 
  45   1.0000      -0.717055       -19.5121 
  46   1.0000      -0.698381       -19.0039 
  47   1.0000      -0.680407       -18.5148 
  48   1.0000      -0.648407       -17.6440 
  49   1.0000      -0.646634       -17.5958 
  50   1.0000      -0.630092       -17.1457 
  51   1.0000      -0.611913       -16.6510 
  52   1.0000      -0.601817       -16.3763 
  53   1.0000      -0.590879       -16.0786 
  54   1.0000      -0.583983       -15.8910 
  55   1.0000      -0.568539       -15.4707 
  56   1.0000      -0.562109       -15.2958 
  57   1.0000      -0.553716       -15.0674 
  58   1.0000      -0.536555       -14.6004 
  59   1.0000      -0.525108       -14.2889 
  60   1.0000      -0.513111       -13.9625 
  61   1.0000      -0.494512       -13.4564 
  62   1.0000      -0.461850       -12.5676 
  63   1.0000      -0.459628       -12.5071 
  64   1.0000      -0.444183       -12.0868 
  65   1.0000      -0.437952       -11.9173 
  66   1.0000      -0.429231       -11.6800 
  67   1.0000      -0.425771       -11.5858 
  68   1.0000      -0.424779       -11.5588 
  69   1.0000      -0.404733       -11.0134 
  70   1.0000      -0.396249       -10.7825 
  71   1.0000      -0.392142       -10.6707 
  72   0.0000      -0.003574        -0.0973 
  73   0.0000       0.001588         0.0432 
  74   0.0000       0.017202         0.4681 
  75   0.0000       0.018104         0.4926 
  76   0.0000       0.027745         0.7550 
  77   0.0000       0.037579         1.0226 
  78   0.0000       0.038007         1.0342 
  79   0.0000       0.040927         1.1137 
  80   0.0000       0.044848         1.2204 
  81   0.0000       0.048865         1.3297 
  82   0.0000       0.057895         1.5754 
  83   0.0000       0.058338         1.5875 
  84   0.0000       0.060245         1.6394 
  85   0.0000       0.061662         1.6779 
  86   0.0000       0.063944         1.7400 
  87   0.0000       0.071471         1.9448 
  88   0.0000       0.074820         2.0360 
  89   0.0000       0.077010         2.0956 
  90   0.0000       0.088655         2.4124 
  91   0.0000       0.090130         2.4526 
  92   0.0000       0.092557         2.5186 
  93   0.0000       0.094538         2.5725 
  94   0.0000       0.096781         2.6335 
  95   0.0000       0.099160         2.6983 
  96   0.0000       0.107039         2.9127 
  97   0.0000       0.112247         3.0544 
  98   0.0000       0.116735         3.1765 
  99   0.0000       0.120394         3.2761 
 100   0.0000       0.122234         3.3262 
 101   0.0000       0.125699         3.4204 
 102   0.0000       0.130590         3.5535 
 103   0.0000       0.132187         3.5970 
 104   0.0000       0.132938         3.6174 
 105   0.0000       0.134888         3.6705 
 106   0.0000       0.135553         3.6886 
 107   0.0000       0.135952         3.6994 
 108   0.0000       0.138631         3.7723 
 109   0.0000       0.142300         3.8722 
 110   0.0000       0.146194         3.9781 
 111   0.0000       0.147570         4.0156 
 112   0.0000       0.149315         4.0631 
 113   0.0000       0.154995         4.2176 
 114   0.0000       0.155701         4.2368 
 115   0.0000       0.158038         4.3004 
 116   0.0000       0.158703         4.3185 
 117   0.0000       0.161500         4.3946 
 118   0.0000       0.164047         4.4640 
 119   0.0000       0.165453         4.5022 
 120   0.0000       0.170320         4.6346 
 121   0.0000       0.173102         4.7103 
 122   0.0000       0.175319         4.7707 
 123   0.0000       0.177882         4.8404 
 124   0.0000       0.179141         4.8747 
 125   0.0000       0.187257         5.0955 
 126   0.0000       0.188470         5.1285 
 127   0.0000       0.191421         5.2088 
 128   0.0000       0.198546         5.4027 
 129   0.0000       0.205784         5.5997 
 130   0.0000       0.208125         5.6634 
 131   0.0000       0.210886         5.7385 
 132   0.0000       0.214964         5.8495 
 133   0.0000       0.218674         5.9504 
 134   0.0000       0.221118         6.0169 
 135   0.0000       0.225265         6.1298 
 136   0.0000       0.227597         6.1932 
 137   0.0000       0.229622         6.2483 
 138   0.0000       0.233235         6.3467 
 139   0.0000       0.234643         6.3850 
 140   0.0000       0.239200         6.5090 
 141   0.0000       0.240885         6.5548 
 142   0.0000       0.243093         6.6149 
 143   0.0000       0.248921         6.7735 
 144   0.0000       0.251653         6.8478 
 145   0.0000       0.256708         6.9854 
 146   0.0000       0.259572         7.0633 
 147   0.0000       0.260215         7.0808 
 148   0.0000       0.269252         7.3267 
 149   0.0000       0.274031         7.4568 
 150   0.0000       0.276437         7.5222 
 151   0.0000       0.278292         7.5727 
 152   0.0000       0.284332         7.7371 
 153   0.0000       0.287458         7.8221 
 154   0.0000       0.293797         7.9946 
 155   0.0000       0.294902         8.0247 
 156   0.0000       0.300974         8.1899 
 157   0.0000       0.304387         8.2828 
 158   0.0000       0.308554         8.3962 
 159   0.0000       0.309725         8.4280 
 160   0.0000       0.314386         8.5549 
 161   0.0000       0.316421         8.6102 
 162   0.0000       0.318251         8.6600 
 163   0.0000       0.326346         8.8803 
 164   0.0000       0.330157         8.9840 
 165   0.0000       0.335801         9.1376 
 166   0.0000       0.338921         9.2225 
 167   0.0000       0.339232         9.2310 
 168   0.0000       0.342208         9.3119 
 169   0.0000       0.346728         9.4349 
 170   0.0000       0.353120         9.6089 
 171   0.0000       0.355211         9.6658 
 172   0.0000       0.356651         9.7050 
 173   0.0000       0.359203         9.7744 
 174   0.0000       0.362810         9.8726 
 175   0.0000       0.365556         9.9473 
 176   0.0000       0.371299        10.1036 
 177   0.0000       0.374327        10.1860 
 178   0.0000       0.378633        10.3031 
 179   0.0000       0.382469        10.4075 
 180   0.0000       0.384307        10.4575 
 181   0.0000       0.386385        10.5141 
 182   0.0000       0.392977        10.6934 
 183   0.0000       0.395817        10.7707 
 184   0.0000       0.400159        10.8889 
 185   0.0000       0.401264        10.9190 
 186   0.0000       0.402567        10.9544 
 187   0.0000       0.406225        11.0539 
 188   0.0000       0.408388        11.1128 
 189   0.0000       0.411769        11.2048 
 190   0.0000       0.416027        11.3207 
 191   0.0000       0.419404        11.4126 
 192   0.0000       0.424089        11.5400 
 193   0.0000       0.431133        11.7317 
 194   0.0000       0.432776        11.7764 
 195   0.0000       0.434283        11.8174 
 196   0.0000       0.440059        11.9746 
 197   0.0000       0.446617        12.1531 
 198   0.0000       0.448095        12.1933 
 199   0.0000       0.451907        12.2970 
 200   0.0000       0.453222        12.3328 
 201   0.0000       0.458280        12.4704 
 202   0.0000       0.461816        12.5667 
 203   0.0000       0.468365        12.7449 
 204   0.0000       0.472600        12.8601 
 205   0.0000       0.473129        12.8745 
 206   0.0000       0.476249        12.9594 
 207   0.0000       0.479311        13.0427 
 208   0.0000       0.481094        13.0912 
 209   0.0000       0.482861        13.1393 
 210   0.0000       0.489801        13.3282 
 211   0.0000       0.492228        13.3942 
 212   0.0000       0.495460        13.4822 
 213   0.0000       0.497125        13.5274 
 214   0.0000       0.500252        13.6126 
 215   0.0000       0.503776        13.7084 
 216   0.0000       0.506672        13.7873 
 217   0.0000       0.510387        13.8883 
 218   0.0000       0.511729        13.9249 
 219   0.0000       0.517383        14.0787 
 220   0.0000       0.520408        14.1610 
 221   0.0000       0.522436        14.2162 
 222   0.0000       0.524867        14.2823 
 223   0.0000       0.529048        14.3961 
 224   0.0000       0.531760        14.4699 
 225   0.0000       0.536905        14.6099 
 226   0.0000       0.538721        14.6594 
 227   0.0000       0.541630        14.7385 
 228   0.0000       0.548871        14.9355 
 229   0.0000       0.551880        15.0174 
 230   0.0000       0.553123        15.0513 
 231   0.0000       0.555236        15.1088 
 232   0.0000       0.558697        15.2029 
 233   0.0000       0.561501        15.2792 
 234   0.0000       0.568429        15.4677 
 235   0.0000       0.569118        15.4865 
 236   0.0000       0.574755        15.6399 
 237   0.0000       0.578740        15.7483 
 238   0.0000       0.583201        15.8697 
 239   0.0000       0.584084        15.8937 
 240   0.0000       0.591518        16.0960 
 241   0.0000       0.593548        16.1513 
 242   0.0000       0.594442        16.1756 
 243   0.0000       0.601755        16.3746 
 244   0.0000       0.604362        16.4455 
 245   0.0000       0.604898        16.4601 
 246   0.0000       0.610717        16.6184 
 247   0.0000       0.611873        16.6499 
 248   0.0000       0.616359        16.7720 
 249   0.0000       0.620547        16.8859 
 250   0.0000       0.625303        17.0154 
 251   0.0000       0.628177        17.0936 
 252   0.0000       0.630994        17.1702 
 253   0.0000       0.632238        17.2041 
 254   0.0000       0.636864        17.3299 
 255   0.0000       0.645795        17.5730 
 256   0.0000       0.654987        17.8231 
 257   0.0000       0.658125        17.9085 
 258   0.0000       0.660379        17.9698 
 259   0.0000       0.664638        18.0857 
 260   0.0000       0.667286        18.1578 
 261   0.0000       0.674989        18.3674 
 262   0.0000       0.678353        18.4589 
 263   0.0000       0.685352        18.6494 
 264   0.0000       0.688865        18.7450 
 265   0.0000       0.691057        18.8046 
 266   0.0000       0.695804        18.9338 
 267   0.0000       0.696724        18.9588 
 268   0.0000       0.702730        19.1222 
 269   0.0000       0.704401        19.1677 
 270   0.0000       0.708296        19.2737 
 271   0.0000       0.715509        19.4700 
 272   0.0000       0.717211        19.5163 
 273   0.0000       0.724602        19.7174 
 274   0.0000       0.730380        19.8747 
 275   0.0000       0.736078        20.0297 
 276   0.0000       0.740258        20.1435 
 277   0.0000       0.741467        20.1763 
 278   0.0000       0.745381        20.2829 
 279   0.0000       0.754511        20.5313 
 280   0.0000       0.759858        20.6768 
 281   0.0000       0.772135        21.0109 
 282   0.0000       0.773229        21.0406 
 283   0.0000       0.775558        21.1040 
 284   0.0000       0.781040        21.2532 
 285   0.0000       0.785096        21.3636 
 286   0.0000       0.789492        21.4832 
[...]
  | sigma^2 in % of trace(Dij) retained ...   8.91e+00
  | sigma^2 in % of trace(Dip) retained ...   2.09e+01
  | sigma^2 in % of trace(Dpq) retained ...   1.42e-01
  | Av. % of trace(Di) retained         ...  99.998478156468
  | Av. % of trace(Dp) retained         ...  99.999995117970
  | sigma^2 in % of trace(Di) retained  ...   8.07e-07
  | sigma^2 in % of trace(Dp) retained  ...   4.44e-11
 Distributions of % trace(Dij) recovered:
  |       >= 99.9  ...   105 ( 20.7 % of all IJ-pairs)
  |   [80.0, 90.0) ...    36 (  7.1 % of all IJ-pairs)
  |   [90.0, 99.0) ...   274 ( 53.9 % of all IJ-pairs)
  |   [99.0, 99.9) ...    93 ( 18.3 % of all IJ-pairs)
 Distributions of % trace(Dip) recovered:
  |   [70.0, 80.0) ...     1 (  0.8 % of all IP-pairs)
  |   [80.0, 90.0) ...    12 (  9.9 % of all IP-pairs)
  |   [90.0, 99.0) ...    66 ( 54.5 % of all IP-pairs)
  |   [99.0, 99.9) ...    42 ( 34.7 % of all IP-pairs)
 Distributions of % trace(Dpq) recovered:
  |       >= 99.9  ...     5 ( 33.3 % of all PQ-pairs)
  |   [99.0, 99.9) ...    10 ( 66.7 % of all PQ-pairs)
 Distributions of % trace(Di) recovered :
  |       >= 99.9  ...    43 (100.0 % of all I-pairs )
 Distributions of % trace(Dp) recovered :
  |       >= 99.9  ...     5 (100.0 % of all P-pairs )

                       ===========================
                       1119 OF 1700 PAIRS ARE KEPT
                       ===========================

 Initial PAO correlation energy (all pairs)    ...  -2.6924031783 Eh
 Energy constituents in PAO basis (Eh):
  | Vijab(+0) ...  -2.2619035322
  | Viab (-1) ...  -0.1757771930
  | Vab  (-2) ...  -0.0573658019
  | Va   (-1) ...  -0.0000419945
  | Vija (+1) ...  -0.0733749621
  | Vij  (+2) ...  -0.0155141308
  | Via  (+0) ...  -0.1082651232
  | Vi   (+1) ...  -0.0001604406
 Initial PNO correlation energy                ...  -2.6583703121 Eh
 Energy constituents in PNO basis (Eh):
  | Vijab(+0) ...  -2.2435969625 (err=  0.0183065697)
  | Viab (-1) ...  -0.1617207322 (err=  0.0140564608)
  | Vab  (-2) ...  -0.0568786649 (err=  0.0004871370)
  | Va   (-1) ...  -0.0000238702 (err=  0.0000181243)
  | Vija (+1) ...  -0.0723621600 (err=  0.0010128020)
  | Vij  (+2) ...  -0.0154665673 (err=  0.0000475635)
  | Via  (+0) ...  -0.1081612237 (err=  0.0001038994)
  | Vi   (+1) ...  -0.0001601311 (err=  0.0000003095)
 Sum of total truncation errors ...   0.0340328662 Eh
  | Pair screening ...   0.0109374086 Eh
  | PNO truncation ...   0.0230954576 Eh

 UMP2 correlation energy (PAO) ...  -2.6875062632
  | alpha-alpha ...  -0.3867239874 (NP_aa=  917)
  | alpha-beta  ...  -1.9934938102 (NP_ab= 1675)
  | beta -beta  ...  -0.3072884657 (NP_bb=  725)
 UMP2 correlation energy (PNO) ...  -2.6531088704
  | alpha-alpha ...  -0.3748324771 (err=  0.0118915103, NP_aa=  596)
  | alpha-beta  ...  -1.9749563445 (err=  0.0185374657, NP_ab= 1094)
  | beta -beta  ...  -0.3033200488 (err=  0.0039684168, NP_bb=  465)
 Sum of total UMP2 truncation errors ...   0.0343973928 Eh
  | Pair screening ...   0.0109519735 Eh
  | PNO truncation ...   0.0234454193 Eh
 Timing for NEV-PNO construction (sec.)
  | Intermediate construction  ..           44.730
  | Amplitude construction     ..           67.387
  | Total time                 ..          112.117
 Making pair pair interaction lists ...      ok
 Total size for 2-ext PNO integrals ...     11.0 MB
Checking the number of SOMO/SOMO doubles PNOs ... 
 #Truncate: (72, 72)[171] -> [85] .. 
 #Truncate: (73, 73)[169] -> [85] .. 
 #Truncate: (74, 74)[168] -> [85] .. 
 #Truncate: (75, 75)[168] -> [85] .. 
 #Truncate: (76, 76)[168] -> [85] .. 

--------------------------------
LOCAL RI TRANSFORMATION (VABPAO)
--------------------------------

Number of PAOs:    1030
Basis functions:   1025 (343 shells)
Aux. functions:    2424 (644 shells)

Processing maps (0.0 sec)
Average map sizes:
   Aux shells -> PAOs           1030.0
   PAOs       -> AO shells       343.0

Calculating integrals (244.8 sec, 37370.165 MB)
Finished
-----------------------------
LOCAL RI TRANSFORMATION (IJV)
-----------------------------

Orbital window:      29 to 76
Basis functions:   1025 (343 shells)
Aux. functions:    2424 (644 shells)

Processing maps (0.0 sec)
Average map sizes:
   Aux shells -> MOs(i)           46.3
   Aux shells -> MOs(j)           48.0
   MOs        -> AO shells       340.2

Calculating integrals (22.2 sec, 41.233 MB)
Sorting integrals (0.3 sec, 41.206 MB)
Total time for the integral transformation: 22.6 sec


-------------------------------------
Pair Pair Term precalculation with     
RI-(ij|mn) and (im|jn) transformation  
ON THE FLY                             
-------------------------------------

   IBatch   1 (of   2)              ... done ( 1206.188 sec)
   IBatch   2 (of   2)              ... done ( 1338.720 sec)
Total EXT                           ...        2544.908 sec

---------------------
RI-PNO TRANSFORMATION
---------------------

Total Number of PNOs                   ... 35016
Total Number of IJ-PNOs                ... 30802
Total Number of IP-PNOs                ...  3265
Total Number of PQ-PNOs                ...   949
Total Number of IJ-pairs               ...   973
Total Number of PI-pairs               ...   121
Total Number of PQ-pairs               ...    25
Average number of PNOs per pair        ...    31
Maximal number of PNOs per pair        ...    85
>> Statistics for ij-pairs..
   #pairs with  1 -  5 PNOs   :    0
   #pairs with  6 - 10 PNOs   :    0
   #pairs with 11 - 15 PNOs   :   46
   #pairs with 16 - 20 PNOs   :  230
   #pairs with 21 - 25 PNOs   :  170
   #pairs with 26 - 30 PNOs   :  164
   #pairs with 31 - 35 PNOs   :   70
   #pairs with 36 - 40 PNOs   :   54
   #pairs with 41 - 45 PNOs   :   60
   #pairs with 46 - 50 PNOs   :    9
   #pairs with 51 - 55 PNOs   :   39
   #pairs with 56 - 60 PNOs   :   46
   #pairs with 61 - 65 PNOs   :   76
   #pairs with 66 - 70 PNOs   :    9
>> Statistics for ip-pairs..
   #pairs with  1 -  5 PNOs   :    0
   #pairs with  6 - 10 PNOs   :    4
   #pairs with 11 - 15 PNOs   :   16
   #pairs with 16 - 20 PNOs   :    3
   #pairs with 21 - 25 PNOs   :   27
   #pairs with 26 - 30 PNOs   :   15
   #pairs with 31 - 35 PNOs   :   44
   #pairs with 36 - 40 PNOs   :   12
   #pairs with 41 - 45 PNOs   :    0
   #pairs with 46 - 50 PNOs   :    0
>> Statistics for pq-pairs..
   #pairs with  1 -  5 PNOs   :    0
   #pairs with  6 - 10 PNOs   :    0
   #pairs with 11 - 15 PNOs   :    0
   #pairs with 16 - 20 PNOs   :    0
   #pairs with 21 - 25 PNOs   :   10
   #pairs with 26 - 30 PNOs   :   10
   #pairs with 31 - 35 PNOs   :    0
   #pairs with 36 - 40 PNOs   :    0
   #pairs with 41 - 45 PNOs   :    0
   #pairs with 46 - 50 PNOs   :    0
   #pairs with 81 - 85 PNOs   :    5

Generation of (ij|ab)[P] integrals            ... on
Generation of (ia|bc)[P],(ja|bc)[P] integrals ... on
Storage of 3 and 4 external integrals         ... on
Generation of ALL (ka|bc)[P] integrals        ... on
Keep RI integrals in memory                   ... off

Ibatch:  1 (of  1)
Starting 2-4 index PNO integral generation ... done

Timings:
Total PNO integral transformation time     ...       2123.853 sec
Size of the 3-external file                ...       287 MB
Size of the 4-external file                ...      1938 MB
Size of the IKJL file                      ...        19 MB
Size of the all 3-external file            ...      6911 MB
Size of the 1-external file                ...        22 MB

Size of the PAO/PNO coefficient matrices   ...     227.8 MB

Making pair/pair overlap matrices          ... done (  328.038 sec)
Size of the pair overlap file              ...    2497.0 MB
Total # unrestricted pairs ...       2155
  # of alpha-alpha pairs   ...        596
  # of alpha-beta pairs    ...       1094
  # of beta-beta pairs     ...        465
Constructing the guess amplitudes          ... done (    0.593 sec)

-------------------------
FINAL STARTUP INFORMATION
-------------------------

E(0)                                       ...  -3028.424984836
E(SL-UMP2 in NEV-PNO space)                ...     -2.688423215
Initial E(tot)                             ...  -3031.113408050
<T|T>                                      ...      0.531551970
Number of unrestricted pairs included      ... 2155
Total number of pairs                      ... 4095
----------------------------------------------------------
                     OPEN-SHELL COUPLED CLUSTER ITERATIONS
----------------------------------------------------------

Number of PNO amplitudes to be optimized        ...          2143179
Number of canonical amplitudes for strong pairs ...       1946398988
Untruncated number of canonical amplitudes      ...       3698645738

Iter       E(tot)           E(Corr)          Delta-E          Residual     Time
  0  -3031.120607026     -2.660307846      0.028115369      0.022917408 1836.60
                           *** Turning on DIIS ***
  1  -3031.234947527     -2.774648347     -0.114340501      0.009087924 1981.12
  2  -3031.298715133     -2.838415953     -0.063767606      0.009997716 2004.64
  3  -3031.319525737     -2.859226557     -0.020810604      0.003477357 1989.43
  4  -3031.326559652     -2.866260472     -0.007033915      0.003109722 1982.87
  5  -3031.330156223     -2.869857043     -0.003596571      0.002164913 1967.05
  6  -3031.331486525     -2.871187345     -0.001330302      0.001117031 1995.26
  7  -3031.332277879     -2.871978699     -0.000791353      0.000554014 1998.12
  8  -3031.332428097     -2.872128917     -0.000150218      0.000180597 2024.07
  9  -3031.332472276     -2.872173096     -0.000044179      0.000120097 2021.17
 10  -3031.332470369     -2.872171189      0.000001907      0.000060728 1999.67
 11  -3031.332479330     -2.872180150     -0.000008961      0.000043510 1987.60
 12  -3031.332484337     -2.872185157     -0.000005007      0.000018071 2011.05
 13  -3031.332486280     -2.872187100     -0.000001943      0.000011365 1986.91
 14  -3031.332486499     -2.872187319     -0.000000219      0.000006338 1991.97
               --- The CCSD iterations have converged ---

E(0)                                       ...  -3028.424984836
E(CORR)(strong-pairs)                      ...     -2.872187319
E(CORR)(weak-pairs)                        ...     -0.035314344
E(CORR)(corrected)                         ...     -2.907501663
E(TOT)                                     ...  -3031.332486499
Singles norm <S|S>**1/2                    ...      0.191088379 ( 0.065818947, 0.125269432)  
T1 diagnostic                              ...      0.020031505                              
<S**2>(linearized)                         ...      8.7507198 (ideal value:      8.7500000)

----------------------
LARGEST PNO AMPLITUDES
----------------------
  51b-> 73b  -1b-> -1b       0.057461
  43b-> 73b  -1b-> -1b       0.052353
  49b-> 72b  -1b-> -1b       0.045805
  49b-> 74b  -1b-> -1b       0.045586
  63a-> 77a  63b-> 77b       0.044187
  67a-> 77a  67b-> 77b       0.043975
  59a-> 77a  59b-> 77b       0.043431
  69a-> 77a  69b-> 77b       0.043160
  52b-> 73b  -1b-> -1b       0.043112
  52b-> 72b  -1b-> -1b       0.043028
  71a-> 77a  71b-> 77b       0.042777
  62a-> 77a  62b-> 77b       0.042620
  44a-> 77a  44b-> 77b       0.042029
  54a-> 77a  54b-> 77b       0.041919
  61a-> 77a  61b-> 77b       0.041704
  45a-> 78a  45b-> 78b       0.041579

Total # unrestricted pairs ...       1162
  # of alpha-alpha pairs   ...        321
  # of alpha-beta pairs    ...        581
  # of beta-beta pairs     ...        260

-------------------------------------------
DLPNO BASED TRIPLES CORRECTION
-------------------------------------------

Singles multiplier          ...  1.000000
Fragment selection                          .... not used
TCutTNO                     ... 1.000e-09
TCutMP2Pairs                ... 1.000e-05
TCutDOStrong                ... 2.000e-02
TCutMKNStrong               ... 1.000e-02
TCutDOWeak                  ... 4.000e-02
TCutMKNWeak                 ... 1.000e-01
NTCutTNO                    ... 1

Number of Triples that are to be computed         ...     34690

 . . . . . . . . .
10% done  
20% done  
30% done  
40% done  
50% done  
60% done  
70% done  
80% done  
90% done  
          Batch   1   done (  20031.737 sec)

Triples-Correction TCutTNO=   1.000e-09 (NWeakPairs = 0  1  2  3)  -0.116340297246   -0.001714895776    0.000000000000    0.000000000000
Triples-Correction  -0.118055193022

Triples timings:
Total time                      ... 20754.484 sec

Triples List generation         ...     0.000 sec
TNO generation                  ...   722.225 sec
Pair density generation         ...     0.095 sec
Look up tables                  ...     0.116 sec
Generating 3-index integrals    ... 13747.642 sec
Make 4-ind.int. from 3-ind.int  ...     3.907 sec
Projecting amplitudes (D + S)   ...  6005.586 sec
Sorting integrals for spin cases...    57.580 sec
Calculate W0/W1                 ...   175.772 sec
Energy contr. (sum over a,b,c)  ...    41.292 sec

Everything after 3-index        ...  6432.178 sec

Energy contribution AAA         ...    26.824 sec
Energy contribution AAB         ...   121.549 sec
Energy contribution ABB         ...   111.307 sec
Energy contribution BBB         ...    15.004 sec
prep                ...     3.679 sec
makeTTNO            ...  5944.637 sec
copyij              ...     0.137 sec
copyil              ...     4.470 sec
transposeij         ...     0.083 sec
newMatInDoubleProj  ...    57.960 sec
BlasInDoubleProj    ...  3195.329 sec
ProjSingles         ...    50.055 sec
ProjDoubles         ...  5955.530 sec
overall Doubles for projection      ... 3150347
used Doubles for projection         ... 3150347


Number of Triples   (0, 1, 2, 3 weak pairs; overall):  17256   11489       0       0  ( 28745)
Number of Atoms     (0, 1, 2, 3 weak pairs; overall):   20.0    15.0     0.0     0.0  (    29)
Number of PAOs      (0, 1, 2, 3 weak pairs; overall):  772.9   603.0     0.0     0.0  (  1025)
Number of AuxFcns   (0, 1, 2, 3 weak pairs; overall):  963.7   568.1     0.0     0.0  (  2424)
Number of TNOs (0, 1, 2, 3 weak pairs         ):   79.3    56.7     0.0     0.0
Aver. Number of NTNO, Atoms, PAOs, AuxFcns / Triples:  28745    70.3    18.0   705.0   805.6

Triples Correction (T)                     ...     -0.118055193
    alpha-alpha-alpha ... -0.003919480 (  3.3%)
    alpha-alpha-beta  ... -0.055409044 ( 46.9%)
    alpha-beta -beta  ... -0.054607591 ( 46.3%)
    beta -beta -beta  ... -0.004119078 (  3.5%)
Final correlation energy                   ...     -3.025556856
E(CCSD)                                    ...  -3031.332486499
E(CCSD(T))                                 ...  -3031.450541692

----------------------------
STATISTICS FOR PAIR-ENERGIES
----------------------------
Minimum, maximum and average ratios of UMP and CCSD pair-energies ... 0.53, 1.41, 1.02


------------------------------------------------------------------------------- 
                                     TIMINGS                                   
------------------------------------------------------------------------------- 


Total execution time                   ...    58908.941 sec

Localization of occupied MO's          ...        9.819 sec (  0.0%)
Fock Matrix Formation                  ...     1398.864 sec (  2.4%)
Differential overlap integrals         ...        1.367 sec (  0.0%)
Organizing maps                        ...        1.682 sec (  0.0%)
RI 3-index integral generations        ...      329.382 sec (  0.6%)
RI-PNO integral transformation         ...     5059.000 sec (  8.6%)
Initial Guess                          ...     1910.737 sec (  3.2%)
DIIS Solver                            ...       15.765 sec (  0.0%)
State Vector Update                    ...        0.746 sec (  0.0%)
Sigma-vector construction              ...    29777.542 sec ( 50.5%)
  <0|H|D>                              ...        0.031 sec (  0.0% of sigma)
  <D|H|D>(0-ext)                       ...     5665.663 sec ( 19.0% of sigma)
  <D|H|D>(2-ext Fock)                  ...        1.859 sec (  0.0% of sigma)
  <D|H|D>(2-ext)                       ...     4333.688 sec ( 14.6% of sigma)
  <D|H|D>(4-ext)                       ...      157.210 sec (  0.5% of sigma)
  <D|H|D>(4-ext-corr)                  ...      985.572 sec (  3.3% of sigma)
  CCSD doubles correction              ...      535.927 sec (  1.8% of sigma)
  <S|H|S>                              ...      756.575 sec (  2.5% of sigma)
  <S|H|D>(1-ext)                       ...      273.824 sec (  0.9% of sigma)
  <D|H|S>(1-ext)                       ...        0.937 sec (  0.0% of sigma)
  <S|H|D>(3-ext)                       ...       22.949 sec (  0.1% of sigma)
  CCSD singles correction              ...        0.004 sec (  0.0% of sigma)
  Fock-dressing                        ...     8504.984 sec ( 28.6% of sigma)
  Singles amplitudes                   ...      117.620 sec (  0.4% of sigma)
  (ik|jl)-dressing                     ...     6681.754 sec ( 22.4% of sigma)
  (ij|ab),(ia|jb)-dressing             ...     1519.746 sec (  5.1% of sigma)
  Pair energies                        ...        0.151 sec (  0.0% of sigma)
Total Time for computing (T)           ...    20791.070 sec ( 35.3% of ALL)


-------------------------   --------------------
FINAL SINGLE POINT ENERGY     -3031.450541692089
-------------------------   --------------------


                            ***************************************
                            *     ORCA property calculations      *
                            ***************************************

                                    ---------------------
                                    Active property flags
                                    ---------------------
   (+) Dipole Moment


------------------------------------------------------------------------------
                       ORCA ELECTRIC PROPERTIES CALCULATION
------------------------------------------------------------------------------

Dipole Moment Calculation                       ... on
Quadrupole Moment Calculation                   ... off
Polarizability Calculation                      ... off
GBWName                                         ... simple-grid-165-260-b3lyp_d3bj-631gd-gas-singlepoint-DLPNO_CCSD_T1-NormalPNO-augtz-gas.gbw
Electron density file                           ... simple-grid-165-260-b3lyp_d3bj-631gd-gas-singlepoint-DLPNO_CCSD_T1-NormalPNO-augtz-gas.scfp.tmp
The origin for moment calculation is the CENTER OF MASS  = ( 0.310148,  0.050623 -0.002234)

-------------
DIPOLE MOMENT
-------------
                                X             Y             Z
Electronic contribution:     40.46741       7.55017      -0.46796
Nuclear contribution   :    -46.21205      -7.54282       0.33291
                        -----------------------------------------
Total Dipole Moment    :     -5.74464       0.00735      -0.13505
                        -----------------------------------------
Magnitude (a.u.)       :      5.74623
Magnitude (Debye)      :     14.60576



--------------------
Rotational spectrum 
--------------------
 
Rotational constants in cm-1:     0.019461     0.010998     0.010359 
Rotational constants in MHz :   583.412558   329.709298   310.545125 

 Dipole components along the rotational axes: 
x,y,z [a.u.] :    -5.742606    -0.031695    -0.201566 
x,y,z [Debye]:   -14.596545    -0.080562    -0.512340 

 

Timings for individual modules:

Sum of individual times         ...    74376.733 sec (=1239.612 min)
GTO integral calculation        ...       12.763 sec (=   0.213 min)   0.0 %
SCF iterations                  ...    15433.797 sec (= 257.230 min)  20.8 %
MDCI module                     ...    58930.173 sec (= 982.170 min)  79.2 %
                             ****ORCA TERMINATED NORMALLY****
TOTAL RUN TIME: 0 days 20 hours 39 minutes 43 seconds 226 msec
