
                                 *****************
                                 * O   R   C   A *
                                 *****************

           --- An Ab Initio, DFT and Semiempirical electronic structure package ---

                  #######################################################
                  #                        -***-                        #
                  #          Department of theory and spectroscopy      #
                  #               Directorship: Frank Neese             #
                  #        Max Planck Institute fuer Kohlenforschung    #
                  #                Kaiser Wilhelm Platz 1               #
                  #                 D-45470 Muelheim/Ruhr               #
                  #                      Germany                        #
                  #                                                     #
                  #                  All rights reserved                #
                  #                        -***-                        #
                  #######################################################


                         Program Version 4.1.2  - RELEASE  -


 With contributions from (in alphabetic order):
   Daniel Aravena         : Magnetic Properties
   Michael Atanasov       : Ab Initio Ligand Field Theory
   Alexander A. Auer      : GIAO ZORA
   Ute Becker             : Parallelization
   Giovanni Bistoni       : ED, Open-shell LED
   Martin Brehm           : Molecular dynamics
   Dmytro Bykov           : SCF Hessian
   Vijay G. Chilkuri      : MRCI spin determinant printing
   Dipayan Datta          : RHF DLPNO-CCSD density
   Achintya Kumar Dutta   : EOM-CC, STEOM-CC
   Dmitry Ganyushin       : Spin-Orbit,Spin-Spin,Magnetic field MRCI
   Miquel Garcia          : C-PCM Hessian
   Yang Guo               : DLPNO-NEVPT2, CIM, IAO-localization
   Andreas Hansen         : Spin unrestricted coupled pair/coupled cluster methods
   Benjamin Helmich-Paris : CASSCF linear response (MC-RPA)
   Lee Huntington         : MR-EOM, pCC
   Robert Izsak           : Overlap fitted RIJCOSX, COSX-SCS-MP3, EOM
   Christian Kollmar      : KDIIS, OOCD, Brueckner-CCSD(T), CCSD density
   Simone Kossmann        : Meta GGA functionals, TD-DFT gradient, OOMP2, MP2 Hessian
   Martin Krupicka        : AUTO-CI
   Lucas Lang             : DCDCAS
   Dagmar Lenk            : GEPOL surface, SMD
   Dimitrios Liakos       : Extrapolation schemes; parallel MDCI
   Dimitrios Manganas     : ROCIS; embedding schemes
   Dimitrios Pantazis     : SARC Basis sets
   Taras Petrenko         : DFT Hessian,TD-DFT gradient, ASA, ECA, R-Raman, ABS, FL, XAS/XES, NRVS
   Peter Pinski           : DLPNO-MP2, DLPNO-MP2 Gradient
   Christoph Reimann      : Effective Core Potentials
   Marius Retegan         : Local ZFS, SOC
   Christoph Riplinger    : Optimizer, TS searches, QM/MM, DLPNO-CCSD(T), (RO)-DLPNO pert. Triples
   Tobias Risthaus        : Range-separated hybrids, TD-DFT gradient, RPA, STAB
   Michael Roemelt        : Restricted open shell CIS
   Masaaki Saitow         : Open-shell DLPNO
   Barbara Sandhoefer     : DKH picture change effects
   Avijit Sen             : IP-ROCIS
   Kantharuban Sivalingam : CASSCF convergence, NEVPT2, FIC-MRCI
   Bernardo de Souza      : ESD, SOC TD-DFT
   Georgi Stoychev        : AutoAux, RI-MP2 NMR
   Willem Van den Heuvel  : Paramagnetic NMR
   Boris Wezisla          : Elementary symmetry handling
   Frank Wennmohs         : Technical directorship


 We gratefully acknowledge several colleagues who have allowed us to
 interface, adapt or use parts of their codes:
   Stefan Grimme, W. Hujo, H. Kruse,             : VdW corrections, initial TS optimization,
                  C. Bannwarth                     DFT functionals, gCP, sTDA/sTD-DF
   Ed Valeev                                     : LibInt (2-el integral package), F12 methods
   Garnet Chan, S. Sharma, J. Yang, R. Olivares  : DMRG
   Ulf Ekstrom                                   : XCFun DFT Library
   Mihaly Kallay                                 : mrcc  (arbitrary order and MRCC methods)
   Andreas Klamt, Michael Diedenhofen            : otool_cosmo (COSMO solvation model)
   Jiri Pittner, Ondrej Demel                    : Mk-CCSD
   Frank Weinhold                                : gennbo (NPA and NBO analysis)
   Christopher J. Cramer and Donald G. Truhlar   : smd solvation model
   Lars Goerigk                                  : TD-DFT with DH, B97 family of functionals
   V. Asgeirsson, H. Jonsson                     : NEB implementation
   FAccTs GmbH                                   : IRC, NEB, NEB-TS, Multilevel


 Your calculation uses the libint2 library for the computation of 2-el integrals
 For citations please refer to: http://libint.valeyev.net

 This ORCA versions uses:
   CBLAS   interface :  Fast vector & matrix operations
   LAPACKE interface :  Fast linear algebra routines
   SCALAPACK package :  Parallel linear algebra routines


----- Orbital basis set information -----
Your calculation utilizes the basis: aug-cc-pVTZ 
    H, B-Ne : Obtained from the ccRepo (grant-hill.group.shef.ac.uk/ccrepo) Feb. 2017
              R. A. Kendall, T. H. Dunning, Jr., R. J. Harrison, J. Chem. Phys. 96, 6796 (1992)
         He : Obtained from the ccRepo (grant-hill.group.shef.ac.uk/ccrepo) Feb. 2017
              D. E. Woon, T. H. Dunning, Jr., J. Chem. Phys. 100, 2975 (1994)
  Li-Be, Na : Obtained from the ccRepo (grant-hill.group.shef.ac.uk/ccrepo) Feb. 2017
              B. P. Prascher, D. E. Woon, K. A. Peterson, T. H. Dunning, Jr., A. K. Wilson, Theor. Chem. Acc. 128, 69 (2011)
         Mg : Obtained from the Peterson Research Group Website (tyr0.chem.wsu.edu/~kipeters) Feb. 2017
              B. P. Prascher, D. E. Woon, K. A. Peterson, T. H. Dunning, Jr., A. K. Wilson, Theor. Chem. Acc. 128, 69 (2011)
      Al-Ar : Obtained from the ccRepo (grant-hill.group.shef.ac.uk/ccrepo) Feb. 2017
              D. E. Woon, T. H. Dunning, Jr., J. Chem. Phys. 98, 1358 (1993)
      Sc-Zn : Obtained from the ccRepo (grant-hill.group.shef.ac.uk/ccrepo) Feb. 2017
              N. B. Balabanov, K. A. Peterson, J. Chem. Phys. 123, 064107 (2005)
              N. B. Balabanov, K. A. Peterson, J. Chem. Phys. 125, 074110 (2006)
      Ga-Kr : Obtained from the ccRepo (grant-hill.group.shef.ac.uk/ccrepo) Feb. 2017
              A. K. Wilson, D. E. Woon, K. A. Peterson, T. H. Dunning, Jr., J. Chem. Phys. 110, 7667 (1999)
     Ag, Au : Obtained from the Peterson Research Group Website (tyr0.chem.wsu.edu/~kipeters) Feb. 2017
              K. A. Peterson, C. Puzzarini, Theor. Chem. Acc. 114, 283 (2005)

----- AuxJ basis set information -----
Your calculation utilizes the AutoAux generation procedure.
  G. L. Stoychev, A. A. Auer, F. Neese, J. Chem. Theory Comput. 13, 554 (2017)

----- AuxC basis set information -----
Your calculation utilizes the auxiliary basis: aug-cc-pVTZ/C 
  H-He, B-F, Al-Ar, Ga-Kr : Obtained from the EMSL Basis Set Exchange (bse.pnl.gov) Feb. 2017
                            F. Weigend, A. Kohn, C. Hattig, J. Chem. Phys. 116, 3175 (2002)
                   Be, Mg : Obtained from the TURBOMOLE 7.0 basis set library
                            C. Haettig, Phys. Chem. Chem. Phys. 7, 59 (2005)
                       Ne : Obtained from the EMSL Basis Set Exchange (bse.pnl.gov) Feb. 2017
                            C. Haettig, Phys. Chem. Chem. Phys. 7, 59 (2005)
                            F. Weigend, A. Kohn, C. Hattig, J. Chem. Phys. 116, 3175 (2002)
                    Sc-Zn : Obtained from the EMSL Basis Set Exchange (bse.pnl.gov) Feb. 2017
                            J. G. Hill, J. A. Platts, J. Chem. Phys. 128, 044104 (2008)

----- AuxJK basis set information -----
Your calculation utilizes the AutoAux generation procedure.
  G. L. Stoychev, A. A. Auer, F. Neese, J. Chem. Theory Comput. 13, 554 (2017)

================================================================================
                                        WARNINGS
                       Please study these warnings very carefully!
================================================================================


WARNING: your system is open-shell and RHF/RKS was chosen
  ===> : WILL SWITCH to UHF/UKS


WARNING: MDCI localization with Augmented Hessian Foster-Boys
  ===> : Switching off randomization!

WARNING: Post HF methods need fully converged wavefunctions
  ===> : Setting SCFConvForced true
         You can overwrite this default with %scf ConvForced false 


INFO   : the flag for use of LIBINT has been found!

================================================================================
                                       INPUT FILE
================================================================================
NAME = simple-grid-250-295-b3lyp_d3bj-631gd-gas-singlepoint-DLPNO_CCSD_T1-NormalPNO-augtz-gas.inp
|  1> ! aug-cc-pVTZ aug-cc-pVTZ/C DLPNO-CCSD(T1) TightSCF NormalPNO UNO MiniPrint AutoAux
|  2> %pal nproc 10 end
|  3> %maxcore 20000
|  4> %mdci
|  5>      density none
|  6> end
|  7> 
|  8> * xyz 0 6
|  9>  O      0.18565400      0.35773700     -0.85770300
| 10>  C      1.02649100      1.27823800     -0.66260400
| 11>  C      2.92744400      0.25110300      0.59492400
| 12>  C      2.74371500     -0.89919600     -0.09679900
| 13>  C      3.39227800     -1.13048100     -1.43192200
| 14> Fe     -1.49530100     -0.17036900     -0.01246100
| 15> Cl     -2.02315200     -2.03557400     -1.00538900
| 16>  C      1.84724500     -2.00702200      0.36617000
| 17> Cl     -2.76628200      1.55538600     -0.45278400
| 18> Cl     -1.12316800     -0.40436800      2.14079600
| 19>  H      3.63243200      0.96971000      0.17794600
| 20>  H      2.38624800     -2.96282500      0.36315900
| 21>  H      1.42881100     -1.84638300      1.35943300
| 22>  H      1.01172000     -2.12249900     -0.33907300
| 23>  H      4.02081000     -2.02939600     -1.38657600
| 24>  H      2.63816100     -1.32288100     -2.20725000
| 25>  H      4.02323000     -0.29429200     -1.74432000
| 26>  C      2.58817700      0.45175300      2.05243100
| 27>  H      3.33639300     -0.05454700      2.67647500
| 28>  H      2.61290500      1.50910800      2.32757800
| 29>  H      1.60895300      0.05423600      2.32747800
| 30>  C      0.79628000      2.27936900      0.43089000
| 31>  H      1.67984100      2.88417800      0.63691400
| 32>  H      0.00026200      2.93992200      0.05598700
| 33>  H      0.42505300      1.81289300      1.34316000
| 34>  C      1.85179500      1.70420900     -1.84457600
| 35>  H      1.23094600      2.42551200     -2.39552400
| 36>  H      2.77490400      2.20786900     -1.55584500
| 37>  H      2.05561800      0.86671500     -2.50960800
| 38> *
| 39> 
| 40> 
| 41>                          ****END OF INPUT****
================================================================================

                       ****************************
                       * Single Point Calculation *
                       ****************************

---------------------------------
CARTESIAN COORDINATES (ANGSTROEM)
---------------------------------
  O      0.185654    0.357737   -0.857703
  C      1.026491    1.278238   -0.662604
  C      2.927444    0.251103    0.594924
  C      2.743715   -0.899196   -0.096799
  C      3.392278   -1.130481   -1.431922
  Fe    -1.495301   -0.170369   -0.012461
  Cl    -2.023152   -2.035574   -1.005389
  C      1.847245   -2.007022    0.366170
  Cl    -2.766282    1.555386   -0.452784
  Cl    -1.123168   -0.404368    2.140796
  H      3.632432    0.969710    0.177946
  H      2.386248   -2.962825    0.363159
  H      1.428811   -1.846383    1.359433
  H      1.011720   -2.122499   -0.339073
  H      4.020810   -2.029396   -1.386576
  H      2.638161   -1.322881   -2.207250
  H      4.023230   -0.294292   -1.744320
  C      2.588177    0.451753    2.052431
  H      3.336393   -0.054547    2.676475
  H      2.612905    1.509108    2.327578
  H      1.608953    0.054236    2.327478
  C      0.796280    2.279369    0.430890
  H      1.679841    2.884178    0.636914
  H      0.000262    2.939922    0.055987
  H      0.425053    1.812893    1.343160
  C      1.851795    1.704209   -1.844576
  H      1.230946    2.425512   -2.395524
  H      2.774904    2.207869   -1.555845
  H      2.055618    0.866715   -2.509608

----------------------------
CARTESIAN COORDINATES (A.U.)
----------------------------
  NO LB      ZA    FRAG     MASS         X           Y           Z
   0 O     8.0000    0    15.999    0.350835    0.676025   -1.620824
   1 C     6.0000    0    12.011    1.939787    2.415520   -1.252140
   2 C     6.0000    0    12.011    5.532067    0.474516    1.124243
   3 C     6.0000    0    12.011    5.184870   -1.699234   -0.182924
   4 C     6.0000    0    12.011    6.410476   -2.136299   -2.705940
   5 Fe   26.0000    0    55.850   -2.825709   -0.321951   -0.023548
   6 Cl   17.0000    0    35.453   -3.823203   -3.846677   -1.899910
   7 C     6.0000    0    12.011    3.490787   -3.792722    0.691961
   8 Cl   17.0000    0    35.453   -5.227515    2.939254   -0.855638
   9 Cl   17.0000    0    35.453   -2.122480   -0.764145    4.045518
  10 H     1.0000    0     1.008    6.864302    1.832486    0.336269
  11 H     1.0000    0     1.008    4.509355   -5.598928    0.686271
  12 H     1.0000    0     1.008    2.700061   -3.489158    2.568956
  13 H     1.0000    0     1.008    1.911874   -4.010942   -0.640755
  14 H     1.0000    0     1.008    7.598230   -3.835003   -2.620249
  15 H     1.0000    0     1.008    4.985402   -2.499883   -4.171098
  16 H     1.0000    0     1.008    7.602803   -0.556131   -3.296287
  17 C     6.0000    0    12.011    4.890946    0.853689    3.878532
  18 H     1.0000    0     1.008    6.304869   -0.103079    5.057805
  19 H     1.0000    0     1.008    4.937675    2.851801    4.398485
  20 H     1.0000    0     1.008    3.040481    0.102491    4.398296
  21 C     6.0000    0    12.011    1.504751    4.307383    0.814264
  22 H     1.0000    0     1.008    3.174439    5.450307    1.203593
  23 H     1.0000    0     1.008    0.000495    5.555647    0.105800
  24 H     1.0000    0     1.008    0.803234    3.425871    2.538205
  25 C     6.0000    0    12.011    3.499385    3.220488   -3.485743
  26 H     1.0000    0     1.008    2.326151    4.583553   -4.526884
  27 H     1.0000    0     1.008    5.243809    4.172268   -2.940121
  28 H     1.0000    0     1.008    3.884555    1.637854   -4.742472



           ************************************************************
           *        Program running with 10 parallel MPI-processes    *
           *              working on a common directory               *
           ************************************************************


           ************************************************************
           *        Program running with 10 parallel MPI-processes    *
           *              working on a common directory               *
           ************************************************************

Diagonalization of the overlap matrix:
Smallest eigenvalue                        ... 9.401e-07
Time for diagonalization                   ...    0.333 sec
Threshold for overlap eigenvalues          ... 1.000e-08
Number of eigenvalues below threshold      ... 0
Time for construction of square roots      ...    0.272 sec
Total time needed                          ...    0.610 sec

-------------------
DFT GRID GENERATION
-------------------

General Integration Accuracy     IntAcc      ...  4.340
Radial Grid Type                 RadialGrid  ... Gauss-Chebyshev
Angular Grid (max. acc.)         AngularGrid ... Lebedev-110
Angular grid pruning method      GridPruning ... 3 (G Style)
Weight generation scheme         WeightScheme... Becke
Basis function cutoff            BFCut       ...    1.0000e-11
Integration weight cutoff        WCut        ...    1.0000e-14
Grids for H and He will be reduced by one unit

# of grid points (after initial pruning)     ...  36112 (   0.0 sec)
# of grid points (after weights+screening)   ...  32428 (   0.1 sec)
nearest neighbour list constructed           ...    0.0 sec
Grid point re-assignment to atoms done       ...    0.0 sec
Grid point division into batches done        ...    0.0 sec
Reduced shell lists constructed in    0.2 sec

Total number of grid points                  ...    32428
Total number of batches                      ...      524
Average number of points per batch           ...       61
Average number of grid points per atom       ...     1118
Average number of shells per batch           ...   287.39 (83.79%)
Average number of basis functions per batch  ...   852.54 (83.17%)
Average number of large shells per batch     ...   232.81 (81.01%)
Average number of large basis fcns per batch ...   692.07 (81.18%)
Maximum spatial batch extension              ...   5.03,  4.93,  7.44 au
Average spatial batch extension              ...   0.19,  0.19,  0.19 au

Time for grid setup =    0.356 sec

Loading Hartree-Fock densities                     ... done
Calculating cut-offs                               ... done
Setting up the integral package                    ... done
Initializing the effective Hamiltonian             ... done
Starting the Coulomb interaction                   ... done (   1.1 sec)
Reading the grid                                   ... done
Mapping shells                                     ... done
Starting the XC term evaluation                    ... done (   0.9 sec)
Transforming the Hamiltonian                       ... done (   0.2 sec)
Diagonalizing the Hamiltonian                      ... done (   0.4 sec)
Back transforming the eigenvectors                 ... done (   0.1 sec)
Now organizing SCF variables                       ... done
--------------
SCF ITERATIONS
--------------
ITER       Energy         Delta-E        Max-DP      RMS-DP      [F,P]     Damp
               ***  Starting incremental Fock matrix formation  ***
  0  -3027.5929699438   0.000000000000 0.18760247  0.00096156  0.2491108 0.7000
  1  -3027.8450125413  -0.252042597491 0.14001655  0.00075331  0.1519214 0.7000
                               ***Turning on DIIS***
  2  -3028.0139356386  -0.168923097284 0.09952953  0.00055546  0.1094983 0.7000
  3  -3029.6006458276  -1.586710189027 0.24518963  0.00140062  0.0818321 0.0000
  4  -3028.3109469621   1.289698865476 0.04239234  0.00021416  0.0196281 0.0000
  5  -3028.4305846990  -0.119637736872 0.03969592  0.00017098  0.0107416 0.0000
  6  -3028.4778863553  -0.047301656286 0.01973255  0.00006941  0.0052415 0.0000
  7  -3028.4909213006  -0.013034945283 0.00867895  0.00003218  0.0031952 0.0000
  8  -3028.4794431764   0.011478124138 0.00639470  0.00001844  0.0015630 0.0000
  9  -3028.4756553666   0.003787809799 0.00231645  0.00001080  0.0006945 0.0000
 10  -3028.4634605413   0.012194825353 0.00091077  0.00000320  0.0004017 0.0000
 11  -3028.4688230770  -0.005362535712 0.00026708  0.00000168  0.0000805 0.0000
 12  -3028.4668618481   0.001961228892 0.00021543  0.00000115  0.0000221 0.0000
 13  -3028.4668608838   0.000000964248 0.00041639  0.00000163  0.0000088 0.0000
 14  -3028.4668802452  -0.000019361359 0.00036042  0.00000167  0.0000055 0.0000
 15  -3028.4668310074   0.000049237796 0.00047297  0.00000158  0.0000032 0.0000
 16  -3028.4668391043  -0.000008096858 0.00044189  0.00000185  0.0000027 0.0000
 17  -3028.4668546324  -0.000015528120 0.00039133  0.00000144  0.0000018 0.0000
 18  -3028.4668385552   0.000016077169 0.00080769  0.00000299  0.0000014 0.0000
                            ***DIIS convergence achieved***

               *****************************************************
               *                     SUCCESS                       *
               *           SCF CONVERGED AFTER  19 CYCLES          *
               *****************************************************

Total Energy       :        -3028.46684375 Eh          -82408.77240 eV
  Last Energy change         ...   -5.1942e-06  Tolerance :   1.0000e-08
  Last MAX-Density change    ...    3.8955e-04  Tolerance :   1.0000e-07
             **** THE GBW FILE WAS UPDATED (simple-grid-250-295-b3lyp_d3bj-631gd-gas-singlepoint-DLPNO_CCSD_T1-NormalPNO-augtz-gas.gbw) ****
             **** DENSITY FILE WAS UPDATED (simple-grid-250-295-b3lyp_d3bj-631gd-gas-singlepoint-DLPNO_CCSD_T1-NormalPNO-augtz-gas.scfp.tmp) ****
             **** ENERGY FILE WAS UPDATED (simple-grid-250-295-b3lyp_d3bj-631gd-gas-singlepoint-DLPNO_CCSD_T1-NormalPNO-augtz-gas.en.tmp) ****
----------------------
UHF SPIN CONTAMINATION
----------------------

Expectation value of <S**2>     :     8.764890
Ideal value S*(S+1) for S=2.5   :     8.750000
Deviation                       :     0.014890

----------------
ORBITAL ENERGIES
----------------
                 SPIN UP ORBITALS
  NO   OCC          E(Eh)            E(eV) 
   0   1.0000    -261.572320     -7117.7447 
   1   1.0000    -104.792056     -2851.5368 
   2   1.0000    -104.788380     -2851.4368 
   3   1.0000    -104.786064     -2851.3738 
   4   1.0000     -32.240077      -877.2971 
   5   1.0000     -27.716502      -754.2044 
   6   1.0000     -27.715456      -754.1759 
   7   1.0000     -27.715246      -754.1702 
   8   1.0000     -20.614150      -560.9395 
   9   1.0000     -11.420223      -310.7601 
  10   1.0000     -11.277516      -306.8768 
  11   1.0000     -11.275812      -306.8304 
  12   1.0000     -11.271221      -306.7055 
  13   1.0000     -11.249020      -306.1014 
  14   1.0000     -11.248729      -306.0935 
  15   1.0000     -11.236913      -305.7719 
  16   1.0000     -11.234106      -305.6956 
  17   1.0000     -10.518777      -286.2305 
  18   1.0000     -10.515060      -286.1293 
  19   1.0000     -10.512696      -286.0650 
  20   1.0000      -7.985614      -217.2996 
  21   1.0000      -7.984847      -217.2787 
  22   1.0000      -7.984806      -217.2776 
  23   1.0000      -7.981923      -217.1992 
  24   1.0000      -7.981162      -217.1785 
  25   1.0000      -7.981110      -217.1770 
  26   1.0000      -7.979495      -217.1331 
  27   1.0000      -7.978827      -217.1149 
  28   1.0000      -7.978767      -217.1133 
  29   1.0000      -4.595049      -125.0376 
  30   1.0000      -3.208187       -87.2992 
  31   1.0000      -3.206510       -87.2536 
  32   1.0000      -3.206315       -87.2483 
  33   1.0000      -1.456921       -39.6448 
  34   1.0000      -1.132822       -30.8256 
  35   1.0000      -1.097806       -29.8728 
  36   1.0000      -1.064719       -28.9725 
  37   1.0000      -1.058768       -28.8105 
  38   1.0000      -1.055429       -28.7197 
  39   1.0000      -1.023705       -27.8564 
  40   1.0000      -1.007914       -27.4267 
  41   1.0000      -0.963840       -26.2274 
  42   1.0000      -0.940307       -25.5870 
  43   1.0000      -0.924064       -25.1451 
  44   1.0000      -0.923905       -25.1407 
  45   1.0000      -0.913507       -24.8578 
  46   1.0000      -0.912765       -24.8376 
  47   1.0000      -0.899819       -24.4853 
  48   1.0000      -0.810965       -22.0675 
  49   1.0000      -0.735459       -20.0128 
  50   1.0000      -0.707975       -19.2650 
  51   1.0000      -0.698091       -18.9960 
  52   1.0000      -0.682772       -18.5792 
  53   1.0000      -0.659249       -17.9391 
  54   1.0000      -0.625454       -17.0195 
  55   1.0000      -0.621038       -16.8993 
  56   1.0000      -0.605791       -16.4844 
  57   1.0000      -0.598774       -16.2935 
  58   1.0000      -0.584955       -15.9174 
  59   1.0000      -0.576901       -15.6983 
  60   1.0000      -0.561129       -15.2691 
  61   1.0000      -0.556150       -15.1336 
  62   1.0000      -0.545728       -14.8500 
  63   1.0000      -0.544718       -14.8225 
  64   1.0000      -0.535486       -14.5713 
  65   1.0000      -0.528285       -14.3754 
  66   1.0000      -0.501184       -13.6379 
  67   1.0000      -0.497242       -13.5306 
  68   1.0000      -0.475273       -12.9328 
  69   1.0000      -0.473557       -12.8861 
  70   1.0000      -0.444556       -12.0970 
  71   1.0000      -0.438631       -11.9357 
  72   1.0000      -0.436577       -11.8799 
  73   1.0000      -0.428224       -11.6526 
  74   1.0000      -0.426979       -11.6187 
  75   1.0000      -0.425577       -11.5805 
  76   1.0000      -0.363149        -9.8818 
  77   0.0000       0.012296         0.3346 
  78   0.0000       0.022972         0.6251 
  79   0.0000       0.023855         0.6491 
  80   0.0000       0.030266         0.8236 
  81   0.0000       0.038960         1.0602 
  82   0.0000       0.040858         1.1118 
  83   0.0000       0.042585         1.1588 
  84   0.0000       0.043535         1.1846 
  85   0.0000       0.044461         1.2098 
  86   0.0000       0.055484         1.5098 
  87   0.0000       0.057014         1.5514 
  88   0.0000       0.061287         1.6677 
  89   0.0000       0.063136         1.7180 
  90   0.0000       0.063688         1.7330 
  91   0.0000       0.066059         1.7976 
  92   0.0000       0.072349         1.9687 
  93   0.0000       0.077489         2.1086 
  94   0.0000       0.082833         2.2540 
  95   0.0000       0.089724         2.4415 
  96   0.0000       0.091220         2.4822 
  97   0.0000       0.093862         2.5541 
  98   0.0000       0.099101         2.6967 
  99   0.0000       0.101606         2.7648 
 100   0.0000       0.103750         2.8232 
 101   0.0000       0.107594         2.9278 
 102   0.0000       0.116987         3.1834 
 103   0.0000       0.120544         3.2802 
 104   0.0000       0.122721         3.3394 
 105   0.0000       0.123230         3.3533 
 106   0.0000       0.125748         3.4218 
 107   0.0000       0.127648         3.4735 
 108   0.0000       0.130809         3.5595 
 109   0.0000       0.133162         3.6235 
 110   0.0000       0.133780         3.6403 
 111   0.0000       0.138011         3.7555 
 112   0.0000       0.143141         3.8951 
 113   0.0000       0.145915         3.9706 
 114   0.0000       0.149755         4.0750 
 115   0.0000       0.151423         4.1204 
 116   0.0000       0.156211         4.2507 
 117   0.0000       0.160837         4.3766 
 118   0.0000       0.161835         4.4038 
 119   0.0000       0.165691         4.5087 
 120   0.0000       0.168721         4.5911 
 121   0.0000       0.170900         4.6504 
 122   0.0000       0.173252         4.7144 
 123   0.0000       0.178533         4.8581 
 124   0.0000       0.181949         4.9511 
 125   0.0000       0.184524         5.0212 
 126   0.0000       0.185076         5.0362 
 127   0.0000       0.189753         5.1634 
 128   0.0000       0.193608         5.2683 
 129   0.0000       0.197352         5.3702 
 130   0.0000       0.198463         5.4004 
 131   0.0000       0.200073         5.4443 
 132   0.0000       0.205242         5.5849 
 133   0.0000       0.207592         5.6489 
 134   0.0000       0.211520         5.7557 
 135   0.0000       0.217783         5.9262 
 136   0.0000       0.218478         5.9451 
 137   0.0000       0.223724         6.0878 
 138   0.0000       0.227185         6.1820 
 139   0.0000       0.231755         6.3064 
 140   0.0000       0.233051         6.3416 
 141   0.0000       0.235117         6.3979 
 142   0.0000       0.237928         6.4744 
 143   0.0000       0.240512         6.5447 
 144   0.0000       0.241845         6.5809 
 145   0.0000       0.244753         6.6601 
 146   0.0000       0.253057         6.8860 
 147   0.0000       0.255690         6.9577 
 148   0.0000       0.257148         6.9973 
 149   0.0000       0.260552         7.0900 
 150   0.0000       0.263042         7.1577 
 151   0.0000       0.268171         7.2973 
 152   0.0000       0.275312         7.4916 
 153   0.0000       0.280462         7.6318 
 154   0.0000       0.282170         7.6782 
 155   0.0000       0.285201         7.7607 
 156   0.0000       0.288872         7.8606 
 157   0.0000       0.291291         7.9264 
 158   0.0000       0.294991         8.0271 
 159   0.0000       0.305095         8.3021 
 160   0.0000       0.308447         8.3933 
 161   0.0000       0.310021         8.4361 
 162   0.0000       0.318310         8.6617 
 163   0.0000       0.319135         8.6841 
 164   0.0000       0.322768         8.7830 
 165   0.0000       0.325821         8.8660 
 166   0.0000       0.333515         9.0754 
 167   0.0000       0.335011         9.1161 
 168   0.0000       0.339561         9.2399 
 169   0.0000       0.341447         9.2912 
 170   0.0000       0.343455         9.3459 
 171   0.0000       0.351685         9.5698 
 172   0.0000       0.354060         9.6345 
 173   0.0000       0.357161         9.7188 
 174   0.0000       0.359221         9.7749 
 175   0.0000       0.366878         9.9833 
 176   0.0000       0.370342        10.0775 
 177   0.0000       0.370984        10.0950 
 178   0.0000       0.374273        10.1845 
 179   0.0000       0.375308        10.2126 
 180   0.0000       0.381304        10.3758 
 181   0.0000       0.382661        10.4127 
 182   0.0000       0.382958        10.4208 
 183   0.0000       0.384892        10.4734 
 184   0.0000       0.386761        10.5243 
 185   0.0000       0.388964        10.5842 
 186   0.0000       0.395114        10.7516 
 187   0.0000       0.400061        10.8862 
 188   0.0000       0.401328        10.9207 
 189   0.0000       0.402865        10.9625 
 190   0.0000       0.411413        11.1951 
 191   0.0000       0.413189        11.2434 
 192   0.0000       0.417368        11.3572 
 193   0.0000       0.422372        11.4933 
 194   0.0000       0.426165        11.5965 
 195   0.0000       0.431546        11.7430 
 196   0.0000       0.435537        11.8516 
 197   0.0000       0.438645        11.9361 
 198   0.0000       0.442572        12.0430 
 199   0.0000       0.445085        12.1114 
 200   0.0000       0.448557        12.2058 
 201   0.0000       0.449970        12.2443 
 202   0.0000       0.453246        12.3334 
 203   0.0000       0.457111        12.4386 
 204   0.0000       0.459710        12.5094 
 205   0.0000       0.464299        12.6342 
 206   0.0000       0.468920        12.7600 
 207   0.0000       0.471583        12.8324 
 208   0.0000       0.478629        13.0242 
 209   0.0000       0.479863        13.0577 
 210   0.0000       0.484106        13.1732 
 211   0.0000       0.486917        13.2497 
 212   0.0000       0.489833        13.3290 
 213   0.0000       0.492949        13.4138 
 214   0.0000       0.498599        13.5676 
 215   0.0000       0.500559        13.6209 
 216   0.0000       0.501666        13.6510 
 217   0.0000       0.506938        13.7945 
 218   0.0000       0.510832        13.9004 
 219   0.0000       0.512561        13.9475 
 220   0.0000       0.515184        14.0189 
 221   0.0000       0.516894        14.0654 
 222   0.0000       0.523079        14.2337 
 223   0.0000       0.524870        14.2824 
 224   0.0000       0.526262        14.3203 
 225   0.0000       0.528442        14.3796 
 226   0.0000       0.531288        14.4571 
 227   0.0000       0.534350        14.5404 
 228   0.0000       0.539815        14.6891 
 229   0.0000       0.540069        14.6960 
 230   0.0000       0.543923        14.8009 
 231   0.0000       0.548868        14.9355 
 232   0.0000       0.554158        15.0794 
 233   0.0000       0.556875        15.1534 
 234   0.0000       0.560628        15.2555 
 235   0.0000       0.564385        15.3577 
 236   0.0000       0.568511        15.4700 
 237   0.0000       0.573734        15.6121 
 238   0.0000       0.577077        15.7031 
 239   0.0000       0.581958        15.8359 
 240   0.0000       0.582885        15.8611 
 241   0.0000       0.584697        15.9104 
 242   0.0000       0.588409        16.0114 
 243   0.0000       0.592861        16.1326 
 244   0.0000       0.596617        16.2348 
 245   0.0000       0.599150        16.3037 
 246   0.0000       0.604886        16.4598 
 247   0.0000       0.610488        16.6122 
 248   0.0000       0.611506        16.6399 
 249   0.0000       0.616193        16.7675 
 250   0.0000       0.619711        16.8632 
 251   0.0000       0.624817        17.0021 
 252   0.0000       0.626788        17.0558 
 253   0.0000       0.631750        17.1908 
 254   0.0000       0.636601        17.3228 
 255   0.0000       0.639168        17.3926 
 256   0.0000       0.644049        17.5255 
 257   0.0000       0.647787        17.6272 
 258   0.0000       0.651140        17.7184 
 259   0.0000       0.654629        17.8134 
 260   0.0000       0.658360        17.9149 
 261   0.0000       0.664188        18.0735 
 262   0.0000       0.667066        18.1518 
 263   0.0000       0.669950        18.2303 
 264   0.0000       0.671168        18.2634 
 265   0.0000       0.678811        18.4714 
 266   0.0000       0.685648        18.6574 
 267   0.0000       0.688676        18.7398 
 268   0.0000       0.692973        18.8568 
 269   0.0000       0.695474        18.9248 
 270   0.0000       0.701573        19.0908 
 271   0.0000       0.707803        19.2603 
 272   0.0000       0.711944        19.3730 
 273   0.0000       0.715576        19.4718 
 274   0.0000       0.717805        19.5325 
 275   0.0000       0.721868        19.6430 
 276   0.0000       0.725654        19.7461 
 277   0.0000       0.730054        19.8658 
 278   0.0000       0.736080        20.0298 
 279   0.0000       0.736797        20.0493 
 280   0.0000       0.741803        20.1855 
 281   0.0000       0.747203        20.3324 
 282   0.0000       0.754861        20.5408 
 283   0.0000       0.763325        20.7711 
 284   0.0000       0.767905        20.8958 
 285   0.0000       0.774254        21.0685 
 286   0.0000       0.781479        21.2651 
 287   0.0000       0.785767        21.3818 
 288   0.0000       0.793569        21.5941 
 289   0.0000       0.799947        21.7677 
 290   0.0000       0.807971        21.9860 
 291   0.0000       0.814093        22.1526 
 292   0.0000       0.817414        22.2430 
 293   0.0000       0.824495        22.4356 
 294   0.0000       0.827910        22.5286 
 295   0.0000       0.835183        22.7265 
 296   0.0000       0.839804        22.8522 
 297   0.0000       0.843782        22.9605 
 298   0.0000       0.849696        23.1214 
 299   0.0000       0.851915        23.1818 
 300   0.0000       0.862209        23.4619 
 301   0.0000       0.863455        23.4958 
 302   0.0000       0.869148        23.6507 
 303   0.0000       0.873975        23.7821 
 304   0.0000       0.874690        23.8015 
 305   0.0000       0.880257        23.9530 
 306   0.0000       0.885901        24.1066 
 307   0.0000       0.889445        24.2030 
 308   0.0000       0.899241        24.4696 
 309   0.0000       0.905204        24.6319 
 310   0.0000       0.908567        24.7234 
 311   0.0000       0.914968        24.8976 
 312   0.0000       0.917613        24.9695 
 313   0.0000       0.919412        25.0185 
 314   0.0000       0.924109        25.1463 
 315   0.0000       0.926401        25.2086 
 316   0.0000       0.928840        25.2750 
 317   0.0000       0.935700        25.4617 
 318   0.0000       0.937921        25.5221 
 319   0.0000       0.938703        25.5434 
 320   0.0000       0.942597        25.6494 
 321   0.0000       0.947849        25.7923 
 322   0.0000       0.949366        25.8336 
 323   0.0000       0.954604        25.9761 
 324   0.0000       0.960706        26.1421 
 325   0.0000       0.962382        26.1877 
 326   0.0000       0.967360        26.3232 
 327   0.0000       0.969779        26.3890 
 328   0.0000       0.974925        26.5291 
 329   0.0000       0.976818        26.5806 
 330   0.0000       0.978573        26.6283 
 331   0.0000       0.981479        26.7074 
 332   0.0000       0.982401        26.7325 
 333   0.0000       0.990175        26.9440 
 334   0.0000       0.998155        27.1612 
 335   0.0000       0.999428        27.1958 
 336   0.0000       1.001840        27.2615 
 337   0.0000       1.006190        27.3798 
 338   0.0000       1.007890        27.4261 
 339   0.0000       1.013675        27.5835 
 340   0.0000       1.014552        27.6074 
 341   0.0000       1.018751        27.7216 
 342   0.0000       1.023564        27.8526 
 343   0.0000       1.025001        27.8917 
 344   0.0000       1.028209        27.9790 
 345   0.0000       1.031762        28.0757 
 346   0.0000       1.036975        28.2175 
 347   0.0000       1.041044        28.3282 
 348   0.0000       1.042126        28.3577 
 349   0.0000       1.048809        28.5396 
 350   0.0000       1.051603        28.6156 
 351   0.0000       1.055302        28.7162 
 352   0.0000       1.059431        28.8286 
 353   0.0000       1.062655        28.9163 
 354   0.0000       1.070215        29.1220 
 355   0.0000       1.074094        29.2276 
 356   0.0000       1.075017        29.2527 
 357   0.0000       1.079858        29.3844 
 358   0.0000       1.083976        29.4965 
 359   0.0000       1.088325        29.6148 
 360   0.0000       1.089765        29.6540 
 361   0.0000       1.093319        29.7507 
 362   0.0000       1.097467        29.8636 
 363   0.0000       1.100360        29.9423 
 364   0.0000       1.106257        30.1028 
 365   0.0000       1.110366        30.2146 
 366   0.0000       1.112189        30.2642 
 367   0.0000       1.114743        30.3337 
 368   0.0000       1.121357        30.5137 
 369   0.0000       1.124324        30.5944 
 370   0.0000       1.130552        30.7639 
 371   0.0000       1.135615        30.9017 
 372   0.0000       1.137315        30.9479 
 373   0.0000       1.142313        31.0839 
 374   0.0000       1.146019        31.1848 
 375   0.0000       1.155919        31.4542 
 376   0.0000       1.157356        31.4933 
 377   0.0000       1.164090        31.6765 
 378   0.0000       1.169049        31.8114 
 379   0.0000       1.171587        31.8805 
 380   0.0000       1.175972        31.9998 
 381   0.0000       1.183837        32.2139 
 382   0.0000       1.187414        32.3112 
 383   0.0000       1.189978        32.3809 
 384   0.0000       1.193632        32.4804 
 385   0.0000       1.199984        32.6532 
 386   0.0000       1.203829        32.7579 
 387   0.0000       1.212137        32.9839 
 388   0.0000       1.213719        33.0270 
 389   0.0000       1.222303        33.2606 
 390   0.0000       1.224688        33.3255 
 391   0.0000       1.227900        33.4129 
 392   0.0000       1.231577        33.5129 
 393   0.0000       1.232793        33.5460 
 394   0.0000       1.243083        33.8260 
 395   0.0000       1.245783        33.8995 
 396   0.0000       1.250330        34.0232 
 397   0.0000       1.254559        34.1383 
 398   0.0000       1.260387        34.2969 
 399   0.0000       1.261373        34.3237 
 400   0.0000       1.267168        34.4814 
 401   0.0000       1.271887        34.6098 
 402   0.0000       1.275804        34.7164 
 403   0.0000       1.285902        34.9912 
 404   0.0000       1.290640        35.1201 
 405   0.0000       1.294729        35.2314 
 406   0.0000       1.299481        35.3607 
 407   0.0000       1.304522        35.4978 
 408   0.0000       1.310982        35.6736 
 409   0.0000       1.314096        35.7584 
 410   0.0000       1.319198        35.8972 
 411   0.0000       1.320025        35.9197 
 412   0.0000       1.324661        36.0458 
 413   0.0000       1.327006        36.1097 
 414   0.0000       1.339784        36.4574 
 415   0.0000       1.341082        36.4927 
 416   0.0000       1.344874        36.5959 
 417   0.0000       1.351085        36.7649 
 418   0.0000       1.354432        36.8560 
 419   0.0000       1.364426        37.1279 
 420   0.0000       1.371253        37.3137 
 421   0.0000       1.374682        37.4070 
 422   0.0000       1.380431        37.5634 
 423   0.0000       1.384646        37.6781 
 424   0.0000       1.387565        37.7576 
 425   0.0000       1.395755        37.9804 
 426   0.0000       1.400292        38.1039 
 427   0.0000       1.404441        38.2168 
 428   0.0000       1.413417        38.4610 
 429   0.0000       1.414552        38.4919 
 430   0.0000       1.417938        38.5841 
 431   0.0000       1.425556        38.7914 
 432   0.0000       1.429213        38.8909 
 433   0.0000       1.432889        38.9909 
 434   0.0000       1.437561        39.1180 
 435   0.0000       1.449971        39.4557 
 436   0.0000       1.455197        39.5979 
 437   0.0000       1.460260        39.7357 
 438   0.0000       1.467872        39.9428 
 439   0.0000       1.472496        40.0687 
 440   0.0000       1.476090        40.1664 
 441   0.0000       1.479277        40.2532 
 442   0.0000       1.484085        40.3840 
 443   0.0000       1.488043        40.4917 
 444   0.0000       1.494626        40.6708 
 445   0.0000       1.497375        40.7456 
 446   0.0000       1.504363        40.9358 
 447   0.0000       1.508486        41.0480 
 448   0.0000       1.516622        41.2694 
 449   0.0000       1.518358        41.3166 
 450   0.0000       1.520492        41.3747 
 451   0.0000       1.525038        41.4984 
 452   0.0000       1.535431        41.7812 
 453   0.0000       1.537877        41.8478 
 454   0.0000       1.541369        41.9428 
 455   0.0000       1.548939        42.1488 
 456   0.0000       1.560705        42.4689 
 457   0.0000       1.564781        42.5798 
 458   0.0000       1.566546        42.6279 
 459   0.0000       1.571754        42.7696 
 460   0.0000       1.576216        42.8910 
 461   0.0000       1.583151        43.0797 
 462   0.0000       1.587398        43.1953 
 463   0.0000       1.595140        43.4060 
 464   0.0000       1.599626        43.5280 
 465   0.0000       1.606465        43.7141 
 466   0.0000       1.610604        43.8268 
 467   0.0000       1.612886        43.8889 
 468   0.0000       1.615705        43.9656 
 469   0.0000       1.618410        44.0392 
 470   0.0000       1.627420        44.2843 
 471   0.0000       1.635636        44.5079 
 472   0.0000       1.640719        44.6462 
 473   0.0000       1.645877        44.7866 
 474   0.0000       1.651611        44.9426 
 475   0.0000       1.658956        45.1425 
 476   0.0000       1.665368        45.3170 
 477   0.0000       1.669128        45.4193 
 478   0.0000       1.673450        45.5369 
 479   0.0000       1.680604        45.7316 
 480   0.0000       1.687382        45.9160 
 481   0.0000       1.691817        46.0367 
 482   0.0000       1.698090        46.2074 
 483   0.0000       1.704612        46.3849 
 484   0.0000       1.707394        46.4605 
 485   0.0000       1.712295        46.5939 
 486   0.0000       1.715066        46.6693 
 487   0.0000       1.721762        46.8515 
 488   0.0000       1.730239        47.0822 
 489   0.0000       1.735894        47.2361 
 490   0.0000       1.738842        47.3163 
 491   0.0000       1.746142        47.5149 
 492   0.0000       1.750773        47.6410 
 493   0.0000       1.753320        47.7103 
 494   0.0000       1.756302        47.7914 
 495   0.0000       1.761207        47.9249 
 496   0.0000       1.763098        47.9763 
 497   0.0000       1.769610        48.1535 
 498   0.0000       1.776293        48.3354 
 499   0.0000       1.780711        48.4556 
 500   0.0000       1.792101        48.7656 
 501   0.0000       1.797291        48.9068 
 502   0.0000       1.800322        48.9893 
 503   0.0000       1.803779        49.0833 
 504   0.0000       1.809387        49.2359 
 505   0.0000       1.812717        49.3265 
 506   0.0000       1.819135        49.5012 
 507   0.0000       1.829031        49.7705 
 508   0.0000       1.831715        49.8435 
 509   0.0000       1.836244        49.9668 
 510   0.0000       1.841208        50.1018 
 511   0.0000       1.849555        50.3290 
 512   0.0000       1.856220        50.5103 
 513   0.0000       1.861321        50.6491 
 514   0.0000       1.864628        50.7391 
 515   0.0000       1.870539        50.9000 
 516   0.0000       1.876319        51.0572 
 517   0.0000       1.877864        51.0993 
 518   0.0000       1.882067        51.2136 
 519   0.0000       1.889084        51.4046 
 520   0.0000       1.895411        51.5768 
 521   0.0000       1.903579        51.7990 
 522   0.0000       1.907270        51.8995 
 523   0.0000       1.908168        51.9239 
 524   0.0000       1.912416        52.0395 
 525   0.0000       1.916918        52.1620 
 526   0.0000       1.918599        52.2077 
 527   0.0000       1.929540        52.5054 
 528   0.0000       1.933456        52.6120 
 529   0.0000       1.937232        52.7148 
 530   0.0000       1.943095        52.8743 
 531   0.0000       1.945096        52.9288 
 532   0.0000       1.956042        53.2266 
 533   0.0000       1.958245        53.2865 
 534   0.0000       1.961696        53.3805 
 535   0.0000       1.968650        53.5697 
 536   0.0000       1.979844        53.8743 
 537   0.0000       1.985677        54.0330 
 538   0.0000       1.988333        54.1053 
 539   0.0000       1.995362        54.2966 
 540   0.0000       2.005874        54.5826 
 541   0.0000       2.009893        54.6920 
 542   0.0000       2.024586        55.0918 
 543   0.0000       2.028422        55.1962 
 544   0.0000       2.034734        55.3679 
 545   0.0000       2.039444        55.4961 
 546   0.0000       2.042361        55.5755 
 547   0.0000       2.045142        55.6512 
 548   0.0000       2.055898        55.9438 
 549   0.0000       2.060683        56.0740 
 550   0.0000       2.072385        56.3925 
 551   0.0000       2.077835        56.5408 
 552   0.0000       2.086668        56.7811 
 553   0.0000       2.098578        57.1052 
 554   0.0000       2.104536        57.2673 
 555   0.0000       2.112934        57.4959 
 556   0.0000       2.116608        57.5958 
 557   0.0000       2.118318        57.6424 
 558   0.0000       2.125262        57.8313 
 559   0.0000       2.128917        57.9308 
 560   0.0000       2.142691        58.3056 
 561   0.0000       2.143752        58.3345 
 562   0.0000       2.149287        58.4851 
 563   0.0000       2.160759        58.7972 
 564   0.0000       2.163269        58.8655 
 565   0.0000       2.178829        59.2889 
 566   0.0000       2.184238        59.4361 
 567   0.0000       2.189833        59.5884 
 568   0.0000       2.199485        59.8510 
 569   0.0000       2.200756        59.8856 
 570   0.0000       2.208982        60.1094 
 571   0.0000       2.211532        60.1789 
 572   0.0000       2.217872        60.3514 
 573   0.0000       2.226530        60.5870 
 574   0.0000       2.234364        60.8001 
 575   0.0000       2.240016        60.9539 
 576   0.0000       2.251194        61.2581 
 577   0.0000       2.253164        61.3117 
 578   0.0000       2.261946        61.5507 
 579   0.0000       2.267564        61.7036 
 580   0.0000       2.274176        61.8835 
 581   0.0000       2.282721        62.1160 
 582   0.0000       2.302604        62.6571 
 583   0.0000       2.305258        62.7292 
 584   0.0000       2.315386        63.0048 
 585   0.0000       2.319531        63.1177 
 586   0.0000       2.325995        63.2935 
 587   0.0000       2.330028        63.4033 
 588   0.0000       2.342154        63.7333 
 589   0.0000       2.342375        63.7393 
 590   0.0000       2.352854        64.0244 
 591   0.0000       2.362034        64.2742 
 592   0.0000       2.372180        64.5503 
 593   0.0000       2.378255        64.7156 
 594   0.0000       2.384135        64.8756 
 595   0.0000       2.391613        65.0791 
 596   0.0000       2.399562        65.2954 
 597   0.0000       2.407408        65.5089 
 598   0.0000       2.409573        65.5678 
 599   0.0000       2.419533        65.8388 
 600   0.0000       2.430347        66.1331 
 601   0.0000       2.433441        66.2173 
 602   0.0000       2.442842        66.4731 
 603   0.0000       2.457322        66.8671 
 604   0.0000       2.459894        66.9371 
 605   0.0000       2.468787        67.1791 
 606   0.0000       2.479341        67.4663 
 607   0.0000       2.491945        67.8093 
 608   0.0000       2.500460        68.0410 
 609   0.0000       2.516333        68.4729 
 610   0.0000       2.529208        68.8232 
 611   0.0000       2.536413        69.0193 
 612   0.0000       2.549196        69.3672 
 613   0.0000       2.571351        69.9700 
 614   0.0000       2.578429        70.1626 
 615   0.0000       2.583355        70.2967 
 616   0.0000       2.604089        70.8609 
 617   0.0000       2.607850        70.9632 
 618   0.0000       2.634592        71.6909 
 619   0.0000       2.639611        71.8275 
 620   0.0000       2.645873        71.9979 
 621   0.0000       2.653900        72.2163 
 622   0.0000       2.660976        72.4088 
 623   0.0000       2.666469        72.5583 
 624   0.0000       2.669464        72.6398 
 625   0.0000       2.682114        72.9840 
 626   0.0000       2.690896        73.2230 
 627   0.0000       2.697682        73.4077 
 628   0.0000       2.713042        73.8256 
 629   0.0000       2.722003        74.0695 
 630   0.0000       2.725308        74.1594 
 631   0.0000       2.739516        74.5460 
 632   0.0000       2.748765        74.7977 
 633   0.0000       2.755358        74.9771 
 634   0.0000       2.770128        75.3790 
 635   0.0000       2.776476        75.5517 
 636   0.0000       2.790517        75.9338 
 637   0.0000       2.797127        76.1137 
 638   0.0000       2.798922        76.1625 
 639   0.0000       2.816946        76.6530 
 640   0.0000       2.834797        77.1387 
 641   0.0000       2.846665        77.4617 
 642   0.0000       2.851181        77.5846 
 643   0.0000       2.860788        77.8460 
 644   0.0000       2.877390        78.2978 
 645   0.0000       2.891511        78.6820 
 646   0.0000       2.896808        78.8262 
 647   0.0000       2.909782        79.1792 
 648   0.0000       2.925711        79.6126 
 649   0.0000       2.942097        80.0585 
 650   0.0000       2.944100        80.1130 
 651   0.0000       2.956476        80.4498 
 652   0.0000       2.970110        80.8208 
 653   0.0000       2.979031        81.0636 
 654   0.0000       3.007290        81.8325 
 655   0.0000       3.022783        82.2541 
 656   0.0000       3.033685        82.5508 
 657   0.0000       3.054362        83.1134 
 658   0.0000       3.065457        83.4153 
 659   0.0000       3.084478        83.9329 
 660   0.0000       3.094730        84.2119 
 661   0.0000       3.104774        84.4852 
 662   0.0000       3.122037        84.9549 
 663   0.0000       3.138514        85.4033 
 664   0.0000       3.153095        85.8001 
 665   0.0000       3.176065        86.4251 
 666   0.0000       3.177795        86.4722 
 667   0.0000       3.185906        86.6929 
 668   0.0000       3.204669        87.2035 
 669   0.0000       3.208405        87.3051 
 670   0.0000       3.216447        87.5240 
 671   0.0000       3.225134        87.7603 
 672   0.0000       3.228817        87.8606 
 673   0.0000       3.248267        88.3898 
 674   0.0000       3.249471        88.4226 
 675   0.0000       3.267598        88.9159 
 676   0.0000       3.269097        88.9566 
 677   0.0000       3.280315        89.2619 
 678   0.0000       3.282714        89.3272 
 679   0.0000       3.299219        89.7763 
 680   0.0000       3.309347        90.0519 
 681   0.0000       3.316863        90.2564 
 682   0.0000       3.327678        90.5507 
 683   0.0000       3.333503        90.7092 
 684   0.0000       3.337032        90.8053 
 685   0.0000       3.349657        91.1488 
 686   0.0000       3.362043        91.4858 
 687   0.0000       3.382935        92.0543 
 688   0.0000       3.388648        92.2098 
 689   0.0000       3.402339        92.5824 
 690   0.0000       3.417014        92.9817 
 691   0.0000       3.418533        93.0230 
 692   0.0000       3.433473        93.4295 
 693   0.0000       3.440760        93.6278 
 694   0.0000       3.451305        93.9148 
 695   0.0000       3.459817        94.1464 
 696   0.0000       3.468533        94.3836 
 697   0.0000       3.470714        94.4429 
 698   0.0000       3.483433        94.7890 
 699   0.0000       3.487996        94.9132 
 700   0.0000       3.494240        95.0831 
 701   0.0000       3.502864        95.3178 
 702   0.0000       3.519641        95.7743 
 703   0.0000       3.522323        95.8473 
 704   0.0000       3.530650        96.0739 
 705   0.0000       3.537682        96.2652 
 706   0.0000       3.543272        96.4173 
 707   0.0000       3.552407        96.6659 
 708   0.0000       3.557030        96.7917 
 709   0.0000       3.567100        97.0657 
 710   0.0000       3.569112        97.1205 
 711   0.0000       3.579671        97.4078 
 712   0.0000       3.593446        97.7826 
 713   0.0000       3.606702        98.1434 
 714   0.0000       3.609455        98.2183 
 715   0.0000       3.613393        98.3254 
 716   0.0000       3.626030        98.6693 
 717   0.0000       3.634990        98.9131 
 718   0.0000       3.640955        99.0754 
 719   0.0000       3.649545        99.3092 
 720   0.0000       3.650608        99.3381 
 721   0.0000       3.673512        99.9613 
 722   0.0000       3.676691       100.0479 
 723   0.0000       3.680419       100.1493 
 724   0.0000       3.688450       100.3678 
 725   0.0000       3.704146       100.7949 
 726   0.0000       3.710945       100.9800 
 727   0.0000       3.716129       101.1210 
 728   0.0000       3.720626       101.2434 
 729   0.0000       3.734928       101.6326 
 730   0.0000       3.738423       101.7277 
 731   0.0000       3.749250       102.0223 
 732   0.0000       3.759899       102.3121 
 733   0.0000       3.764866       102.4472 
 734   0.0000       3.769047       102.5610 
 735   0.0000       3.779644       102.8494 
 736   0.0000       3.781232       102.8926 
 737   0.0000       3.788400       103.0876 
 738   0.0000       3.793529       103.2272 
 739   0.0000       3.799070       103.3780 
 740   0.0000       3.801717       103.4500 
 741   0.0000       3.811062       103.7043 
 742   0.0000       3.813029       103.7578 
 743   0.0000       3.824414       104.0676 
 744   0.0000       3.831563       104.2621 
 745   0.0000       3.838884       104.4613 
 746   0.0000       3.856324       104.9359 
 747   0.0000       3.861260       105.0702 
 748   0.0000       3.864471       105.1576 
 749   0.0000       3.875246       105.4508 
 750   0.0000       3.880082       105.5824 
 751   0.0000       3.890802       105.8741 
 752   0.0000       3.896160       106.0199 
 753   0.0000       3.904012       106.2336 
 754   0.0000       3.914678       106.5238 
 755   0.0000       3.916364       106.5697 
 756   0.0000       3.920593       106.6848 
 757   0.0000       3.927954       106.8851 
 758   0.0000       3.937967       107.1575 
 759   0.0000       3.940574       107.2285 
 760   0.0000       3.949163       107.4622 
 761   0.0000       3.953784       107.5879 
 762   0.0000       3.963689       107.8575 
 763   0.0000       3.973159       108.1152 
 764   0.0000       3.977229       108.2259 
 765   0.0000       3.987447       108.5040 
 766   0.0000       3.996467       108.7494 
 767   0.0000       4.000012       108.8459 
 768   0.0000       4.009320       109.0991 
 769   0.0000       4.014880       109.2504 
 770   0.0000       4.018614       109.3520 
 771   0.0000       4.025118       109.5290 
 772   0.0000       4.033919       109.7685 
 773   0.0000       4.039805       109.9287 
 774   0.0000       4.056049       110.3707 
 775   0.0000       4.059069       110.4529 
 776   0.0000       4.062332       110.5417 
 777   0.0000       4.071542       110.7923 
 778   0.0000       4.076195       110.9189 
 779   0.0000       4.094076       111.4055 
 780   0.0000       4.096539       111.4725 
 781   0.0000       4.097472       111.4979 
 782   0.0000       4.104421       111.6870 
 783   0.0000       4.114549       111.9626 
 784   0.0000       4.123695       112.2114 
 785   0.0000       4.131299       112.4183 
 786   0.0000       4.133257       112.4717 
 787   0.0000       4.150699       112.9463 
 788   0.0000       4.152892       113.0059 
 789   0.0000       4.163328       113.2899 
 790   0.0000       4.174378       113.5906 
 791   0.0000       4.182578       113.8137 
 792   0.0000       4.197644       114.2237 
 793   0.0000       4.200219       114.2938 
 794   0.0000       4.204219       114.4026 
 795   0.0000       4.220621       114.8489 
 796   0.0000       4.229587       115.0929 
 797   0.0000       4.239618       115.3659 
 798   0.0000       4.244357       115.4948 
 799   0.0000       4.257648       115.8565 
 800   0.0000       4.261901       115.9722 
 801   0.0000       4.276845       116.3789 
 802   0.0000       4.288386       116.6929 
 803   0.0000       4.293814       116.8406 
 804   0.0000       4.303415       117.1019 
 805   0.0000       4.310768       117.3020 
 806   0.0000       4.314688       117.4086 
 807   0.0000       4.326669       117.7346 
 808   0.0000       4.335610       117.9779 
 809   0.0000       4.343599       118.1953 
 810   0.0000       4.359395       118.6252 
 811   0.0000       4.364719       118.7700 
 812   0.0000       4.371895       118.9653 
 813   0.0000       4.382349       119.2498 
 814   0.0000       4.393977       119.5662 
 815   0.0000       4.401041       119.7584 
 816   0.0000       4.410957       120.0283 
 817   0.0000       4.413786       120.1052 
 818   0.0000       4.430664       120.5645 
 819   0.0000       4.441994       120.8728 
 820   0.0000       4.453122       121.1756 
 821   0.0000       4.456515       121.2680 
 822   0.0000       4.473088       121.7189 
 823   0.0000       4.477897       121.8498 
 824   0.0000       4.495069       122.3171 
 825   0.0000       4.500457       122.4637 
 826   0.0000       4.503593       122.5490 
 827   0.0000       4.509797       122.7178 
 828   0.0000       4.517044       122.9150 
 829   0.0000       4.530424       123.2791 
 830   0.0000       4.544224       123.6546 
 831   0.0000       4.548567       123.7728 
 832   0.0000       4.558680       124.0480 
 833   0.0000       4.565585       124.2359 
 834   0.0000       4.571275       124.3907 
 835   0.0000       4.595453       125.0486 
 836   0.0000       4.600559       125.1876 
 837   0.0000       4.613672       125.5444 
 838   0.0000       4.622372       125.7811 
 839   0.0000       4.639628       126.2507 
 840   0.0000       4.644503       126.3834 
 841   0.0000       4.666958       126.9944 
 842   0.0000       4.669925       127.0751 
 843   0.0000       4.681003       127.3766 
 844   0.0000       4.688441       127.5790 
 845   0.0000       4.703359       127.9849 
 846   0.0000       4.709180       128.1433 
 847   0.0000       4.712281       128.2277 
 848   0.0000       4.718916       128.4082 
 849   0.0000       4.729938       128.7082 
 850   0.0000       4.751587       129.2973 
 851   0.0000       4.765317       129.6709 
 852   0.0000       4.780870       130.0941 
 853   0.0000       4.805386       130.7612 
 854   0.0000       4.809497       130.8731 
 855   0.0000       4.810850       130.9099 
 856   0.0000       4.823646       131.2581 
 857   0.0000       4.831126       131.4616 
 858   0.0000       4.840893       131.7274 
 859   0.0000       4.860970       132.2737 
 860   0.0000       4.877194       132.7152 
 861   0.0000       4.886794       132.9764 
 862   0.0000       4.897871       133.2779 
 863   0.0000       4.915156       133.7482 
 864   0.0000       4.921975       133.9338 
 865   0.0000       4.936820       134.3377 
 866   0.0000       4.940538       134.4389 
 867   0.0000       4.962491       135.0362 
 868   0.0000       4.963297       135.0582 
 869   0.0000       4.973462       135.3348 
 870   0.0000       4.983205       135.5999 
 871   0.0000       4.992074       135.8412 
 872   0.0000       4.999415       136.0410 
 873   0.0000       5.010139       136.3328 
 874   0.0000       5.020025       136.6018 
 875   0.0000       5.033870       136.9786 
 876   0.0000       5.042670       137.2180 
 877   0.0000       5.054686       137.5450 
 878   0.0000       5.059986       137.6892 
 879   0.0000       5.075357       138.1075 
 880   0.0000       5.092048       138.5617 
 881   0.0000       5.110278       139.0577 
 882   0.0000       5.119969       139.3214 
 883   0.0000       5.125932       139.4837 
 884   0.0000       5.144575       139.9910 
 885   0.0000       5.152073       140.1950 
 886   0.0000       5.161579       140.4537 
 887   0.0000       5.175980       140.8456 
 888   0.0000       5.196755       141.4109 
 889   0.0000       5.207665       141.7078 
 890   0.0000       5.215581       141.9232 
 891   0.0000       5.221564       142.0860 
 892   0.0000       5.238976       142.5598 
 893   0.0000       5.253048       142.9427 
 894   0.0000       5.260419       143.1433 
 895   0.0000       5.274572       143.5284 
 896   0.0000       5.280728       143.6959 
 897   0.0000       5.289054       143.9225 
 898   0.0000       5.304599       144.3455 
 899   0.0000       5.317640       144.7003 
 900   0.0000       5.332542       145.1058 
 901   0.0000       5.355798       145.7387 
 902   0.0000       5.369773       146.1190 
 903   0.0000       5.374866       146.2575 
 904   0.0000       5.399015       146.9147 
 905   0.0000       5.414176       147.3272 
 906   0.0000       5.421914       147.5378 
 907   0.0000       5.425722       147.6414 
 908   0.0000       5.433112       147.8425 
 909   0.0000       5.445696       148.1849 
 910   0.0000       5.456662       148.4833 
 911   0.0000       5.463170       148.6604 
 912   0.0000       5.475150       148.9864 
 913   0.0000       5.487448       149.3210 
 914   0.0000       5.505936       149.8241 
 915   0.0000       5.517890       150.1494 
 916   0.0000       5.535972       150.6415 
 917   0.0000       5.547614       150.9582 
 918   0.0000       5.569756       151.5608 
 919   0.0000       5.573341       151.6583 
 920   0.0000       5.586366       152.0128 
 921   0.0000       5.590006       152.1118 
 922   0.0000       5.594234       152.2269 
 923   0.0000       5.611737       152.7031 
 924   0.0000       5.616216       152.8250 
 925   0.0000       5.637579       153.4063 
 926   0.0000       5.647261       153.6698 
 927   0.0000       5.656033       153.9085 
 928   0.0000       5.675298       154.4327 
 929   0.0000       5.678064       154.5080 
 930   0.0000       5.696770       155.0170 
 931   0.0000       5.709032       155.3507 
 932   0.0000       5.713577       155.4743 
 933   0.0000       5.722735       155.7235 
 934   0.0000       5.733802       156.0247 
 935   0.0000       5.758908       156.7079 
 936   0.0000       5.761076       156.7668 
 937   0.0000       5.783829       157.3860 
 938   0.0000       5.793398       157.6464 
 939   0.0000       5.813024       158.1804 
 940   0.0000       5.832420       158.7082 
 941   0.0000       5.852210       159.2467 
 942   0.0000       5.865217       159.6007 
 943   0.0000       5.893742       160.3769 
 944   0.0000       5.912519       160.8878 
 945   0.0000       6.002618       163.3395 
 946   0.0000       6.054446       164.7499 
 947   0.0000       6.059724       164.8935 
 948   0.0000       6.097244       165.9144 
 949   0.0000       6.112542       166.3307 
 950   0.0000       6.145622       167.2309 
 951   0.0000       6.155325       167.4949 
 952   0.0000       6.183305       168.2563 
 953   0.0000       6.193139       168.5239 
 954   0.0000       6.207317       168.9097 
 955   0.0000       6.225710       169.4102 
 956   0.0000       6.243709       169.9000 
 957   0.0000       6.244777       169.9290 
 958   0.0000       6.265391       170.4900 
 959   0.0000       6.275107       170.7543 
 960   0.0000       6.295202       171.3012 
 961   0.0000       6.306922       171.6201 
 962   0.0000       6.313557       171.8006 
 963   0.0000       6.333581       172.3455 
 964   0.0000       6.351034       172.8204 
 965   0.0000       6.361296       173.0997 
 966   0.0000       6.376856       173.5231 
 967   0.0000       6.389720       173.8731 
 968   0.0000       6.445972       175.4038 
 969   0.0000       6.511267       177.1806 
 970   0.0000       6.565625       178.6597 
 971   0.0000       6.623443       180.2330 
 972   0.0000       6.820000       185.5816 
 973   0.0000       6.832267       185.9154 
 974   0.0000       6.850400       186.4089 
 975   0.0000       6.888166       187.4365 
 976   0.0000       6.911978       188.0845 
 977   0.0000       6.927472       188.5061 
 978   0.0000       6.939500       188.8334 
 979   0.0000       6.977368       189.8638 
 980   0.0000       7.006104       190.6458 
 981   0.0000       7.013711       190.8528 
 982   0.0000       7.019891       191.0210 
 983   0.0000       7.034799       191.4266 
 984   0.0000       7.063700       192.2130 
 985   0.0000       7.116842       193.6591 
 986   0.0000       7.219275       196.4465 
 987   0.0000       7.307803       198.8554 
 988   0.0000       7.315755       199.0718 
 989   0.0000       7.381072       200.8492 
 990   0.0000       7.496367       203.9865 
 991   0.0000       7.554801       205.5766 
 992   0.0000       7.613364       207.1702 
 993   0.0000       7.692025       209.3106 
 994   0.0000       7.754340       211.0063 
 995   0.0000       7.853455       213.7034 
 996   0.0000       7.913308       215.3321 
 997   0.0000       7.997369       217.6195 
 998   0.0000       8.260517       224.7801 
 999   0.0000       9.403489       255.8819 
 1000   0.0000       9.414283       256.1757 
 1001   0.0000       9.428587       256.5649 
 1002   0.0000       9.441613       256.9194 
 1003   0.0000       9.454716       257.2759 
 1004   0.0000       9.480459       257.9764 
 1005   0.0000       9.671945       263.1870 
 1006   0.0000      10.086130       274.4576 
 1007   0.0000      10.089133       274.5393 
 1008   0.0000      10.103648       274.9342 
 1009   0.0000      10.203211       277.6435 
 1010   0.0000      10.209042       277.8021 
 1011   0.0000      10.237249       278.5697 
 1012   0.0000      10.336917       281.2818 
 1013   0.0000      10.383057       282.5373 
 1014   0.0000      10.465647       284.7847 
 1015   0.0000      11.411387       310.5196 
 1016   0.0000      16.772901       456.4138 
 1017   0.0000      17.552913       477.6391 
 1018   0.0000      18.193229       495.0629 
 1019   0.0000      18.379982       500.1447 
 1020   0.0000      18.574123       505.4276 
 1021   0.0000      18.724949       509.5318 
 1022   0.0000      20.306555       552.5694 
 1023   0.0000      21.069043       573.3178 
 1024   0.0000      21.535282       586.0048 

                 SPIN DOWN ORBITALS
  NO   OCC          E(Eh)            E(eV) 
   0   1.0000    -261.568741     -7117.6473 
   1   1.0000    -104.790580     -2851.4966 
   2   1.0000    -104.786833     -2851.3947 
   3   1.0000    -104.784515     -2851.3316 
   4   1.0000     -32.078064      -872.8885 
   5   1.0000     -27.555978      -749.8363 
   6   1.0000     -27.555915      -749.8346 
   7   1.0000     -27.555788      -749.8311 
   8   1.0000     -20.610477      -560.8396 
   9   1.0000     -11.420133      -310.7576 
  10   1.0000     -11.277481      -306.8759 
  11   1.0000     -11.275703      -306.8275 
  12   1.0000     -11.271208      -306.7052 
  13   1.0000     -11.249025      -306.1015 
  14   1.0000     -11.248727      -306.0934 
  15   1.0000     -11.236910      -305.7719 
  16   1.0000     -11.234123      -305.6960 
  17   1.0000     -10.517198      -286.1875 
  18   1.0000     -10.513409      -286.0844 
  19   1.0000     -10.511049      -286.0202 
  20   1.0000      -7.983108      -217.2314 
  21   1.0000      -7.982398      -217.2121 
  22   1.0000      -7.982357      -217.2110 
  23   1.0000      -7.979309      -217.1280 
  24   1.0000      -7.978597      -217.1087 
  25   1.0000      -7.978511      -217.1063 
  26   1.0000      -7.977031      -217.0660 
  27   1.0000      -7.976169      -217.0426 
  28   1.0000      -7.976082      -217.0402 
  29   1.0000      -4.152912      -113.0065 
  30   1.0000      -2.674503       -72.7769 
  31   1.0000      -2.674447       -72.7754 
  32   1.0000      -2.673977       -72.7626 
  33   1.0000      -1.447854       -39.3981 
  34   1.0000      -1.132484       -30.8164 
  35   1.0000      -1.095266       -29.8037 
  36   1.0000      -1.049120       -28.5480 
  37   1.0000      -1.036634       -28.2083 
  38   1.0000      -1.032937       -28.1076 
  39   1.0000      -1.023075       -27.8393 
  40   1.0000      -1.007341       -27.4111 
  41   1.0000      -0.963771       -26.2255 
  42   1.0000      -0.899991       -24.4900 
  43   1.0000      -0.824847       -22.4452 
  44   1.0000      -0.735542       -20.0151 
  45   1.0000      -0.710209       -19.3258 
  46   1.0000      -0.697150       -18.9704 
  47   1.0000      -0.682145       -18.5621 
  48   1.0000      -0.659177       -17.9371 
  49   1.0000      -0.625428       -17.0188 
  50   1.0000      -0.620544       -16.8859 
  51   1.0000      -0.605469       -16.4756 
  52   1.0000      -0.598625       -16.2894 
  53   1.0000      -0.584611       -15.9081 
  54   1.0000      -0.575262       -15.6537 
  55   1.0000      -0.560689       -15.2571 
  56   1.0000      -0.555954       -15.1283 
  57   1.0000      -0.544622       -14.8199 
  58   1.0000      -0.544348       -14.8125 
  59   1.0000      -0.529426       -14.4064 
  60   1.0000      -0.522111       -14.2074 
  61   1.0000      -0.502520       -13.6743 
  62   1.0000      -0.497558       -13.5393 
  63   1.0000      -0.483090       -13.1455 
  64   1.0000      -0.480076       -13.0635 
  65   1.0000      -0.452436       -12.3114 
  66   1.0000      -0.448615       -12.2074 
  67   1.0000      -0.445872       -12.1328 
  68   1.0000      -0.429895       -11.6980 
  69   1.0000      -0.426528       -11.6064 
  70   1.0000      -0.411416       -11.1952 
  71   1.0000      -0.362396        -9.8613 
  72   0.0000       0.012279         0.3341 
  73   0.0000       0.022947         0.6244 
  74   0.0000       0.023818         0.6481 
  75   0.0000       0.030149         0.8204 
  76   0.0000       0.038787         1.0555 
  77   0.0000       0.040629         1.1056 
  78   0.0000       0.042436         1.1547 
  79   0.0000       0.043574         1.1857 
  80   0.0000       0.044358         1.2070 
  81   0.0000       0.052038         1.4160 
  82   0.0000       0.056904         1.5484 
  83   0.0000       0.061187         1.6650 
  84   0.0000       0.062358         1.6968 
  85   0.0000       0.063123         1.7177 
  86   0.0000       0.064681         1.7601 
  87   0.0000       0.070927         1.9300 
  88   0.0000       0.077119         2.0985 
  89   0.0000       0.082704         2.2505 
  90   0.0000       0.089310         2.4302 
  91   0.0000       0.091124         2.4796 
  92   0.0000       0.093232         2.5370 
  93   0.0000       0.098428         2.6784 
  94   0.0000       0.101207         2.7540 
  95   0.0000       0.101934         2.7738 
  96   0.0000       0.105139         2.8610 
  97   0.0000       0.108016         2.9393 
  98   0.0000       0.108966         2.9651 
  99   0.0000       0.110663         3.0113 
 100   0.0000       0.113059         3.0765 
 101   0.0000       0.115126         3.1327 
 102   0.0000       0.119365         3.2481 
 103   0.0000       0.122204         3.3253 
 104   0.0000       0.124033         3.3751 
 105   0.0000       0.125057         3.4030 
 106   0.0000       0.126885         3.4527 
 107   0.0000       0.129543         3.5251 
 108   0.0000       0.132661         3.6099 
 109   0.0000       0.134284         3.6541 
 110   0.0000       0.136207         3.7064 
 111   0.0000       0.139016         3.7828 
 112   0.0000       0.145531         3.9601 
 113   0.0000       0.146995         3.9999 
 114   0.0000       0.152122         4.1394 
 115   0.0000       0.152525         4.1504 
 116   0.0000       0.156948         4.2708 
 117   0.0000       0.161438         4.3929 
 118   0.0000       0.162259         4.4153 
 119   0.0000       0.168621         4.5884 
 120   0.0000       0.171763         4.6739 
 121   0.0000       0.172513         4.6943 
 122   0.0000       0.174480         4.7478 
 123   0.0000       0.180289         4.9059 
 124   0.0000       0.182731         4.9724 
 125   0.0000       0.184888         5.0311 
 126   0.0000       0.187036         5.0895 
 127   0.0000       0.190989         5.1971 
 128   0.0000       0.196876         5.3573 
 129   0.0000       0.198690         5.4066 
 130   0.0000       0.199763         5.4358 
 131   0.0000       0.202489         5.5100 
 132   0.0000       0.207268         5.6401 
 133   0.0000       0.210156         5.7186 
 134   0.0000       0.215473         5.8633 
 135   0.0000       0.219395         5.9701 
 136   0.0000       0.224720         6.1149 
 137   0.0000       0.228641         6.2216 
 138   0.0000       0.230511         6.2725 
 139   0.0000       0.234209         6.3732 
 140   0.0000       0.234863         6.3909 
 141   0.0000       0.237754         6.4696 
 142   0.0000       0.241887         6.5821 
 143   0.0000       0.246141         6.6978 
 144   0.0000       0.248372         6.7585 
 145   0.0000       0.251567         6.8455 
 146   0.0000       0.254254         6.9186 
 147   0.0000       0.260659         7.0929 
 148   0.0000       0.264431         7.1955 
 149   0.0000       0.268789         7.3141 
 150   0.0000       0.270057         7.3486 
 151   0.0000       0.274585         7.4718 
 152   0.0000       0.281087         7.6488 
 153   0.0000       0.282003         7.6737 
 154   0.0000       0.286437         7.7943 
 155   0.0000       0.291130         7.9220 
 156   0.0000       0.293814         7.9951 
 157   0.0000       0.296814         8.0767 
 158   0.0000       0.298544         8.1238 
 159   0.0000       0.306040         8.3278 
 160   0.0000       0.310555         8.4506 
 161   0.0000       0.314510         8.5583 
 162   0.0000       0.321088         8.7373 
 163   0.0000       0.323456         8.8017 
 164   0.0000       0.327831         8.9207 
 165   0.0000       0.333510         9.0753 
 166   0.0000       0.335627         9.1329 
 167   0.0000       0.340173         9.2566 
 168   0.0000       0.344155         9.3649 
 169   0.0000       0.345312         9.3964 
 170   0.0000       0.348525         9.4838 
 171   0.0000       0.353169         9.6102 
 172   0.0000       0.357445         9.7266 
 173   0.0000       0.360672         9.8144 
 174   0.0000       0.363749         9.8981 
 175   0.0000       0.367532        10.0011 
 176   0.0000       0.371789        10.1169 
 177   0.0000       0.374803        10.1989 
 178   0.0000       0.378027        10.2866 
 179   0.0000       0.379675        10.3315 
 180   0.0000       0.384753        10.4697 
 181   0.0000       0.386462        10.5162 
 182   0.0000       0.389013        10.5856 
 183   0.0000       0.391378        10.6499 
 184   0.0000       0.391993        10.6667 
 185   0.0000       0.394918        10.7463 
 186   0.0000       0.398609        10.8467 
 187   0.0000       0.402941        10.9646 
 188   0.0000       0.404317        11.0020 
 189   0.0000       0.405639        11.0380 
 190   0.0000       0.414813        11.2876 
 191   0.0000       0.418810        11.3964 
 192   0.0000       0.419546        11.4164 
 193   0.0000       0.427703        11.6384 
 194   0.0000       0.429289        11.6816 
 195   0.0000       0.434066        11.8115 
 196   0.0000       0.437230        11.8976 
 197   0.0000       0.441880        12.0242 
 198   0.0000       0.446925        12.1615 
 199   0.0000       0.448580        12.2065 
 200   0.0000       0.453112        12.3298 
 201   0.0000       0.454456        12.3664 
 202   0.0000       0.457436        12.4475 
 203   0.0000       0.462975        12.5982 
 204   0.0000       0.464753        12.6466 
 205   0.0000       0.467803        12.7296 
 206   0.0000       0.475087        12.9278 
 207   0.0000       0.477557        12.9950 
 208   0.0000       0.482602        13.1323 
 209   0.0000       0.484271        13.1777 
 210   0.0000       0.486566        13.2401 
 211   0.0000       0.491527        13.3751 
 212   0.0000       0.495580        13.4854 
 213   0.0000       0.497303        13.5323 
 214   0.0000       0.500678        13.6242 
 215   0.0000       0.503521        13.7015 
 216   0.0000       0.505020        13.7423 
 217   0.0000       0.508689        13.8421 
 218   0.0000       0.514652        14.0044 
 219   0.0000       0.515975        14.0404 
 220   0.0000       0.520100        14.1526 
 221   0.0000       0.520607        14.1664 
 222   0.0000       0.525905        14.3106 
 223   0.0000       0.527071        14.3423 
 224   0.0000       0.528822        14.3900 
 225   0.0000       0.530958        14.4481 
 226   0.0000       0.535777        14.5792 
 227   0.0000       0.538279        14.6473 
 228   0.0000       0.541062        14.7231 
 229   0.0000       0.542518        14.7627 
 230   0.0000       0.547420        14.8961 
 231   0.0000       0.550679        14.9847 
 232   0.0000       0.557034        15.1577 
 233   0.0000       0.558862        15.2074 
 234   0.0000       0.561655        15.2834 
 235   0.0000       0.565440        15.3864 
 236   0.0000       0.569282        15.4909 
 237   0.0000       0.575108        15.6495 
 238   0.0000       0.579499        15.7690 
 239   0.0000       0.583351        15.8738 
 240   0.0000       0.584654        15.9092 
 241   0.0000       0.586976        15.9724 
 242   0.0000       0.591084        16.0842 
 243   0.0000       0.594855        16.1868 
 244   0.0000       0.598300        16.2806 
 245   0.0000       0.600537        16.3415 
 246   0.0000       0.605957        16.4889 
 247   0.0000       0.613314        16.6891 
 248   0.0000       0.613682        16.6991 
 249   0.0000       0.620406        16.8821 
 250   0.0000       0.622478        16.9385 
 251   0.0000       0.625930        17.0324 
 252   0.0000       0.629592        17.1321 
 253   0.0000       0.634278        17.2596 
 254   0.0000       0.639469        17.4008 
 255   0.0000       0.644726        17.5439 
 256   0.0000       0.645975        17.5779 
 257   0.0000       0.650032        17.6883 
 258   0.0000       0.654782        17.8175 
 259   0.0000       0.656977        17.8773 
 260   0.0000       0.661237        17.9932 
 261   0.0000       0.665761        18.1163 
 262   0.0000       0.669975        18.2310 
 263   0.0000       0.673589        18.3293 
 264   0.0000       0.675080        18.3699 
 265   0.0000       0.681518        18.5450 
 266   0.0000       0.686748        18.6874 
 267   0.0000       0.692779        18.8515 
 268   0.0000       0.697017        18.9668 
 269   0.0000       0.699090        19.0232 
 270   0.0000       0.703392        19.1403 
 271   0.0000       0.711075        19.3493 
 272   0.0000       0.714811        19.4510 
 273   0.0000       0.718892        19.5621 
 274   0.0000       0.721777        19.6406 
 275   0.0000       0.727665        19.8008 
 276   0.0000       0.731477        19.9045 
 277   0.0000       0.732056        19.9202 
 278   0.0000       0.739246        20.1159 
 279   0.0000       0.741477        20.1766 
 280   0.0000       0.747947        20.3527 
 281   0.0000       0.749842        20.4042 
 282   0.0000       0.758868        20.6498 
 283   0.0000       0.764712        20.8089 
[...]
  | sigma^2 in % of trace(Dij) retained ...   9.17e+00
  | sigma^2 in % of trace(Dip) retained ...   1.55e+01
  | sigma^2 in % of trace(Dpq) retained ...   1.37e-01
  | Av. % of trace(Di) retained         ...  99.998570455910
  | Av. % of trace(Dp) retained         ...  99.999999055182
  | sigma^2 in % of trace(Di) retained  ...   6.61e-07
  | sigma^2 in % of trace(Dp) retained  ...   5.05e-13
 Distributions of % trace(Dij) recovered:
  |       >= 99.9  ...   105 ( 22.2 % of all IJ-pairs)
  |   [80.0, 90.0) ...    24 (  5.1 % of all IJ-pairs)
  |   [90.0, 99.0) ...   255 ( 53.8 % of all IJ-pairs)
  |   [99.0, 99.9) ...    90 ( 19.0 % of all IJ-pairs)
 Distributions of % trace(Dip) recovered:
  |   [80.0, 90.0) ...    13 ( 11.5 % of all IP-pairs)
  |   [90.0, 99.0) ...    56 ( 49.6 % of all IP-pairs)
  |   [99.0, 99.9) ...    44 ( 38.9 % of all IP-pairs)
 Distributions of % trace(Dpq) recovered:
  |       >= 99.9  ...     5 ( 33.3 % of all PQ-pairs)
  |   [99.0, 99.9) ...    10 ( 66.7 % of all PQ-pairs)
 Distributions of % trace(Di) recovered :
  |       >= 99.9  ...    43 (100.0 % of all I-pairs )
 Distributions of % trace(Dp) recovered :
  |       >= 99.9  ...     5 (100.0 % of all P-pairs )

                       ===========================
                       1043 OF 1664 PAIRS ARE KEPT
                       ===========================

 Initial PAO correlation energy (all pairs)    ...  -2.6849619897 Eh
 Energy constituents in PAO basis (Eh):
  | Vijab(+0) ...  -2.2576883384
  | Viab (-1) ...  -0.1741409460
  | Vab  (-2) ...  -0.0573360997
  | Va   (-1) ...  -0.0000449334
  | Vija (+1) ...  -0.0715132036
  | Vij  (+2) ...  -0.0155342540
  | Via  (+0) ...  -0.1085406759
  | Vi   (+1) ...  -0.0001635388
 Initial PNO correlation energy                ...  -2.6502708709 Eh
 Energy constituents in PNO basis (Eh):
  | Vijab(+0) ...  -2.2385404973 (err=  0.0191478411)
  | Viab (-1) ...  -0.1601798888 (err=  0.0139610573)
  | Vab  (-2) ...  -0.0568811032 (err=  0.0004549965)
  | Va   (-1) ...  -0.0000260439 (err=  0.0000188895)
  | Vija (+1) ...  -0.0705723414 (err=  0.0009408621)
  | Vij  (+2) ...  -0.0154802293 (err=  0.0000540247)
  | Via  (+0) ...  -0.1084277508 (err=  0.0001129251)
  | Vi   (+1) ...  -0.0001630162 (err=  0.0000005226)
 Sum of total truncation errors ...   0.0346911188 Eh
  | Pair screening ...   0.0123827272 Eh
  | PNO truncation ...   0.0223083917 Eh

 UMP2 correlation energy (PAO) ...  -2.6799143288
  | alpha-alpha ...  -0.3844287935 (NP_aa=  893)
  | alpha-beta  ...  -1.9906124047 (NP_ab= 1639)
  | beta -beta  ...  -0.3048731307 (NP_bb=  713)
 UMP2 correlation energy (PNO) ...  -2.6448551158
  | alpha-alpha ...  -0.3723023539 (err=  0.0121264396, NP_aa=  554)
  | alpha-beta  ...  -1.9718935253 (err=  0.0187188794, NP_ab= 1018)
  | beta -beta  ...  -0.3006592366 (err=  0.0042138941, NP_bb=  431)
 Sum of total UMP2 truncation errors ...   0.0350592131 Eh
  | Pair screening ...   0.0123899723 Eh
  | PNO truncation ...   0.0226692407 Eh
 Timing for NEV-PNO construction (sec.)
  | Intermediate construction  ..           41.255
  | Amplitude construction     ..           58.543
  | Total time                 ..           99.798
 Making pair pair interaction lists ...      ok
 Total size for 2-ext PNO integrals ...     10.7 MB
Checking the number of SOMO/SOMO doubles PNOs ... 
 #Truncate: (72, 72)[174] -> [86] .. 
 #Truncate: (73, 73)[176] -> [86] .. 
 #Truncate: (74, 74)[177] -> [86] .. 
 #Truncate: (75, 75)[176] -> [86] .. 
 #Truncate: (76, 76)[177] -> [86] .. 

--------------------------------
LOCAL RI TRANSFORMATION (VABPAO)
--------------------------------

Number of PAOs:    1030
Basis functions:   1025 (343 shells)
Aux. functions:    2424 (644 shells)

Processing maps (0.0 sec)
Average map sizes:
   Aux shells -> PAOs           1030.0
   PAOs       -> AO shells       343.0

Calculating integrals (191.8 sec, 37370.165 MB)
Finished
-----------------------------
LOCAL RI TRANSFORMATION (IJV)
-----------------------------

Orbital window:      29 to 76
Basis functions:   1025 (343 shells)
Aux. functions:    2424 (644 shells)

Processing maps (0.0 sec)
Average map sizes:
   Aux shells -> MOs(i)           46.3
   Aux shells -> MOs(j)           48.0
   MOs        -> AO shells       338.7

Calculating integrals (23.2 sec, 41.250 MB)
Sorting integrals (0.3 sec, 41.222 MB)
Total time for the integral transformation: 23.6 sec


-------------------------------------
Pair Pair Term precalculation with     
RI-(ij|mn) and (im|jn) transformation  
ON THE FLY                             
-------------------------------------

   IBatch   1 (of   2)              ... done ( 1304.380 sec)
   IBatch   2 (of   2)              ... done (  813.265 sec)
Total EXT                           ...        2117.645 sec

---------------------
RI-PNO TRANSFORMATION
---------------------

Total Number of PNOs                   ... 32905
Total Number of IJ-PNOs                ... 28813
Total Number of IP-PNOs                ...  3134
Total Number of PQ-PNOs                ...   958
Total Number of IJ-pairs               ...   905
Total Number of PI-pairs               ...   113
Total Number of PQ-pairs               ...    25
Average number of PNOs per pair        ...    31
Maximal number of PNOs per pair        ...    86
>> Statistics for ij-pairs..
   #pairs with  1 -  5 PNOs   :    0
   #pairs with  6 - 10 PNOs   :    0
   #pairs with 11 - 15 PNOs   :   80
   #pairs with 16 - 20 PNOs   :  180
   #pairs with 21 - 25 PNOs   :  154
   #pairs with 26 - 30 PNOs   :  144
   #pairs with 31 - 35 PNOs   :   58
   #pairs with 36 - 40 PNOs   :   52
   #pairs with 41 - 45 PNOs   :   46
   #pairs with 46 - 50 PNOs   :   24
   #pairs with 51 - 55 PNOs   :   31
   #pairs with 56 - 60 PNOs   :   60
   #pairs with 61 - 65 PNOs   :   71
   #pairs with 66 - 70 PNOs   :    2
   #pairs with 71 - 75 PNOs   :    1
   #pairs with 81 - 85 PNOs   :    2
>> Statistics for ip-pairs..
   #pairs with  1 -  5 PNOs   :    0
   #pairs with  6 - 10 PNOs   :    1
   #pairs with 11 - 15 PNOs   :   12
   #pairs with 16 - 20 PNOs   :   10
   #pairs with 21 - 25 PNOs   :   22
   #pairs with 26 - 30 PNOs   :   10
   #pairs with 31 - 35 PNOs   :   44
   #pairs with 36 - 40 PNOs   :   12
   #pairs with 41 - 45 PNOs   :    2
   #pairs with 46 - 50 PNOs   :    0
>> Statistics for pq-pairs..
   #pairs with  1 -  5 PNOs   :    0
   #pairs with  6 - 10 PNOs   :    0
   #pairs with 11 - 15 PNOs   :    0
   #pairs with 16 - 20 PNOs   :    0
   #pairs with 21 - 25 PNOs   :   10
   #pairs with 26 - 30 PNOs   :   10
   #pairs with 31 - 35 PNOs   :    0
   #pairs with 36 - 40 PNOs   :    0
   #pairs with 41 - 45 PNOs   :    0
   #pairs with 46 - 50 PNOs   :    0
   #pairs with 86 - 90 PNOs   :    5

Generation of (ij|ab)[P] integrals            ... on
Generation of (ia|bc)[P],(ja|bc)[P] integrals ... on
Storage of 3 and 4 external integrals         ... on
Generation of ALL (ka|bc)[P] integrals        ... on
Keep RI integrals in memory                   ... off

Ibatch:  1 (of  1)
Starting 2-4 index PNO integral generation ... done

Timings:
Total PNO integral transformation time     ...       2032.955 sec
Size of the 3-external file                ...       281 MB
Size of the 4-external file                ...      1922 MB
Size of the IKJL file                      ...        16 MB
Size of the all 3-external file            ...      6756 MB
Size of the 1-external file                ...        21 MB

Size of the PAO/PNO coefficient matrices   ...     207.9 MB

Making pair/pair overlap matrices          ... done (  325.989 sec)
Size of the pair overlap file              ...    2283.0 MB
Total # unrestricted pairs ...       2003
  # of alpha-alpha pairs   ...        554
  # of alpha-beta pairs    ...       1018
  # of beta-beta pairs     ...        431
Constructing the guess amplitudes          ... done (    0.697 sec)

-------------------------
FINAL STARTUP INFORMATION
-------------------------

E(0)                                       ...  -3028.458768403
E(SL-UMP2 in NEV-PNO space)                ...     -2.680884784
Initial E(tot)                             ...  -3031.139653187
<T|T>                                      ...      0.533497109
Number of unrestricted pairs included      ... 2003
Total number of pairs                      ... 4095
----------------------------------------------------------
                     OPEN-SHELL COUPLED CLUSTER ITERATIONS
----------------------------------------------------------

Number of PNO amplitudes to be optimized        ...          2041838
Number of canonical amplitudes for strong pairs ...       1809112570
Untruncated number of canonical amplitudes      ...       3698645738

Iter       E(tot)           E(Corr)          Delta-E          Residual     Time
  0  -3031.146850465     -2.652052393      0.028832391      0.020721747 1634.97
                           *** Turning on DIIS ***
  1  -3031.262126133     -2.767328061     -0.115275668      0.010232602 1719.79
  2  -3031.327024666     -2.832226594     -0.064898533      0.008267873 1738.62
  3  -3031.348907713     -2.854109641     -0.021883047      0.003226262 1638.50
  4  -3031.356508483     -2.861710412     -0.007600771      0.002648391 1668.63
  5  -3031.360666866     -2.865868795     -0.004158383      0.001516592 1646.68
  6  -3031.362195330     -2.867397258     -0.001528463      0.000777895 1675.02
  7  -3031.362854128     -2.868056057     -0.000658799      0.000494176 1629.21
  8  -3031.362997561     -2.868199490     -0.000143433      0.000244615 1638.24
  9  -3031.363057620     -2.868259548     -0.000060059      0.000148146 1629.03
 10  -3031.363058630     -2.868260559     -0.000001011      0.000087001 1673.75
 11  -3031.363072275     -2.868274204     -0.000013645      0.000064266 1673.16
 12  -3031.363076596     -2.868278525     -0.000004321      0.000028370 1646.69
 13  -3031.363078820     -2.868280748     -0.000002224      0.000018942 1651.05
 14  -3031.363080481     -2.868282410     -0.000001662      0.000009253 1642.06
               --- The CCSD iterations have converged ---

E(0)                                       ...  -3028.458768403
E(CORR)(strong-pairs)                      ...     -2.868282410
E(CORR)(weak-pairs)                        ...     -0.036029669
E(CORR)(corrected)                         ...     -2.904312079
E(TOT)                                     ...  -3031.363080481
Singles norm <S|S>**1/2                    ...      0.194810156 ( 0.064626129, 0.130184027)  
T1 diagnostic                              ...      0.020421653                              
<S**2>(linearized)                         ...      8.7508389 (ideal value:      8.7500000)

----------------------
LARGEST PNO AMPLITUDES
----------------------
  47a-> 78a  47b-> 78b       0.055385
  49b-> 72b  -1b-> -1b       0.054526
  51b-> 76b  -1b-> -1b       0.054030
  52b-> 76b  -1b-> -1b       0.053308
  49b-> 75b  -1b-> -1b       0.047552
  49b-> 74b  -1b-> -1b       0.046039
  43a-> 77a  43b-> 77b       0.045484
  62a-> 77a  62b-> 77b       0.044289
  55a-> 77a  55b-> 77b       0.043995
  70a-> 77a  70b-> 77b       0.043868
  38b-> 73b  -1b-> -1b       0.043384
  56a-> 78a  56b-> 78b       0.043207
  35b-> 72b  -1b-> -1b       0.043206
  64a-> 77a  64b-> 77b       0.043139
  69a-> 77a  69b-> 77b       0.042643
  61a-> 77a  61b-> 77b       0.042190

Total # unrestricted pairs ...       1242
  # of alpha-alpha pairs   ...        339
  # of alpha-beta pairs    ...        621
  # of beta-beta pairs     ...        282

-------------------------------------------
DLPNO BASED TRIPLES CORRECTION
-------------------------------------------

Singles multiplier          ...  1.000000
Fragment selection                          .... not used
TCutTNO                     ... 1.000e-09
TCutMP2Pairs                ... 1.000e-05
TCutDOStrong                ... 2.000e-02
TCutMKNStrong               ... 1.000e-02
TCutDOWeak                  ... 4.000e-02
TCutMKNWeak                 ... 1.000e-01
NTCutTNO                    ... 1

Number of Triples that are to be computed         ...     30606

 . . . . . . . . .
10% done  
20% done  
30% done  
40% done  
50% done  
60% done  
70% done  
80% done  
90% done  
          Batch   1   done (  11962.889 sec)

Triples-Correction TCutTNO=   1.000e-09 (NWeakPairs = 0  1  2  3)  -0.116485554200   -0.001866857289    0.000000000000    0.000000000000
Triples-Correction  -0.118352411489

Triples timings:
Total time                      ... 12508.862 sec

Triples List generation         ...     0.000 sec
TNO generation                  ...   545.676 sec
Pair density generation         ...     0.098 sec
Look up tables                  ...     0.100 sec
Generating 3-index integrals    ...  7160.552 sec
Make 4-ind.int. from 3-ind.int  ...     2.867 sec
Projecting amplitudes (D + S)   ...  4592.902 sec
Sorting integrals for spin cases...    43.631 sec
Calculate W0/W1                 ...   131.346 sec
Energy contr. (sum over a,b,c)  ...    31.498 sec

Everything after 3-index        ...  4903.812 sec

Energy contribution AAA         ...    20.038 sec
Energy contribution AAB         ...    91.866 sec
Energy contribution ABB         ...    83.667 sec
Energy contribution BBB         ...    10.938 sec
prep                ...     2.718 sec
makeTTNO            ...  4544.976 sec
copyij              ...     0.111 sec
copyil              ...     3.518 sec
transposeij         ...     0.069 sec
newMatInDoubleProj  ...    46.435 sec
BlasInDoubleProj    ...  2448.211 sec
ProjSingles         ...    39.284 sec
ProjDoubles         ...  4553.617 sec
overall Doubles for projection      ... 2698174
used Doubles for projection         ... 2698174


Number of Triples   (0, 1, 2, 3 weak pairs; overall):  14313   10980       0       0  ( 25293)
Number of Atoms     (0, 1, 2, 3 weak pairs; overall):   18.7    13.8     0.0     0.0  (    29)
Number of PAOs      (0, 1, 2, 3 weak pairs; overall):  736.6   557.9     0.0     0.0  (  1025)
Number of AuxFcns   (0, 1, 2, 3 weak pairs; overall):  834.2   568.9     0.0     0.0  (  2424)
Number of TNOs (0, 1, 2, 3 weak pairs         ):   79.3    56.7     0.0     0.0
Aver. Number of NTNO, Atoms, PAOs, AuxFcns / Triples:  25293    69.5    16.6   659.0   719.0

Triples Correction (T)                     ...     -0.118352411
    alpha-alpha-alpha ... -0.003787368 (  3.2%)
    alpha-alpha-beta  ... -0.055599317 ( 47.0%)
    alpha-beta -beta  ... -0.054924442 ( 46.4%)
    beta -beta -beta  ... -0.004041284 (  3.4%)
Final correlation energy                   ...     -3.022664490
E(CCSD)                                    ...  -3031.363080481
E(CCSD(T))                                 ...  -3031.481432893

----------------------------
STATISTICS FOR PAIR-ENERGIES
----------------------------
Minimum, maximum and average ratios of UMP and CCSD pair-energies ... 0.45, 1.44, 1.02


------------------------------------------------------------------------------- 
                                     TIMINGS                                   
------------------------------------------------------------------------------- 


Total execution time                   ...    45695.609 sec

Localization of occupied MO's          ...       10.021 sec (  0.0%)
Fock Matrix Formation                  ...     1389.263 sec (  3.0%)
Differential overlap integrals         ...        1.504 sec (  0.0%)
Organizing maps                        ...        1.649 sec (  0.0%)
RI 3-index integral generations        ...      278.454 sec (  0.6%)
RI-PNO integral transformation         ...     4500.283 sec (  9.8%)
Initial Guess                          ...     1770.790 sec (  3.9%)
DIIS Solver                            ...       14.672 sec (  0.0%)
State Vector Update                    ...        0.746 sec (  0.0%)
Sigma-vector construction              ...    24905.399 sec ( 54.5%)
  <0|H|D>                              ...        0.029 sec (  0.0% of sigma)
  <D|H|D>(0-ext)                       ...     4566.932 sec ( 18.3% of sigma)
  <D|H|D>(2-ext Fock)                  ...        1.143 sec (  0.0% of sigma)
  <D|H|D>(2-ext)                       ...     3434.957 sec ( 13.8% of sigma)
  <D|H|D>(4-ext)                       ...      153.683 sec (  0.6% of sigma)
  <D|H|D>(4-ext-corr)                  ...      945.688 sec (  3.8% of sigma)
  CCSD doubles correction              ...      430.420 sec (  1.7% of sigma)
  <S|H|S>                              ...      720.444 sec (  2.9% of sigma)
  <S|H|D>(1-ext)                       ...      263.064 sec (  1.1% of sigma)
  <D|H|S>(1-ext)                       ...        0.896 sec (  0.0% of sigma)
  <S|H|D>(3-ext)                       ...       19.707 sec (  0.1% of sigma)
  CCSD singles correction              ...        0.005 sec (  0.0% of sigma)
  Fock-dressing                        ...     7178.318 sec ( 28.8% of sigma)
  Singles amplitudes                   ...      111.112 sec (  0.4% of sigma)
  (ik|jl)-dressing                     ...     5616.170 sec ( 22.6% of sigma)
  (ij|ab),(ia|jb)-dressing             ...     1233.516 sec (  5.0% of sigma)
  Pair energies                        ...        0.146 sec (  0.0% of sigma)
Total Time for computing (T)           ...    13162.982 sec ( 28.8% of ALL)


-------------------------   --------------------
FINAL SINGLE POINT ENERGY     -3031.481432892960
-------------------------   --------------------


                            ***************************************
                            *     ORCA property calculations      *
                            ***************************************

                                    ---------------------
                                    Active property flags
                                    ---------------------
   (+) Dipole Moment


------------------------------------------------------------------------------
                       ORCA ELECTRIC PROPERTIES CALCULATION
------------------------------------------------------------------------------

Dipole Moment Calculation                       ... on
Quadrupole Moment Calculation                   ... off
Polarizability Calculation                      ... off
GBWName                                         ... simple-grid-250-295-b3lyp_d3bj-631gd-gas-singlepoint-DLPNO_CCSD_T1-NormalPNO-augtz-gas.gbw
Electron density file                           ... simple-grid-250-295-b3lyp_d3bj-631gd-gas-singlepoint-DLPNO_CCSD_T1-NormalPNO-augtz-gas.scfp.tmp
The origin for moment calculation is the CENTER OF MASS  = (-0.317183, -0.045010  0.011721)

-------------
DIPOLE MOMENT
-------------
                                X             Y             Z
Electronic contribution:    -43.71704      -5.36116       1.14852
Nuclear contribution   :     47.26031       6.70645      -1.74641
                        -----------------------------------------
Total Dipole Moment    :      3.54327       1.34528      -0.59789
                        -----------------------------------------
Magnitude (a.u.)       :      3.83693
Magnitude (Debye)      :      9.75269



--------------------
Rotational spectrum 
--------------------
 
Rotational constants in cm-1:     0.018996     0.010630     0.010001 
Rotational constants in MHz :   569.473840   318.686501   299.817167 

 Dipole components along the rotational axes: 
x,y,z [a.u.] :     3.538290    -1.335967    -0.646296 
x,y,z [Debye]:     8.993619    -3.395758    -1.642753 

 

Timings for individual modules:

Sum of individual times         ...    61808.409 sec (=1030.140 min)
GTO integral calculation        ...       11.943 sec (=   0.199 min)   0.0 %
SCF iterations                  ...    16083.185 sec (= 268.053 min)  26.0 %
MDCI module                     ...    45713.281 sec (= 761.888 min)  74.0 %
                             ****ORCA TERMINATED NORMALLY****
TOTAL RUN TIME: 0 days 17 hours 10 minutes 11 seconds 295 msec
