
                                 *****************
                                 * O   R   C   A *
                                 *****************

           --- An Ab Initio, DFT and Semiempirical electronic structure package ---

                  #######################################################
                  #                        -***-                        #
                  #          Department of theory and spectroscopy      #
                  #               Directorship: Frank Neese             #
                  #        Max Planck Institute fuer Kohlenforschung    #
                  #                Kaiser Wilhelm Platz 1               #
                  #                 D-45470 Muelheim/Ruhr               #
                  #                      Germany                        #
                  #                                                     #
                  #                  All rights reserved                #
                  #                        -***-                        #
                  #######################################################


                         Program Version 4.1.2  - RELEASE  -


 With contributions from (in alphabetic order):
   Daniel Aravena         : Magnetic Properties
   Michael Atanasov       : Ab Initio Ligand Field Theory
   Alexander A. Auer      : GIAO ZORA
   Ute Becker             : Parallelization
   Giovanni Bistoni       : ED, Open-shell LED
   Martin Brehm           : Molecular dynamics
   Dmytro Bykov           : SCF Hessian
   Vijay G. Chilkuri      : MRCI spin determinant printing
   Dipayan Datta          : RHF DLPNO-CCSD density
   Achintya Kumar Dutta   : EOM-CC, STEOM-CC
   Dmitry Ganyushin       : Spin-Orbit,Spin-Spin,Magnetic field MRCI
   Miquel Garcia          : C-PCM Hessian
   Yang Guo               : DLPNO-NEVPT2, CIM, IAO-localization
   Andreas Hansen         : Spin unrestricted coupled pair/coupled cluster methods
   Benjamin Helmich-Paris : CASSCF linear response (MC-RPA)
   Lee Huntington         : MR-EOM, pCC
   Robert Izsak           : Overlap fitted RIJCOSX, COSX-SCS-MP3, EOM
   Christian Kollmar      : KDIIS, OOCD, Brueckner-CCSD(T), CCSD density
   Simone Kossmann        : Meta GGA functionals, TD-DFT gradient, OOMP2, MP2 Hessian
   Martin Krupicka        : AUTO-CI
   Lucas Lang             : DCDCAS
   Dagmar Lenk            : GEPOL surface, SMD
   Dimitrios Liakos       : Extrapolation schemes; parallel MDCI
   Dimitrios Manganas     : ROCIS; embedding schemes
   Dimitrios Pantazis     : SARC Basis sets
   Taras Petrenko         : DFT Hessian,TD-DFT gradient, ASA, ECA, R-Raman, ABS, FL, XAS/XES, NRVS
   Peter Pinski           : DLPNO-MP2, DLPNO-MP2 Gradient
   Christoph Reimann      : Effective Core Potentials
   Marius Retegan         : Local ZFS, SOC
   Christoph Riplinger    : Optimizer, TS searches, QM/MM, DLPNO-CCSD(T), (RO)-DLPNO pert. Triples
   Tobias Risthaus        : Range-separated hybrids, TD-DFT gradient, RPA, STAB
   Michael Roemelt        : Restricted open shell CIS
   Masaaki Saitow         : Open-shell DLPNO
   Barbara Sandhoefer     : DKH picture change effects
   Avijit Sen             : IP-ROCIS
   Kantharuban Sivalingam : CASSCF convergence, NEVPT2, FIC-MRCI
   Bernardo de Souza      : ESD, SOC TD-DFT
   Georgi Stoychev        : AutoAux, RI-MP2 NMR
   Willem Van den Heuvel  : Paramagnetic NMR
   Boris Wezisla          : Elementary symmetry handling
   Frank Wennmohs         : Technical directorship


 We gratefully acknowledge several colleagues who have allowed us to
 interface, adapt or use parts of their codes:
   Stefan Grimme, W. Hujo, H. Kruse,             : VdW corrections, initial TS optimization,
                  C. Bannwarth                     DFT functionals, gCP, sTDA/sTD-DF
   Ed Valeev                                     : LibInt (2-el integral package), F12 methods
   Garnet Chan, S. Sharma, J. Yang, R. Olivares  : DMRG
   Ulf Ekstrom                                   : XCFun DFT Library
   Mihaly Kallay                                 : mrcc  (arbitrary order and MRCC methods)
   Andreas Klamt, Michael Diedenhofen            : otool_cosmo (COSMO solvation model)
   Jiri Pittner, Ondrej Demel                    : Mk-CCSD
   Frank Weinhold                                : gennbo (NPA and NBO analysis)
   Christopher J. Cramer and Donald G. Truhlar   : smd solvation model
   Lars Goerigk                                  : TD-DFT with DH, B97 family of functionals
   V. Asgeirsson, H. Jonsson                     : NEB implementation
   FAccTs GmbH                                   : IRC, NEB, NEB-TS, Multilevel


 Your calculation uses the libint2 library for the computation of 2-el integrals
 For citations please refer to: http://libint.valeyev.net

 This ORCA versions uses:
   CBLAS   interface :  Fast vector & matrix operations
   LAPACKE interface :  Fast linear algebra routines
   SCALAPACK package :  Parallel linear algebra routines


----- Orbital basis set information -----
Your calculation utilizes the basis: aug-cc-pVTZ 
    H, B-Ne : Obtained from the ccRepo (grant-hill.group.shef.ac.uk/ccrepo) Feb. 2017
              R. A. Kendall, T. H. Dunning, Jr., R. J. Harrison, J. Chem. Phys. 96, 6796 (1992)
         He : Obtained from the ccRepo (grant-hill.group.shef.ac.uk/ccrepo) Feb. 2017
              D. E. Woon, T. H. Dunning, Jr., J. Chem. Phys. 100, 2975 (1994)
  Li-Be, Na : Obtained from the ccRepo (grant-hill.group.shef.ac.uk/ccrepo) Feb. 2017
              B. P. Prascher, D. E. Woon, K. A. Peterson, T. H. Dunning, Jr., A. K. Wilson, Theor. Chem. Acc. 128, 69 (2011)
         Mg : Obtained from the Peterson Research Group Website (tyr0.chem.wsu.edu/~kipeters) Feb. 2017
              B. P. Prascher, D. E. Woon, K. A. Peterson, T. H. Dunning, Jr., A. K. Wilson, Theor. Chem. Acc. 128, 69 (2011)
      Al-Ar : Obtained from the ccRepo (grant-hill.group.shef.ac.uk/ccrepo) Feb. 2017
              D. E. Woon, T. H. Dunning, Jr., J. Chem. Phys. 98, 1358 (1993)
      Sc-Zn : Obtained from the ccRepo (grant-hill.group.shef.ac.uk/ccrepo) Feb. 2017
              N. B. Balabanov, K. A. Peterson, J. Chem. Phys. 123, 064107 (2005)
              N. B. Balabanov, K. A. Peterson, J. Chem. Phys. 125, 074110 (2006)
      Ga-Kr : Obtained from the ccRepo (grant-hill.group.shef.ac.uk/ccrepo) Feb. 2017
              A. K. Wilson, D. E. Woon, K. A. Peterson, T. H. Dunning, Jr., J. Chem. Phys. 110, 7667 (1999)
     Ag, Au : Obtained from the Peterson Research Group Website (tyr0.chem.wsu.edu/~kipeters) Feb. 2017
              K. A. Peterson, C. Puzzarini, Theor. Chem. Acc. 114, 283 (2005)

----- AuxJ basis set information -----
Your calculation utilizes the AutoAux generation procedure.
  G. L. Stoychev, A. A. Auer, F. Neese, J. Chem. Theory Comput. 13, 554 (2017)

----- AuxC basis set information -----
Your calculation utilizes the auxiliary basis: aug-cc-pVTZ/C 
  H-He, B-F, Al-Ar, Ga-Kr : Obtained from the EMSL Basis Set Exchange (bse.pnl.gov) Feb. 2017
                            F. Weigend, A. Kohn, C. Hattig, J. Chem. Phys. 116, 3175 (2002)
                   Be, Mg : Obtained from the TURBOMOLE 7.0 basis set library
                            C. Haettig, Phys. Chem. Chem. Phys. 7, 59 (2005)
                       Ne : Obtained from the EMSL Basis Set Exchange (bse.pnl.gov) Feb. 2017
                            C. Haettig, Phys. Chem. Chem. Phys. 7, 59 (2005)
                            F. Weigend, A. Kohn, C. Hattig, J. Chem. Phys. 116, 3175 (2002)
                    Sc-Zn : Obtained from the EMSL Basis Set Exchange (bse.pnl.gov) Feb. 2017
                            J. G. Hill, J. A. Platts, J. Chem. Phys. 128, 044104 (2008)

----- AuxJK basis set information -----
Your calculation utilizes the AutoAux generation procedure.
  G. L. Stoychev, A. A. Auer, F. Neese, J. Chem. Theory Comput. 13, 554 (2017)

================================================================================
                                        WARNINGS
                       Please study these warnings very carefully!
================================================================================


WARNING: your system is open-shell and RHF/RKS was chosen
  ===> : WILL SWITCH to UHF/UKS


WARNING: MDCI localization with Augmented Hessian Foster-Boys
  ===> : Switching off randomization!

WARNING: Post HF methods need fully converged wavefunctions
  ===> : Setting SCFConvForced true
         You can overwrite this default with %scf ConvForced false 


INFO   : the flag for use of LIBINT has been found!

================================================================================
                                       INPUT FILE
================================================================================
NAME = simple-grid-160-215-b3lyp_d3bj-631gd-gas-singlepoint-DLPNO_CCSD_T1-NormalPNO-augtz-gas.inp
|  1> ! aug-cc-pVTZ aug-cc-pVTZ/C DLPNO-CCSD(T1) TightSCF NormalPNO UNO MiniPrint AutoAux
|  2> %pal nproc 10 end
|  3> %maxcore 20000
|  4> %mdci
|  5>      density none
|  6> end
|  7> 
|  8> * xyz 0 6
|  9>  O     -0.37369200     -0.24445800     -0.58233500
| 10>  C     -1.46724300     -1.17029200     -0.33555000
| 11>  C     -2.70362200     -0.15522000     -0.30399100
| 12>  C     -1.95815500      1.16699300     -0.23628500
| 13>  C     -1.82956400      2.00443700     -1.44771700
| 14> Fe      1.38181600      0.02160600      0.01197400
| 15> Cl      1.81237500      2.02035900     -0.85223600
| 16>  C     -1.60801000      1.77516600      1.06549200
| 17> Cl      2.56044900     -1.67701900     -0.71513800
| 18> Cl      1.35477500      0.16261000      2.22468800
| 19>  H     -3.19820300     -0.20568000     -1.27923400
| 20>  H     -2.49626600      2.34027100      1.39491200
| 21>  H     -1.37831500      1.03815000      1.83486800
| 22>  H     -0.77718000      2.47773800      0.96855700
| 23>  H     -2.57808400      2.81100500     -1.37422500
| 24>  H     -0.84119400      2.47599800     -1.47743000
| 25>  H     -2.00774200      1.44090000     -2.36400000
| 26>  C     -3.75291900     -0.36726500      0.78835100
| 27>  H     -4.54689700      0.38487400      0.72193300
| 28>  H     -4.21915600     -1.34881900      0.66055300
| 29>  H     -3.32615300     -0.32803100      1.79318200
| 30>  C     -1.24652000     -1.92930300      0.96659800
| 31>  H     -2.07153800     -2.62187100      1.16167600
| 32>  H     -0.32557300     -2.51526700      0.88001600
| 33>  H     -1.12875800     -1.26353300      1.82352700
| 34>  C     -1.55320700     -2.12479500     -1.51845800
| 35>  H     -0.63287700     -2.71463400     -1.57610300
| 36>  H     -2.40328700     -2.80888200     -1.41170400
| 37>  H     -1.66020000     -1.56779300     -2.45413300
| 38> *
| 39> 
| 40> 
| 41>                          ****END OF INPUT****
================================================================================

                       ****************************
                       * Single Point Calculation *
                       ****************************

---------------------------------
CARTESIAN COORDINATES (ANGSTROEM)
---------------------------------
  O     -0.373692   -0.244458   -0.582335
  C     -1.467243   -1.170292   -0.335550
  C     -2.703622   -0.155220   -0.303991
  C     -1.958155    1.166993   -0.236285
  C     -1.829564    2.004437   -1.447717
  Fe     1.381816    0.021606    0.011974
  Cl     1.812375    2.020359   -0.852236
  C     -1.608010    1.775166    1.065492
  Cl     2.560449   -1.677019   -0.715138
  Cl     1.354775    0.162610    2.224688
  H     -3.198203   -0.205680   -1.279234
  H     -2.496266    2.340271    1.394912
  H     -1.378315    1.038150    1.834868
  H     -0.777180    2.477738    0.968557
  H     -2.578084    2.811005   -1.374225
  H     -0.841194    2.475998   -1.477430
  H     -2.007742    1.440900   -2.364000
  C     -3.752919   -0.367265    0.788351
  H     -4.546897    0.384874    0.721933
  H     -4.219156   -1.348819    0.660553
  H     -3.326153   -0.328031    1.793182
  C     -1.246520   -1.929303    0.966598
  H     -2.071538   -2.621871    1.161676
  H     -0.325573   -2.515267    0.880016
  H     -1.128758   -1.263533    1.823527
  C     -1.553207   -2.124795   -1.518458
  H     -0.632877   -2.714634   -1.576103
  H     -2.403287   -2.808882   -1.411704
  H     -1.660200   -1.567793   -2.454133

----------------------------
CARTESIAN COORDINATES (A.U.)
----------------------------
  NO LB      ZA    FRAG     MASS         X           Y           Z
   0 O     8.0000    0    15.999   -0.706176   -0.461959   -1.100454
   1 C     6.0000    0    12.011   -2.772687   -2.211531   -0.634098
   2 C     6.0000    0    12.011   -5.109105   -0.293323   -0.574460
   3 C     6.0000    0    12.011   -3.700377    2.205297   -0.446514
   4 C     6.0000    0    12.011   -3.457375    3.787837   -2.735789
   5 Fe   26.0000    0    55.850    2.611254    0.040829    0.022628
   6 Cl   17.0000    0    35.453    3.424892    3.817925   -1.610493
   7 C     6.0000    0    12.011   -3.038699    3.354578    2.013488
   8 Cl   17.0000    0    35.453    4.838547   -3.169107   -1.351415
   9 Cl   17.0000    0    35.453    2.560154    0.307288    4.204051
  10 H     1.0000    0     1.008   -6.043728   -0.388679   -2.417402
  11 H     1.0000    0     1.008   -4.717259    4.422471    2.636002
  12 H     1.0000    0     1.008   -2.604638    1.961819    3.467398
  13 H     1.0000    0     1.008   -1.468657    4.682246    1.830307
  14 H     1.0000    0     1.008   -4.871873    5.312030   -2.596909
  15 H     1.0000    0     1.008   -1.589626    4.678958   -2.791938
  16 H     1.0000    0     1.008   -3.794083    2.722906   -4.467313
  17 C     6.0000    0    12.011   -7.091989   -0.694030    1.489767
  18 H     1.0000    0     1.008   -8.592390    0.727306    1.364256
  19 H     1.0000    0     1.008   -7.973049   -2.548899    1.248264
  20 H     1.0000    0     1.008   -6.285518   -0.619889    3.388623
  21 C     6.0000    0    12.011   -2.355581   -3.645854    1.826606
  22 H     1.0000    0     1.008   -3.914639   -4.954618    2.195249
  23 H     1.0000    0     1.008   -0.615244   -4.753166    1.662989
  24 H     1.0000    0     1.008   -2.133043   -2.387731    3.445967
  25 C     6.0000    0    12.011   -2.935136   -4.015281   -2.869470
  26 H     1.0000    0     1.008   -1.195964   -5.129915   -2.978403
  27 H     1.0000    0     1.008   -4.541554   -5.308018   -2.667734
  28 H     1.0000    0     1.008   -3.137323   -2.962699   -4.637639



           ************************************************************
           *        Program running with 10 parallel MPI-processes    *
           *              working on a common directory               *
           ************************************************************


           ************************************************************
           *        Program running with 10 parallel MPI-processes    *
           *              working on a common directory               *
           ************************************************************

Diagonalization of the overlap matrix:
Smallest eigenvalue                        ... 6.308e-07
Time for diagonalization                   ...    0.776 sec
Threshold for overlap eigenvalues          ... 1.000e-08
Number of eigenvalues below threshold      ... 0
Time for construction of square roots      ...    0.301 sec
Total time needed                          ...    1.082 sec

-------------------
DFT GRID GENERATION
-------------------

General Integration Accuracy     IntAcc      ...  4.340
Radial Grid Type                 RadialGrid  ... Gauss-Chebyshev
Angular Grid (max. acc.)         AngularGrid ... Lebedev-110
Angular grid pruning method      GridPruning ... 3 (G Style)
Weight generation scheme         WeightScheme... Becke
Basis function cutoff            BFCut       ...    1.0000e-11
Integration weight cutoff        WCut        ...    1.0000e-14
Grids for H and He will be reduced by one unit

# of grid points (after initial pruning)     ...  36112 (   0.0 sec)
# of grid points (after weights+screening)   ...  32249 (   0.1 sec)
nearest neighbour list constructed           ...    0.0 sec
Grid point re-assignment to atoms done       ...    0.0 sec
Grid point division into batches done        ...    0.0 sec
Reduced shell lists constructed in    0.2 sec

Total number of grid points                  ...    32249
Total number of batches                      ...      519
Average number of points per batch           ...       62
Average number of grid points per atom       ...     1112
Average number of shells per batch           ...   293.77 (85.65%)
Average number of basis functions per batch  ...   875.66 (85.43%)
Average number of large shells per batch     ...   243.42 (82.86%)
Average number of large basis fcns per batch ...   724.28 (82.71%)
Maximum spatial batch extension              ...   3.61,  3.31,  2.76 au
Average spatial batch extension              ...   0.17,  0.17,  0.17 au

Time for grid setup =    0.390 sec

Loading Hartree-Fock densities                     ... done
Calculating cut-offs                               ... done
Setting up the integral package                    ... done
Initializing the effective Hamiltonian             ... done
Starting the Coulomb interaction                   ... done (   1.1 sec)
Reading the grid                                   ... done
Mapping shells                                     ... done
Starting the XC term evaluation                    ... done (   0.8 sec)
Transforming the Hamiltonian                       ... done (   0.2 sec)
Diagonalizing the Hamiltonian                      ... done (   0.3 sec)
Back transforming the eigenvectors                 ... done (   0.1 sec)
Now organizing SCF variables                       ... done
--------------
SCF ITERATIONS
--------------
ITER       Energy         Delta-E        Max-DP      RMS-DP      [F,P]     Damp
               ***  Starting incremental Fock matrix formation  ***
  0  -3027.5747381059   0.000000000000 0.55565029  0.00140838  0.2703998 0.7000
  1  -3027.8253345048  -0.250596398881 0.39531490  0.00107714  0.1531046 0.7000
                               ***Turning on DIIS***
  2  -3027.9936132079  -0.168278703114 0.26926382  0.00077985  0.1099032 0.7000
  3  -3029.6635979621  -1.669984754186 0.56567763  0.00189925  0.0821522 0.0000
  4  -3028.3067156374   1.356882324762 0.05755610  0.00023746  0.0194400 0.0000
  5  -3028.4284052785  -0.121689641123 0.03986272  0.00017867  0.0120553 0.0000
  6  -3028.4414307694  -0.013025490915 0.02027312  0.00007154  0.0055641 0.0000
  7  -3028.4669410394  -0.025510269956 0.00989789  0.00003412  0.0034071 0.0000
  8  -3028.4641483370   0.002792702320 0.00579962  0.00001862  0.0014871 0.0000
  9  -3028.4544917058   0.009656631202 0.00237498  0.00001104  0.0007432 0.0000
 10  -3028.4464221730   0.008069532872 0.00083820  0.00000322  0.0003854 0.0000
 11  -3028.4513649628  -0.004942789821 0.00022790  0.00000166  0.0000987 0.0000
 12  -3028.4483147088   0.003050254027 0.00027873  0.00000119  0.0000248 0.0000
 13  -3028.4485105041  -0.000195795310 0.00160115  0.00000221  0.0000106 0.0000
 14  -3028.4485199569  -0.000009452862 0.00148110  0.00000269  0.0000076 0.0000
 15  -3028.4484793774   0.000040579498 0.00316724  0.00000430  0.0000053 0.0000
 16  -3028.4485237528  -0.000044375356 0.00239916  0.00000460  0.0000044 0.0000
 17  -3028.4485240341  -0.000000281290 0.00232466  0.00000330  0.0000027 0.0000
 18  -3028.4485093310   0.000014703104 0.00362737  0.00000598  0.0000018 0.0000
                            ***DIIS convergence achieved***

               *****************************************************
               *                     SUCCESS                       *
               *           SCF CONVERGED AFTER  19 CYCLES          *
               *****************************************************

Total Energy       :        -3028.44852457 Eh          -82408.27391 eV
  Last Energy change         ...   -1.5242e-05  Tolerance :   1.0000e-08
  Last MAX-Density change    ...    1.4040e-03  Tolerance :   1.0000e-07
             **** THE GBW FILE WAS UPDATED (simple-grid-160-215-b3lyp_d3bj-631gd-gas-singlepoint-DLPNO_CCSD_T1-NormalPNO-augtz-gas.gbw) ****
             **** DENSITY FILE WAS UPDATED (simple-grid-160-215-b3lyp_d3bj-631gd-gas-singlepoint-DLPNO_CCSD_T1-NormalPNO-augtz-gas.scfp.tmp) ****
             **** ENERGY FILE WAS UPDATED (simple-grid-160-215-b3lyp_d3bj-631gd-gas-singlepoint-DLPNO_CCSD_T1-NormalPNO-augtz-gas.en.tmp) ****
----------------------
UHF SPIN CONTAMINATION
----------------------

Expectation value of <S**2>     :     8.764672
Ideal value S*(S+1) for S=2.5   :     8.750000
Deviation                       :     0.014672

----------------
ORBITAL ENERGIES
----------------
                 SPIN UP ORBITALS
  NO   OCC          E(Eh)            E(eV) 
   0   1.0000    -261.545362     -7117.0111 
   1   1.0000    -104.774833     -2851.0681 
   2   1.0000    -104.773292     -2851.0262 
   3   1.0000    -104.769732     -2850.9293 
   4   1.0000     -32.213270      -876.5676 
   5   1.0000     -27.689158      -753.4603 
   6   1.0000     -27.689031      -753.4568 
   7   1.0000     -27.688671      -753.4471 
   8   1.0000     -20.551633      -559.2384 
   9   1.0000     -11.412373      -310.5464 
  10   1.0000     -11.330100      -308.3077 
  11   1.0000     -11.294359      -307.3351 
  12   1.0000     -11.283392      -307.0367 
  13   1.0000     -11.282928      -307.0241 
  14   1.0000     -11.267978      -306.6173 
  15   1.0000     -11.234455      -305.7051 
  16   1.0000     -11.233844      -305.6884 
  17   1.0000     -10.501427      -285.7584 
  18   1.0000     -10.500011      -285.7198 
  19   1.0000     -10.496350      -285.6202 
  20   1.0000      -7.968266      -216.8275 
  21   1.0000      -7.967506      -216.8069 
  22   1.0000      -7.967416      -216.8044 
  23   1.0000      -7.966897      -216.7903 
  24   1.0000      -7.966043      -216.7671 
  25   1.0000      -7.966025      -216.7666 
  26   1.0000      -7.963153      -216.6884 
  27   1.0000      -7.962479      -216.6701 
  28   1.0000      -7.962385      -216.6675 
  29   1.0000      -4.568676      -124.3200 
  30   1.0000      -3.181041       -86.5605 
  31   1.0000      -3.180898       -86.5566 
  32   1.0000      -3.180312       -86.5407 
  33   1.0000      -1.348351       -36.6905 
  34   1.0000      -1.178346       -32.0644 
  35   1.0000      -1.097504       -29.8646 
  36   1.0000      -1.045742       -28.4561 
  37   1.0000      -1.040728       -28.3196 
  38   1.0000      -1.037379       -28.2285 
  39   1.0000      -1.034919       -28.1616 
  40   1.0000      -1.018989       -27.7281 
  41   1.0000      -0.963170       -26.2092 
  42   1.0000      -0.936276       -25.4774 
  43   1.0000      -0.900765       -24.5111 
  44   1.0000      -0.897966       -24.4349 
  45   1.0000      -0.897681       -24.4272 
  46   1.0000      -0.890092       -24.2206 
  47   1.0000      -0.889550       -24.2059 
  48   1.0000      -0.806543       -21.9472 
  49   1.0000      -0.759042       -20.6546 
  50   1.0000      -0.703384       -19.1401 
  51   1.0000      -0.689947       -18.7744 
  52   1.0000      -0.672139       -18.2898 
  53   1.0000      -0.637048       -17.3349 
  54   1.0000      -0.635458       -17.2917 
  55   1.0000      -0.619570       -16.8594 
  56   1.0000      -0.606457       -16.5025 
  57   1.0000      -0.596192       -16.2232 
  58   1.0000      -0.594457       -16.1760 
  59   1.0000      -0.584506       -15.9052 
  60   1.0000      -0.576520       -15.6879 
  61   1.0000      -0.559126       -15.2146 
  62   1.0000      -0.543845       -14.7988 
  63   1.0000      -0.536294       -14.5933 
  64   1.0000      -0.526530       -14.3276 
  65   1.0000      -0.518346       -14.1049 
  66   1.0000      -0.502643       -13.6776 
  67   1.0000      -0.471329       -12.8255 
  68   1.0000      -0.467954       -12.7337 
  69   1.0000      -0.449940       -12.2435 
  70   1.0000      -0.440887       -11.9971 
  71   1.0000      -0.425822       -11.5872 
  72   1.0000      -0.421281       -11.4636 
  73   1.0000      -0.417213       -11.3529 
  74   1.0000      -0.413245       -11.2450 
  75   1.0000      -0.411702       -11.2030 
  76   1.0000      -0.409857       -11.1528 
  77   0.0000       0.005694         0.1549 
  78   0.0000       0.018321         0.4986 
  79   0.0000       0.021179         0.5763 
  80   0.0000       0.030044         0.8175 
  81   0.0000       0.031908         0.8683 
  82   0.0000       0.037450         1.0191 
  83   0.0000       0.040650         1.1061 
  84   0.0000       0.043242         1.1767 
  85   0.0000       0.044082         1.1995 
  86   0.0000       0.047091         1.2814 
  87   0.0000       0.056847         1.5469 
  88   0.0000       0.059900         1.6300 
  89   0.0000       0.060679         1.6511 
  90   0.0000       0.064220         1.7475 
  91   0.0000       0.066210         1.8017 
  92   0.0000       0.070591         1.9209 
  93   0.0000       0.072153         1.9634 
  94   0.0000       0.081499         2.2177 
  95   0.0000       0.086100         2.3429 
  96   0.0000       0.089242         2.4284 
  97   0.0000       0.090465         2.4617 
  98   0.0000       0.092740         2.5236 
  99   0.0000       0.100189         2.7263 
 100   0.0000       0.101720         2.7680 
 101   0.0000       0.110044         2.9944 
 102   0.0000       0.116074         3.1585 
 103   0.0000       0.117589         3.1998 
 104   0.0000       0.121377         3.3028 
 105   0.0000       0.123735         3.3670 
 106   0.0000       0.128228         3.4893 
 107   0.0000       0.129207         3.5159 
 108   0.0000       0.131334         3.5738 
 109   0.0000       0.132308         3.6003 
 110   0.0000       0.136170         3.7054 
 111   0.0000       0.137697         3.7469 
 112   0.0000       0.146901         3.9974 
 113   0.0000       0.148013         4.0276 
 114   0.0000       0.150422         4.0932 
 115   0.0000       0.152872         4.1599 
 116   0.0000       0.157327         4.2811 
 117   0.0000       0.159057         4.3282 
 118   0.0000       0.161927         4.4063 
 119   0.0000       0.166936         4.5426 
 120   0.0000       0.170157         4.6302 
 121   0.0000       0.173495         4.7210 
 122   0.0000       0.176208         4.7949 
 123   0.0000       0.182226         4.9586 
 124   0.0000       0.184913         5.0318 
 125   0.0000       0.188345         5.1251 
 126   0.0000       0.192916         5.2495 
 127   0.0000       0.194760         5.2997 
 128   0.0000       0.196873         5.3572 
 129   0.0000       0.201549         5.4844 
 130   0.0000       0.202341         5.5060 
 131   0.0000       0.204743         5.5713 
 132   0.0000       0.207117         5.6359 
 133   0.0000       0.211336         5.7507 
 134   0.0000       0.214082         5.8255 
 135   0.0000       0.219687         5.9780 
 136   0.0000       0.222669         6.0591 
 137   0.0000       0.227822         6.1994 
 138   0.0000       0.230004         6.2587 
 139   0.0000       0.232252         6.3199 
 140   0.0000       0.239739         6.5236 
 141   0.0000       0.241881         6.5819 
 142   0.0000       0.244138         6.6433 
 143   0.0000       0.247895         6.7456 
 144   0.0000       0.251204         6.8356 
 145   0.0000       0.253292         6.8924 
 146   0.0000       0.254304         6.9200 
 147   0.0000       0.256809         6.9881 
 148   0.0000       0.260735         7.0950 
 149   0.0000       0.263394         7.1673 
 150   0.0000       0.267836         7.2882 
 151   0.0000       0.274704         7.4751 
 152   0.0000       0.275797         7.5048 
 153   0.0000       0.280715         7.6386 
 154   0.0000       0.284085         7.7303 
 155   0.0000       0.286806         7.8044 
 156   0.0000       0.288445         7.8490 
 157   0.0000       0.296806         8.0765 
 158   0.0000       0.302280         8.2255 
 159   0.0000       0.304430         8.2840 
 160   0.0000       0.306207         8.3323 
 161   0.0000       0.308367         8.3911 
 162   0.0000       0.313289         8.5250 
 163   0.0000       0.322240         8.7686 
 164   0.0000       0.326350         8.8804 
 165   0.0000       0.329213         8.9583 
 166   0.0000       0.331371         9.0171 
 167   0.0000       0.337481         9.1833 
 168   0.0000       0.344135         9.3644 
 169   0.0000       0.345521         9.4021 
 170   0.0000       0.351211         9.5569 
 171   0.0000       0.353997         9.6327 
 172   0.0000       0.357123         9.7178 
 173   0.0000       0.360751         9.8165 
 174   0.0000       0.362441         9.8625 
 175   0.0000       0.364847         9.9280 
 176   0.0000       0.368716        10.0333 
 177   0.0000       0.371995        10.1225 
 178   0.0000       0.375436        10.2161 
 179   0.0000       0.378605        10.3024 
 180   0.0000       0.382892        10.4190 
 181   0.0000       0.385398        10.4872 
 182   0.0000       0.388621        10.5749 
 183   0.0000       0.392643        10.6844 
 184   0.0000       0.396576        10.7914 
 185   0.0000       0.398601        10.8465 
 186   0.0000       0.402320        10.9477 
 187   0.0000       0.404138        10.9972 
 188   0.0000       0.407062        11.0767 
 189   0.0000       0.409932        11.1548 
 190   0.0000       0.412602        11.2275 
 191   0.0000       0.419812        11.4237 
 192   0.0000       0.420962        11.4550 
 193   0.0000       0.424894        11.5620 
 194   0.0000       0.428867        11.6701 
 195   0.0000       0.430404        11.7119 
 196   0.0000       0.436248        11.8709 
 197   0.0000       0.437270        11.8987 
 198   0.0000       0.442094        12.0300 
 199   0.0000       0.445526        12.1234 
 200   0.0000       0.452108        12.3025 
 201   0.0000       0.456122        12.4117 
 202   0.0000       0.460855        12.5405 
 203   0.0000       0.463431        12.6106 
 204   0.0000       0.465103        12.6561 
 205   0.0000       0.467582        12.7235 
 206   0.0000       0.468830        12.7575 
 207   0.0000       0.473430        12.8827 
 208   0.0000       0.474232        12.9045 
 209   0.0000       0.476286        12.9604 
 210   0.0000       0.480264        13.0686 
 211   0.0000       0.485984        13.2243 
 212   0.0000       0.487378        13.2622 
 213   0.0000       0.490024        13.3342 
 214   0.0000       0.490565        13.3490 
 215   0.0000       0.499839        13.6013 
 216   0.0000       0.500868        13.6293 
 217   0.0000       0.504187        13.7196 
 218   0.0000       0.505599        13.7580 
 219   0.0000       0.509780        13.8718 
 220   0.0000       0.514579        14.0024 
 221   0.0000       0.518939        14.1211 
 222   0.0000       0.523748        14.2519 
 223   0.0000       0.524425        14.2703 
 224   0.0000       0.526563        14.3285 
 225   0.0000       0.528753        14.3881 
 226   0.0000       0.532518        14.4905 
 227   0.0000       0.539342        14.6762 
 228   0.0000       0.542311        14.7570 
 229   0.0000       0.543817        14.7980 
 230   0.0000       0.544381        14.8133 
 231   0.0000       0.553514        15.0619 
 232   0.0000       0.557506        15.1705 
 233   0.0000       0.565363        15.3843 
 234   0.0000       0.567567        15.4443 
 235   0.0000       0.569446        15.4954 
 236   0.0000       0.576274        15.6812 
 237   0.0000       0.577547        15.7158 
 238   0.0000       0.579576        15.7711 
 239   0.0000       0.581880        15.8338 
 240   0.0000       0.586275        15.9533 
 241   0.0000       0.590161        16.0591 
 242   0.0000       0.590828        16.0773 
 243   0.0000       0.595750        16.2112 
 244   0.0000       0.599775        16.3207 
 245   0.0000       0.602987        16.4081 
 246   0.0000       0.604913        16.4605 
 247   0.0000       0.608077        16.5466 
 248   0.0000       0.610831        16.6215 
 249   0.0000       0.621087        16.9006 
 250   0.0000       0.625164        17.0116 
 251   0.0000       0.627779        17.0827 
 252   0.0000       0.629841        17.1389 
 253   0.0000       0.635022        17.2798 
 254   0.0000       0.637018        17.3342 
 255   0.0000       0.639993        17.4151 
 256   0.0000       0.646771        17.5995 
 257   0.0000       0.647485        17.6190 
 258   0.0000       0.654046        17.7975 
 259   0.0000       0.662100        18.0166 
 260   0.0000       0.662995        18.0410 
 261   0.0000       0.666414        18.1340 
 262   0.0000       0.669643        18.2219 
 263   0.0000       0.676606        18.4114 
 264   0.0000       0.680417        18.5151 
 265   0.0000       0.686087        18.6694 
 266   0.0000       0.692035        18.8312 
 267   0.0000       0.692898        18.8547 
 268   0.0000       0.695679        18.9304 
 269   0.0000       0.698894        19.0179 
 270   0.0000       0.703715        19.1491 
 271   0.0000       0.708032        19.2665 
 272   0.0000       0.714813        19.4511 
 273   0.0000       0.717651        19.5283 
 274   0.0000       0.725068        19.7301 
 275   0.0000       0.727114        19.7858 
 276   0.0000       0.729222        19.8431 
 277   0.0000       0.737427        20.0664 
 278   0.0000       0.743339        20.2273 
 279   0.0000       0.747553        20.3420 
 280   0.0000       0.753520        20.5043 
 281   0.0000       0.756872        20.5955 
 282   0.0000       0.761964        20.7341 
 283   0.0000       0.771413        20.9912 
 284   0.0000       0.776680        21.1346 
 285   0.0000       0.780997        21.2520 
 286   0.0000       0.788485        21.4558 
 287   0.0000       0.791493        21.5376 
 288   0.0000       0.798205        21.7203 
 289   0.0000       0.802131        21.8271 
 290   0.0000       0.803226        21.8569 
 291   0.0000       0.814281        22.1577 
 292   0.0000       0.819213        22.2919 
 293   0.0000       0.823983        22.4217 
 294   0.0000       0.828797        22.5527 
 295   0.0000       0.831894        22.6370 
 296   0.0000       0.835713        22.7409 
 297   0.0000       0.846479        23.0339 
 298   0.0000       0.852937        23.2096 
 299   0.0000       0.858009        23.3476 
 300   0.0000       0.864521        23.5248 
 301   0.0000       0.871108        23.7040 
 302   0.0000       0.877563        23.8797 
 303   0.0000       0.878418        23.9030 
 304   0.0000       0.879828        23.9413 
 305   0.0000       0.884280        24.0625 
 306   0.0000       0.890671        24.2364 
 307   0.0000       0.895340        24.3635 
 308   0.0000       0.898508        24.4496 
 309   0.0000       0.900302        24.4985 
 310   0.0000       0.909181        24.7401 
 311   0.0000       0.912580        24.8326 
 312   0.0000       0.917353        24.9624 
 313   0.0000       0.923619        25.1330 
 314   0.0000       0.925012        25.1709 
 315   0.0000       0.930517        25.3207 
 316   0.0000       0.933887        25.4124 
 317   0.0000       0.935697        25.4616 
 318   0.0000       0.939009        25.5517 
 319   0.0000       0.941345        25.6153 
 320   0.0000       0.944204        25.6931 
 321   0.0000       0.950473        25.8637 
 322   0.0000       0.955776        26.0080 
 323   0.0000       0.958192        26.0737 
 324   0.0000       0.963301        26.2128 
 325   0.0000       0.964644        26.2493 
 326   0.0000       0.968456        26.3530 
 327   0.0000       0.977132        26.5891 
 328   0.0000       0.978426        26.6243 
 329   0.0000       0.980035        26.6681 
 330   0.0000       0.982629        26.7387 
 331   0.0000       0.985626        26.8202 
 332   0.0000       0.987166        26.8621 
 333   0.0000       0.997508        27.1436 
 334   0.0000       0.998794        27.1786 
 335   0.0000       1.001728        27.2584 
 336   0.0000       1.006453        27.3870 
 337   0.0000       1.009018        27.4568 
 338   0.0000       1.014507        27.6062 
 339   0.0000       1.017933        27.6994 
 340   0.0000       1.020595        27.7718 
 341   0.0000       1.025389        27.9023 
 342   0.0000       1.028655        27.9911 
 343   0.0000       1.032205        28.0877 
 344   0.0000       1.035474        28.1767 
 345   0.0000       1.039114        28.2757 
 346   0.0000       1.044175        28.4135 
 347   0.0000       1.046022        28.4637 
 348   0.0000       1.050705        28.5911 
 349   0.0000       1.056948        28.7610 
 350   0.0000       1.061186        28.8763 
 351   0.0000       1.061808        28.8933 
 352   0.0000       1.064694        28.9718 
 353   0.0000       1.066580        29.0231 
 354   0.0000       1.070572        29.1317 
 355   0.0000       1.073889        29.2220 
 356   0.0000       1.078462        29.3465 
 357   0.0000       1.082404        29.4537 
 358   0.0000       1.087128        29.5823 
 359   0.0000       1.090389        29.6710 
 360   0.0000       1.097278        29.8584 
 361   0.0000       1.102484        30.0001 
 362   0.0000       1.106595        30.1120 
 363   0.0000       1.112924        30.2842 
 364   0.0000       1.114595        30.3297 
 365   0.0000       1.122276        30.5387 
 366   0.0000       1.125175        30.6176 
 367   0.0000       1.135227        30.8911 
 368   0.0000       1.138327        30.9754 
 369   0.0000       1.140300        31.0291 
 370   0.0000       1.143509        31.1165 
 371   0.0000       1.148659        31.2566 
 372   0.0000       1.149518        31.2800 
 373   0.0000       1.154505        31.4157 
 374   0.0000       1.156836        31.4791 
 375   0.0000       1.159131        31.5416 
 376   0.0000       1.163218        31.6528 
 377   0.0000       1.168500        31.7965 
 378   0.0000       1.172845        31.9147 
 379   0.0000       1.182499        32.1774 
 380   0.0000       1.186181        32.2776 
 381   0.0000       1.190526        32.3959 
 382   0.0000       1.194805        32.5123 
 383   0.0000       1.198810        32.6213 
 384   0.0000       1.205877        32.8136 
 385   0.0000       1.208167        32.8759 
 386   0.0000       1.210697        32.9447 
 387   0.0000       1.214721        33.0542 
 388   0.0000       1.221409        33.2362 
 389   0.0000       1.223451        33.2918 
 390   0.0000       1.230477        33.4830 
 391   0.0000       1.233300        33.5598 
 392   0.0000       1.239329        33.7238 
 393   0.0000       1.242619        33.8134 
 394   0.0000       1.248218        33.9658 
 395   0.0000       1.250038        34.0153 
 396   0.0000       1.254876        34.1469 
 397   0.0000       1.258340        34.2412 
 398   0.0000       1.262553        34.3558 
 399   0.0000       1.270352        34.5680 
 400   0.0000       1.273116        34.6433 
 401   0.0000       1.283489        34.9255 
 402   0.0000       1.285620        34.9835 
 403   0.0000       1.286680        35.0123 
 404   0.0000       1.292401        35.1680 
 405   0.0000       1.305995        35.5379 
 406   0.0000       1.312056        35.7029 
 407   0.0000       1.318288        35.8724 
 408   0.0000       1.321986        35.9731 
 409   0.0000       1.327255        36.1165 
 410   0.0000       1.333769        36.2937 
 411   0.0000       1.337622        36.3986 
 412   0.0000       1.342658        36.5356 
 413   0.0000       1.344616        36.5889 
 414   0.0000       1.354633        36.8614 
 415   0.0000       1.358086        36.9554 
 416   0.0000       1.362644        37.0794 
 417   0.0000       1.372067        37.3358 
 418   0.0000       1.379919        37.5495 
 419   0.0000       1.381662        37.5969 
 420   0.0000       1.388244        37.7760 
 421   0.0000       1.392221        37.8843 
 422   0.0000       1.394664        37.9507 
 423   0.0000       1.403376        38.1878 
 424   0.0000       1.408757        38.3342 
 425   0.0000       1.411468        38.4080 
 426   0.0000       1.418472        38.5986 
 427   0.0000       1.421534        38.6819 
 428   0.0000       1.432849        38.9898 
 429   0.0000       1.436076        39.0776 
 430   0.0000       1.443822        39.2884 
 431   0.0000       1.450236        39.4629 
 432   0.0000       1.452110        39.5139 
 433   0.0000       1.455903        39.6171 
 434   0.0000       1.463595        39.8264 
 435   0.0000       1.468007        39.9465 
 436   0.0000       1.468580        39.9621 
 437   0.0000       1.476454        40.1764 
 438   0.0000       1.483600        40.3708 
 439   0.0000       1.487996        40.4904 
 440   0.0000       1.493549        40.6415 
 441   0.0000       1.500403        40.8280 
 442   0.0000       1.503399        40.9096 
 443   0.0000       1.506668        40.9985 
 444   0.0000       1.517352        41.2892 
 445   0.0000       1.523137        41.4467 
 446   0.0000       1.525815        41.5195 
 447   0.0000       1.530286        41.6412 
 448   0.0000       1.533408        41.7261 
 449   0.0000       1.538053        41.8525 
 450   0.0000       1.546158        42.0731 
 451   0.0000       1.549437        42.1623 
 452   0.0000       1.553209        42.2650 
 453   0.0000       1.563286        42.5392 
 454   0.0000       1.566089        42.6154 
 455   0.0000       1.571676        42.7675 
 456   0.0000       1.576954        42.9111 
 457   0.0000       1.579019        42.9673 
 458   0.0000       1.585153        43.1342 
 459   0.0000       1.589820        43.2612 
 460   0.0000       1.592417        43.3319 
 461   0.0000       1.601683        43.5840 
 462   0.0000       1.605759        43.6949 
 463   0.0000       1.610741        43.8305 
 464   0.0000       1.616598        43.9899 
 465   0.0000       1.628262        44.3073 
 466   0.0000       1.630423        44.3661 
 467   0.0000       1.635153        44.4948 
 468   0.0000       1.641691        44.6727 
 469   0.0000       1.645385        44.7732 
 470   0.0000       1.652306        44.9615 
 471   0.0000       1.659395        45.1544 
 472   0.0000       1.666919        45.3592 
 473   0.0000       1.671242        45.4768 
 474   0.0000       1.675695        45.5980 
 475   0.0000       1.680747        45.7354 
 476   0.0000       1.684914        45.8488 
 477   0.0000       1.687831        45.9282 
 478   0.0000       1.696400        46.1614 
 479   0.0000       1.698584        46.2208 
 480   0.0000       1.705212        46.4012 
 481   0.0000       1.710530        46.5459 
 482   0.0000       1.714554        46.6554 
 483   0.0000       1.719055        46.7779 
 484   0.0000       1.730236        47.0821 
 485   0.0000       1.735405        47.2228 
 486   0.0000       1.738620        47.3102 
 487   0.0000       1.740496        47.3613 
 488   0.0000       1.746770        47.5320 
 489   0.0000       1.750643        47.6374 
 490   0.0000       1.755512        47.7699 
 491   0.0000       1.758114        47.8407 
 492   0.0000       1.765131        48.0317 
 493   0.0000       1.771237        48.1978 
 494   0.0000       1.774141        48.2768 
 495   0.0000       1.777447        48.3668 
 496   0.0000       1.781528        48.4778 
 497   0.0000       1.783584        48.5338 
 498   0.0000       1.794450        48.8295 
 499   0.0000       1.797848        48.9219 
 500   0.0000       1.804785        49.1107 
 501   0.0000       1.809094        49.2279 
 502   0.0000       1.812647        49.3246 
 503   0.0000       1.820049        49.5261 
 504   0.0000       1.824705        49.6527 
 505   0.0000       1.833883        49.9025 
 506   0.0000       1.836384        49.9706 
 507   0.0000       1.840488        50.0822 
 508   0.0000       1.848183        50.2916 
 509   0.0000       1.850479        50.3541 
 510   0.0000       1.853025        50.4234 
 511   0.0000       1.860792        50.6347 
 512   0.0000       1.869683        50.8767 
 513   0.0000       1.872576        50.9554 
 514   0.0000       1.876386        51.0591 
 515   0.0000       1.883785        51.2604 
 516   0.0000       1.889753        51.4228 
 517   0.0000       1.898771        51.6682 
 518   0.0000       1.899686        51.6931 
 519   0.0000       1.904183        51.8155 
 520   0.0000       1.908071        51.9212 
 521   0.0000       1.913504        52.0691 
 522   0.0000       1.920920        52.2709 
 523   0.0000       1.931402        52.5561 
 524   0.0000       1.933180        52.6045 
 525   0.0000       1.940465        52.8027 
 526   0.0000       1.946269        52.9607 
 527   0.0000       1.952119        53.1199 
 528   0.0000       1.954100        53.1738 
 529   0.0000       1.964254        53.4501 
 530   0.0000       1.966905        53.5222 
 531   0.0000       1.969457        53.5917 
 532   0.0000       1.980449        53.8908 
 533   0.0000       1.985593        54.0307 
 534   0.0000       1.991775        54.1989 
 535   0.0000       1.995730        54.3066 
 536   0.0000       1.999288        54.4034 
 537   0.0000       2.006873        54.6098 
 538   0.0000       2.013898        54.8009 
 539   0.0000       2.020820        54.9893 
 540   0.0000       2.023517        55.0627 
 541   0.0000       2.032337        55.3027 
 542   0.0000       2.037430        55.4413 
 543   0.0000       2.044113        55.6231 
 544   0.0000       2.055262        55.9265 
 545   0.0000       2.061026        56.0834 
 546   0.0000       2.066217        56.2246 
 547   0.0000       2.070374        56.3377 
 548   0.0000       2.081832        56.6495 
 549   0.0000       2.086229        56.7692 
 550   0.0000       2.091363        56.9089 
 551   0.0000       2.104758        57.2734 
 552   0.0000       2.107027        57.3351 
 553   0.0000       2.110878        57.4399 
 554   0.0000       2.125215        57.8300 
 555   0.0000       2.132091        58.0172 
 556   0.0000       2.142140        58.2906 
 557   0.0000       2.151449        58.5439 
 558   0.0000       2.157622        58.7119 
 559   0.0000       2.159432        58.7611 
 560   0.0000       2.164742        58.9056 
 561   0.0000       2.171241        59.0825 
 562   0.0000       2.181630        59.3652 
 563   0.0000       2.188574        59.5541 
 564   0.0000       2.194037        59.7028 
 565   0.0000       2.199692        59.8567 
 566   0.0000       2.211726        60.1841 
 567   0.0000       2.216061        60.3021 
 568   0.0000       2.219550        60.3970 
 569   0.0000       2.223477        60.5039 
 570   0.0000       2.229529        60.6686 
 571   0.0000       2.244321        61.0711 
 572   0.0000       2.246774        61.1378 
 573   0.0000       2.251812        61.2749 
 574   0.0000       2.256152        61.3930 
 575   0.0000       2.260635        61.5150 
 576   0.0000       2.270044        61.7711 
 577   0.0000       2.283816        62.1458 
 578   0.0000       2.293725        62.4154 
 579   0.0000       2.298721        62.5514 
 580   0.0000       2.304606        62.7115 
 581   0.0000       2.313512        62.9539 
 582   0.0000       2.319851        63.1264 
 583   0.0000       2.320202        63.1359 
 584   0.0000       2.333609        63.5007 
 585   0.0000       2.341405        63.7129 
 586   0.0000       2.347745        63.8854 
 587   0.0000       2.356888        64.1342 
 588   0.0000       2.359514        64.2056 
 589   0.0000       2.371598        64.5345 
 590   0.0000       2.376235        64.6607 
 591   0.0000       2.382309        64.8259 
 592   0.0000       2.384486        64.8852 
 593   0.0000       2.395718        65.1908 
 594   0.0000       2.398010        65.2532 
 595   0.0000       2.411524        65.6209 
 596   0.0000       2.420257        65.8585 
 597   0.0000       2.431414        66.1621 
 598   0.0000       2.437608        66.3307 
 599   0.0000       2.442981        66.4769 
 600   0.0000       2.459057        66.9144 
 601   0.0000       2.469188        67.1900 
 602   0.0000       2.474879        67.3449 
 603   0.0000       2.487915        67.6996 
 604   0.0000       2.491861        67.8070 
 605   0.0000       2.499687        68.0199 
 606   0.0000       2.503459        68.1226 
 607   0.0000       2.522000        68.6271 
 608   0.0000       2.534051        68.9550 
 609   0.0000       2.541060        69.1458 
 610   0.0000       2.551195        69.4215 
 611   0.0000       2.576796        70.1182 
 612   0.0000       2.579685        70.1968 
 613   0.0000       2.608270        70.9746 
 614   0.0000       2.624103        71.4055 
 615   0.0000       2.628534        71.5260 
 616   0.0000       2.634937        71.7003 
 617   0.0000       2.648348        72.0652 
 618   0.0000       2.656970        72.2998 
 619   0.0000       2.664546        72.5060 
 620   0.0000       2.670635        72.6717 
 621   0.0000       2.679553        72.9144 
 622   0.0000       2.687508        73.1308 
 623   0.0000       2.701537        73.5126 
 624   0.0000       2.705580        73.6226 
 625   0.0000       2.715371        73.8890 
 626   0.0000       2.722815        74.0916 
 627   0.0000       2.724763        74.1446 
 628   0.0000       2.737004        74.4777 
 629   0.0000       2.744171        74.6727 
 630   0.0000       2.754619        74.9570 
 631   0.0000       2.764321        75.2210 
 632   0.0000       2.773895        75.4815 
 633   0.0000       2.789592        75.9087 
 634   0.0000       2.796260        76.0901 
 635   0.0000       2.802743        76.2665 
 636   0.0000       2.821493        76.7767 
 637   0.0000       2.838645        77.2435 
 638   0.0000       2.845905        77.4410 
 639   0.0000       2.856663        77.7338 
 640   0.0000       2.870897        78.1211 
 641   0.0000       2.880510        78.3827 
 642   0.0000       2.896132        78.8078 
 643   0.0000       2.911636        79.2296 
 644   0.0000       2.918639        79.4202 
 645   0.0000       2.936838        79.9154 
 646   0.0000       2.938999        79.9742 
 647   0.0000       2.956843        80.4598 
 648   0.0000       2.968053        80.7648 
 649   0.0000       2.981885        81.1412 
 650   0.0000       2.991910        81.4140 
 651   0.0000       3.006353        81.8070 
 652   0.0000       3.022119        82.2360 
 653   0.0000       3.042839        82.7999 
 654   0.0000       3.048194        82.9456 
 655   0.0000       3.053257        83.0833 
 656   0.0000       3.084971        83.9463 
 657   0.0000       3.091455        84.1228 
 658   0.0000       3.113857        84.7323 
 659   0.0000       3.122263        84.9611 
 660   0.0000       3.140488        85.4570 
 661   0.0000       3.153236        85.8039 
 662   0.0000       3.163636        86.0869 
 663   0.0000       3.175503        86.4098 
 664   0.0000       3.187475        86.7356 
 665   0.0000       3.192670        86.8770 
 666   0.0000       3.208485        87.3073 
 667   0.0000       3.213415        87.4415 
 668   0.0000       3.223593        87.7184 
 669   0.0000       3.229214        87.8714 
 670   0.0000       3.248241        88.3891 
 671   0.0000       3.250151        88.4411 
 672   0.0000       3.272098        89.0383 
 673   0.0000       3.279861        89.2496 
 674   0.0000       3.283732        89.3549 
 675   0.0000       3.289429        89.5099 
 676   0.0000       3.307614        90.0047 
 677   0.0000       3.313084        90.1536 
 678   0.0000       3.319969        90.3410 
 679   0.0000       3.327018        90.5328 
 680   0.0000       3.341795        90.9349 
 681   0.0000       3.344535        91.0094 
 682   0.0000       3.351608        91.2019 
 683   0.0000       3.373092        91.7865 
 684   0.0000       3.377273        91.9003 
 685   0.0000       3.381487        92.0150 
 686   0.0000       3.390620        92.2635 
 687   0.0000       3.395329        92.3916 
 688   0.0000       3.409715        92.7831 
 689   0.0000       3.421784        93.1115 
 690   0.0000       3.425522        93.2132 
 691   0.0000       3.441804        93.6563 
 692   0.0000       3.450592        93.8954 
 693   0.0000       3.463916        94.2579 
 694   0.0000       3.474779        94.5536 
 695   0.0000       3.480293        94.7036 
 696   0.0000       3.484279        94.8120 
 697   0.0000       3.497438        95.1701 
 698   0.0000       3.500456        95.2523 
 699   0.0000       3.524909        95.9177 
 700   0.0000       3.528314        96.0103 
 701   0.0000       3.530360        96.0660 
 702   0.0000       3.536141        96.2233 
 703   0.0000       3.548014        96.5464 
 704   0.0000       3.553141        96.6859 
 705   0.0000       3.565141        97.0124 
 706   0.0000       3.571184        97.1769 
 707   0.0000       3.575974        97.3072 
 708   0.0000       3.585136        97.5565 
 709   0.0000       3.601117        97.9914 
 710   0.0000       3.603976        98.0692 
 711   0.0000       3.607577        98.1672 
 712   0.0000       3.623075        98.5889 
 713   0.0000       3.632680        98.8502 
 714   0.0000       3.638885        99.0191 
 715   0.0000       3.648002        99.2672 
 716   0.0000       3.659630        99.5836 
 717   0.0000       3.660969        99.6200 
 718   0.0000       3.670576        99.8815 
 719   0.0000       3.684310       100.2552 
 720   0.0000       3.691546       100.4521 
 721   0.0000       3.695009       100.5463 
 722   0.0000       3.707436       100.8845 
 723   0.0000       3.712349       101.0182 
 724   0.0000       3.720738       101.2464 
 725   0.0000       3.725237       101.3689 
 726   0.0000       3.732584       101.5688 
 727   0.0000       3.738036       101.7171 
 728   0.0000       3.754270       102.1589 
 729   0.0000       3.761926       102.3672 
 730   0.0000       3.763108       102.3994 
 731   0.0000       3.771559       102.6293 
 732   0.0000       3.779138       102.8356 
 733   0.0000       3.793971       103.2392 
 734   0.0000       3.798068       103.3507 
 735   0.0000       3.811603       103.7190 
 736   0.0000       3.814299       103.7923 
 737   0.0000       3.820518       103.9616 
 738   0.0000       3.821945       104.0004 
 739   0.0000       3.827055       104.1395 
 740   0.0000       3.831927       104.2720 
 741   0.0000       3.846384       104.6654 
 742   0.0000       3.846900       104.6795 
 743   0.0000       3.863301       105.1258 
 744   0.0000       3.868191       105.2588 
 745   0.0000       3.871525       105.3496 
 746   0.0000       3.877234       105.5049 
 747   0.0000       3.887560       105.7859 
 748   0.0000       3.894720       105.9807 
 749   0.0000       3.897148       106.0468 
 750   0.0000       3.901983       106.1784 
 751   0.0000       3.911122       106.4270 
 752   0.0000       3.925532       106.8191 
 753   0.0000       3.930092       106.9433 
 754   0.0000       3.940958       107.2389 
 755   0.0000       3.946040       107.3772 
 756   0.0000       3.954884       107.6179 
 757   0.0000       3.959207       107.7355 
 758   0.0000       3.965669       107.9113 
 759   0.0000       3.977735       108.2397 
 760   0.0000       3.985036       108.4384 
 761   0.0000       3.987687       108.5105 
 762   0.0000       3.993980       108.6817 
 763   0.0000       3.996195       108.7420 
 764   0.0000       4.009589       109.1065 
 765   0.0000       4.015185       109.2587 
 766   0.0000       4.029112       109.6377 
 767   0.0000       4.038914       109.9044 
 768   0.0000       4.046329       110.1062 
 769   0.0000       4.049392       110.1896 
 770   0.0000       4.057559       110.4118 
 771   0.0000       4.064897       110.6115 
 772   0.0000       4.067947       110.6945 
 773   0.0000       4.071000       110.7775 
 774   0.0000       4.080615       111.0392 
 775   0.0000       4.087773       111.2340 
 776   0.0000       4.093522       111.3904 
 777   0.0000       4.104038       111.6766 
 778   0.0000       4.111280       111.8736 
 779   0.0000       4.118591       112.0726 
 780   0.0000       4.127122       112.3047 
 781   0.0000       4.136033       112.5472 
 782   0.0000       4.142907       112.7342 
 783   0.0000       4.148869       112.8965 
 784   0.0000       4.156707       113.1097 
 785   0.0000       4.165826       113.3579 
 786   0.0000       4.171787       113.5201 
 787   0.0000       4.185640       113.8970 
 788   0.0000       4.192911       114.0949 
 789   0.0000       4.193629       114.1145 
 790   0.0000       4.204437       114.4085 
 791   0.0000       4.211808       114.6091 
 792   0.0000       4.215474       114.7089 
 793   0.0000       4.229593       115.0931 
 794   0.0000       4.242494       115.4441 
 795   0.0000       4.245717       115.5318 
 796   0.0000       4.262925       116.0001 
 797   0.0000       4.263541       116.0169 
 798   0.0000       4.282009       116.5194 
 799   0.0000       4.285588       116.6168 
 800   0.0000       4.295472       116.8857 
 801   0.0000       4.297981       116.9540 
 802   0.0000       4.304701       117.1369 
 803   0.0000       4.313015       117.3631 
 804   0.0000       4.320150       117.5573 
 805   0.0000       4.325499       117.7028 
 806   0.0000       4.336986       118.0154 
 807   0.0000       4.340316       118.1060 
 808   0.0000       4.351734       118.4167 
 809   0.0000       4.364916       118.7754 
 810   0.0000       4.378340       119.1407 
 811   0.0000       4.384264       119.3019 
 812   0.0000       4.400046       119.7313 
 813   0.0000       4.409548       119.9899 
 814   0.0000       4.419151       120.2512 
 815   0.0000       4.422199       120.3342 
 816   0.0000       4.437214       120.7427 
 817   0.0000       4.440591       120.8346 
 818   0.0000       4.446429       120.9935 
 819   0.0000       4.455722       121.2464 
 820   0.0000       4.461375       121.4002 
 821   0.0000       4.470874       121.6587 
 822   0.0000       4.493907       122.2854 
 823   0.0000       4.503439       122.5448 
 824   0.0000       4.512267       122.7850 
 825   0.0000       4.516292       122.8946 
 826   0.0000       4.533882       123.3732 
 827   0.0000       4.535505       123.4174 
 828   0.0000       4.554495       123.9341 
 829   0.0000       4.565062       124.2217 
 830   0.0000       4.569479       124.3418 
 831   0.0000       4.588487       124.8591 
 832   0.0000       4.602388       125.2374 
 833   0.0000       4.609154       125.4215 
 834   0.0000       4.623595       125.8144 
 835   0.0000       4.636183       126.1569 
 836   0.0000       4.645816       126.4191 
 837   0.0000       4.656174       126.7009 
 838   0.0000       4.665546       126.9560 
 839   0.0000       4.679486       127.3353 
 840   0.0000       4.683948       127.4567 
 841   0.0000       4.704287       128.0102 
 842   0.0000       4.706443       128.0688 
 843   0.0000       4.718472       128.3961 
 844   0.0000       4.745109       129.1210 
 845   0.0000       4.758290       129.4796 
 846   0.0000       4.764933       129.6604 
 847   0.0000       4.771910       129.8503 
 848   0.0000       4.789822       130.3377 
 849   0.0000       4.795301       130.4868 
 850   0.0000       4.801743       130.6621 
 851   0.0000       4.808182       130.8373 
 852   0.0000       4.836888       131.6184 
 853   0.0000       4.838172       131.6534 
 854   0.0000       4.853401       132.0678 
 855   0.0000       4.865589       132.3994 
 856   0.0000       4.873435       132.6129 
 857   0.0000       4.876627       132.6998 
 858   0.0000       4.890536       133.0783 
 859   0.0000       4.904414       133.4559 
 860   0.0000       4.917134       133.8020 
 861   0.0000       4.940202       134.4297 
 862   0.0000       4.941315       134.4600 
 863   0.0000       4.945587       134.5763 
 864   0.0000       4.967012       135.1593 
 865   0.0000       4.972290       135.3029 
 866   0.0000       4.982924       135.5923 
 867   0.0000       4.984672       135.6398 
 868   0.0000       5.003258       136.1456 
 869   0.0000       5.007143       136.2513 
 870   0.0000       5.018378       136.5570 
 871   0.0000       5.020301       136.6093 
 872   0.0000       5.030836       136.8960 
 873   0.0000       5.049380       137.4006 
 874   0.0000       5.054625       137.5433 
 875   0.0000       5.075791       138.1193 
 876   0.0000       5.079614       138.2233 
 877   0.0000       5.101147       138.8093 
 878   0.0000       5.108503       139.0094 
 879   0.0000       5.121863       139.3730 
 880   0.0000       5.143142       139.9520 
 881   0.0000       5.150980       140.1653 
 882   0.0000       5.158543       140.3711 
 883   0.0000       5.186539       141.1329 
 884   0.0000       5.192198       141.2869 
 885   0.0000       5.207600       141.7060 
 886   0.0000       5.211919       141.8235 
 887   0.0000       5.234239       142.4309 
 888   0.0000       5.241882       142.6389 
 889   0.0000       5.252571       142.9297 
 890   0.0000       5.277754       143.6150 
 891   0.0000       5.290198       143.9536 
 892   0.0000       5.295350       144.0938 
 893   0.0000       5.314067       144.6031 
 894   0.0000       5.317071       144.6849 
 895   0.0000       5.331613       145.0806 
 896   0.0000       5.360920       145.8781 
 897   0.0000       5.363570       145.9502 
 898   0.0000       5.384561       146.5213 
 899   0.0000       5.394263       146.7853 
 900   0.0000       5.407391       147.1426 
 901   0.0000       5.408511       147.1731 
 902   0.0000       5.409272       147.1938 
 903   0.0000       5.423750       147.5877 
 904   0.0000       5.439910       148.0275 
 905   0.0000       5.456819       148.4876 
 906   0.0000       5.472101       148.9034 
 907   0.0000       5.474049       148.9564 
 908   0.0000       5.483288       149.2078 
 909   0.0000       5.496181       149.5587 
 910   0.0000       5.518936       150.1779 
 911   0.0000       5.530825       150.5014 
 912   0.0000       5.536541       150.6569 
 913   0.0000       5.549978       151.0226 
 914   0.0000       5.568248       151.5197 
 915   0.0000       5.573030       151.6499 
 916   0.0000       5.583499       151.9347 
 917   0.0000       5.590955       152.1376 
 918   0.0000       5.610674       152.6742 
 919   0.0000       5.617822       152.8687 
 920   0.0000       5.630885       153.2242 
 921   0.0000       5.638285       153.4255 
 922   0.0000       5.654316       153.8618 
 923   0.0000       5.659513       154.0032 
 924   0.0000       5.667347       154.2164 
 925   0.0000       5.676884       154.4759 
 926   0.0000       5.696459       155.0085 
 927   0.0000       5.700939       155.1304 
 928   0.0000       5.709857       155.3731 
 929   0.0000       5.717489       155.5808 
 930   0.0000       5.733326       156.0117 
 931   0.0000       5.749912       156.4631 
 932   0.0000       5.755290       156.6094 
 933   0.0000       5.774257       157.1255 
 934   0.0000       5.780505       157.2955 
 935   0.0000       5.810228       158.1043 
 936   0.0000       5.817342       158.2979 
 937   0.0000       5.827060       158.5624 
 938   0.0000       5.829957       158.6412 
 939   0.0000       5.852690       159.2598 
 940   0.0000       5.866965       159.6482 
 941   0.0000       5.874949       159.8655 
 942   0.0000       5.902565       160.6169 
 943   0.0000       5.923087       161.1754 
 944   0.0000       5.926879       161.2786 
 945   0.0000       5.976876       162.6391 
 946   0.0000       6.009607       163.5297 
 947   0.0000       6.052044       164.6845 
 948   0.0000       6.106591       166.1688 
 949   0.0000       6.123571       166.6309 
 950   0.0000       6.132187       166.8653 
 951   0.0000       6.165857       167.7815 
 952   0.0000       6.171846       167.9445 
 953   0.0000       6.180336       168.1755 
 954   0.0000       6.202413       168.7762 
 955   0.0000       6.220130       169.2584 
 956   0.0000       6.233983       169.6353 
 957   0.0000       6.245277       169.9426 
 958   0.0000       6.257807       170.2836 
 959   0.0000       6.278791       170.8546 
 960   0.0000       6.304399       171.5514 
 961   0.0000       6.325935       172.1375 
 962   0.0000       6.333548       172.3446 
 963   0.0000       6.354717       172.9206 
 964   0.0000       6.383903       173.7148 
 965   0.0000       6.386943       173.7976 
 966   0.0000       6.422519       174.7656 
 967   0.0000       6.433253       175.0577 
 968   0.0000       6.488978       176.5741 
 969   0.0000       6.533757       177.7926 
 970   0.0000       6.585611       179.2036 
 971   0.0000       6.639193       180.6616 
 972   0.0000       6.840459       186.1383 
 973   0.0000       6.851032       186.4261 
 974   0.0000       6.915184       188.1717 
 975   0.0000       6.919834       188.2983 
 976   0.0000       6.933994       188.6836 
 977   0.0000       6.945649       189.0007 
 978   0.0000       6.972688       189.7365 
 979   0.0000       6.996697       190.3898 
 980   0.0000       7.004731       190.6084 
 981   0.0000       7.025989       191.1869 
 982   0.0000       7.081525       192.6981 
 983   0.0000       7.096307       193.1003 
 984   0.0000       7.145404       194.4363 
 985   0.0000       7.171418       195.1442 
 986   0.0000       7.333453       199.5534 
 987   0.0000       7.422349       201.9724 
 988   0.0000       7.469159       203.2461 
 989   0.0000       7.568250       205.9425 
 990   0.0000       7.593217       206.6219 
 991   0.0000       7.606774       206.9908 
 992   0.0000       7.740395       210.6269 
 993   0.0000       7.760263       211.1675 
 994   0.0000       7.816461       212.6967 
 995   0.0000       7.855313       213.7539 
 996   0.0000       8.051637       219.0962 
 997   0.0000       8.145645       221.6543 
 998   0.0000       8.352154       227.2737 
 999   0.0000       9.441940       256.9283 
 1000   0.0000       9.453866       257.2528 
 1001   0.0000       9.471577       257.7347 
 1002   0.0000       9.494816       258.3671 
 1003   0.0000       9.498374       258.4639 
 1004   0.0000       9.521409       259.0907 
 1005   0.0000       9.756842       265.4972 
 1006   0.0000      10.109942       275.1055 
 1007   0.0000      10.135226       275.7935 
 1008   0.0000      10.152674       276.2683 
 1009   0.0000      10.220739       278.1204 
 1010   0.0000      10.234059       278.4829 
 1011   0.0000      10.260936       279.2143 
 1012   0.0000      10.408826       283.2386 
 1013   0.0000      10.430650       283.8324 
 1014   0.0000      10.560915       287.3771 
 1015   0.0000      15.645157       425.7264 
 1016   0.0000      17.874696       486.3952 
 1017   0.0000      18.215536       495.6699 
 1018   0.0000      18.589001       505.8324 
 1019   0.0000      18.772524       510.8263 
 1020   0.0000      19.003584       517.1138 
 1021   0.0000      19.190055       522.1879 
 1022   0.0000      20.049049       545.5624 
 1023   0.0000      20.358773       553.9904 
 1024   0.0000      21.741385       591.6132 

                 SPIN DOWN ORBITALS
  NO   OCC          E(Eh)            E(eV) 
   0   1.0000    -261.541814     -7116.9146 
   1   1.0000    -104.773532     -2851.0328 
   2   1.0000    -104.771922     -2850.9889 
   3   1.0000    -104.768278     -2850.8898 
   4   1.0000     -32.051263      -872.1592 
   5   1.0000     -27.529378      -749.1125 
   6   1.0000     -27.529139      -749.1060 
   7   1.0000     -27.528665      -749.0931 
   8   1.0000     -20.545707      -559.0771 
   9   1.0000     -11.412432      -310.5481 
  10   1.0000     -11.329876      -308.3016 
  11   1.0000     -11.294266      -307.3326 
  12   1.0000     -11.283396      -307.0368 
  13   1.0000     -11.282906      -307.0235 
  14   1.0000     -11.267967      -306.6170 
  15   1.0000     -11.234413      -305.7039 
  16   1.0000     -11.233827      -305.6880 
  17   1.0000     -10.500028      -285.7203 
  18   1.0000     -10.498536      -285.6797 
  19   1.0000     -10.494795      -285.5779 
  20   1.0000      -7.965966      -216.7649 
  21   1.0000      -7.965403      -216.7496 
  22   1.0000      -7.965326      -216.7475 
  23   1.0000      -7.964425      -216.7230 
  24   1.0000      -7.963874      -216.7080 
  25   1.0000      -7.963825      -216.7067 
  26   1.0000      -7.960778      -216.6238 
  27   1.0000      -7.960003      -216.6027 
  28   1.0000      -7.959943      -216.6011 
  29   1.0000      -4.126586      -112.2901 
  30   1.0000      -2.648553       -72.0708 
  31   1.0000      -2.648473       -72.0686 
  32   1.0000      -2.647355       -72.0382 
  33   1.0000      -1.333174       -36.2775 
  34   1.0000      -1.176465       -32.0133 
  35   1.0000      -1.094997       -29.7964 
  36   1.0000      -1.033225       -28.1155 
  37   1.0000      -1.031634       -28.0722 
  38   1.0000      -1.022625       -27.8270 
  39   1.0000      -1.017757       -27.6946 
  40   1.0000      -1.016415       -27.6581 
  41   1.0000      -0.962337       -26.1865 
  42   1.0000      -0.932497       -25.3745 
  43   1.0000      -0.808831       -22.0094 
  44   1.0000      -0.763112       -20.7653 
  45   1.0000      -0.703488       -19.1429 
  46   1.0000      -0.689956       -18.7747 
  47   1.0000      -0.673417       -18.3246 
  48   1.0000      -0.637246       -17.3403 
  49   1.0000      -0.636283       -17.3141 
  50   1.0000      -0.618286       -16.8244 
  51   1.0000      -0.606548       -16.5050 
  52   1.0000      -0.595301       -16.1990 
  53   1.0000      -0.593870       -16.1600 
  54   1.0000      -0.583719       -15.8838 
  55   1.0000      -0.575660       -15.6645 
  56   1.0000      -0.558421       -15.1954 
  57   1.0000      -0.539554       -14.6820 
  58   1.0000      -0.536004       -14.5854 
  59   1.0000      -0.523889       -14.2557 
  60   1.0000      -0.514063       -13.9884 
  61   1.0000      -0.499978       -13.6051 
  62   1.0000      -0.468916       -12.7599 
  63   1.0000      -0.466084       -12.6828 
  64   1.0000      -0.457144       -12.4395 
  65   1.0000      -0.449088       -12.2203 
  66   1.0000      -0.436551       -11.8792 
  67   1.0000      -0.431610       -11.7447 
  68   1.0000      -0.431127       -11.7316 
  69   1.0000      -0.411150       -11.1880 
  70   1.0000      -0.404486       -11.0066 
  71   1.0000      -0.397980       -10.8296 
  72   0.0000       0.005661         0.1540 
  73   0.0000       0.018081         0.4920 
  74   0.0000       0.021158         0.5757 
  75   0.0000       0.029846         0.8121 
  76   0.0000       0.030989         0.8432 
  77   0.0000       0.037326         1.0157 
  78   0.0000       0.040416         1.0998 
  79   0.0000       0.043095         1.1727 
  80   0.0000       0.043982         1.1968 
  81   0.0000       0.047105         1.2818 
  82   0.0000       0.056810         1.5459 
  83   0.0000       0.059828         1.6280 
  84   0.0000       0.060669         1.6509 
  85   0.0000       0.064202         1.7470 
  86   0.0000       0.066205         1.8015 
  87   0.0000       0.070487         1.9180 
  88   0.0000       0.072032         1.9601 
  89   0.0000       0.081374         2.2143 
  90   0.0000       0.085948         2.3388 
  91   0.0000       0.089199         2.4272 
  92   0.0000       0.090235         2.4554 
  93   0.0000       0.092654         2.5212 
  94   0.0000       0.100071         2.7231 
  95   0.0000       0.101659         2.7663 
  96   0.0000       0.109609         2.9826 
  97   0.0000       0.115913         3.1541 
  98   0.0000       0.117734         3.2037 
  99   0.0000       0.120919         3.2904 
 100   0.0000       0.123002         3.3470 
 101   0.0000       0.126394         3.4394 
 102   0.0000       0.127326         3.4647 
 103   0.0000       0.128449         3.4953 
 104   0.0000       0.129953         3.5362 
 105   0.0000       0.131909         3.5894 
 106   0.0000       0.132689         3.6107 
 107   0.0000       0.135595         3.6897 
 108   0.0000       0.136969         3.7271 
 109   0.0000       0.137739         3.7481 
 110   0.0000       0.139404         3.7934 
 111   0.0000       0.145462         3.9582 
 112   0.0000       0.149069         4.0564 
 113   0.0000       0.152464         4.1488 
 114   0.0000       0.152850         4.1593 
 115   0.0000       0.154960         4.2167 
 116   0.0000       0.158003         4.2995 
 117   0.0000       0.159742         4.3468 
 118   0.0000       0.162676         4.4266 
 119   0.0000       0.168343         4.5809 
 120   0.0000       0.171007         4.6533 
 121   0.0000       0.173821         4.7299 
 122   0.0000       0.176482         4.8023 
 123   0.0000       0.183076         4.9818 
 124   0.0000       0.186913         5.0862 
 125   0.0000       0.189896         5.1673 
 126   0.0000       0.195316         5.3148 
 127   0.0000       0.197005         5.3608 
 128   0.0000       0.198442         5.3999 
 129   0.0000       0.202388         5.5073 
 130   0.0000       0.203933         5.5493 
 131   0.0000       0.207828         5.6553 
 132   0.0000       0.210594         5.7306 
 133   0.0000       0.213979         5.8227 
 134   0.0000       0.218705         5.9513 
 135   0.0000       0.223050         6.0695 
 136   0.0000       0.226807         6.1717 
 137   0.0000       0.231403         6.2968 
 138   0.0000       0.232977         6.3396 
 139   0.0000       0.238960         6.5024 
 140   0.0000       0.241034         6.5589 
 141   0.0000       0.246142         6.6979 
 142   0.0000       0.247602         6.7376 
 143   0.0000       0.249267         6.7829 
 144   0.0000       0.253106         6.8874 
 145   0.0000       0.255355         6.9486 
 146   0.0000       0.258507         7.0343 
 147   0.0000       0.261756         7.1227 
 148   0.0000       0.263986         7.1834 
 149   0.0000       0.267104         7.2683 
 150   0.0000       0.272096         7.4041 
 151   0.0000       0.280008         7.6194 
 152   0.0000       0.282974         7.7001 
 153   0.0000       0.286878         7.8064 
 154   0.0000       0.288118         7.8401 
 155   0.0000       0.289299         7.8722 
 156   0.0000       0.295499         8.0409 
 157   0.0000       0.300298         8.1715 
 158   0.0000       0.303588         8.2611 
 159   0.0000       0.309672         8.4266 
 160   0.0000       0.310690         8.4543 
 161   0.0000       0.317162         8.6304 
 162   0.0000       0.317250         8.6328 
 163   0.0000       0.327585         8.9140 
 164   0.0000       0.329303         8.9608 
 165   0.0000       0.334098         9.0913 
 166   0.0000       0.337872         9.1940 
 167   0.0000       0.344848         9.3838 
 168   0.0000       0.346944         9.4408 
 169   0.0000       0.348750         9.4900 
 170   0.0000       0.354627         9.6499 
 171   0.0000       0.357343         9.7238 
 172   0.0000       0.359616         9.7856 
 173   0.0000       0.364084         9.9072 
 174   0.0000       0.367074         9.9886 
 175   0.0000       0.369944        10.0667 
 176   0.0000       0.372085        10.1249 
 177   0.0000       0.376302        10.2397 
 178   0.0000       0.378466        10.2986 
 179   0.0000       0.381649        10.3852 
 180   0.0000       0.384838        10.4720 
 181   0.0000       0.390012        10.6128 
 182   0.0000       0.395432        10.7603 
 183   0.0000       0.398377        10.8404 
 184   0.0000       0.400999        10.9117 
 185   0.0000       0.401911        10.9366 
 186   0.0000       0.406112        11.0509 
 187   0.0000       0.409263        11.1366 
 188   0.0000       0.409983        11.1562 
 189   0.0000       0.413517        11.2524 
 190   0.0000       0.415854        11.3160 
 191   0.0000       0.423451        11.5227 
 192   0.0000       0.427537        11.6339 
 193   0.0000       0.429376        11.6839 
 194   0.0000       0.433364        11.7924 
 195   0.0000       0.433979        11.8092 
 196   0.0000       0.439025        11.9465 
 197   0.0000       0.441621        12.0171 
 198   0.0000       0.446839        12.1591 
 199   0.0000       0.449993        12.2449 
 200   0.0000       0.457075        12.4377 
 201   0.0000       0.460401        12.5281 
 202   0.0000       0.464143        12.6300 
 203   0.0000       0.464514        12.6401 
 204   0.0000       0.469026        12.7629 
 205   0.0000       0.469816        12.7843 
 206   0.0000       0.471495        12.8300 
 207   0.0000       0.477755        13.0004 
 208   0.0000       0.479564        13.0496 
 209   0.0000       0.479891        13.0585 
 210   0.0000       0.486223        13.2308 
 211   0.0000       0.489323        13.3151 
 212   0.0000       0.491115        13.3639 
 213   0.0000       0.493882        13.4392 
 214   0.0000       0.494774        13.4635 
 215   0.0000       0.501077        13.6350 
 216   0.0000       0.504230        13.7208 
 217   0.0000       0.507214        13.8020 
 218   0.0000       0.510535        13.8924 
 219   0.0000       0.514144        13.9906 
 220   0.0000       0.516600        14.0574 
 221   0.0000       0.522738        14.2244 
 222   0.0000       0.526356        14.3229 
 223   0.0000       0.528070        14.3695 
 224   0.0000       0.530933        14.4474 
 225   0.0000       0.534855        14.5541 
 226   0.0000       0.539255        14.6739 
 227   0.0000       0.541427        14.7330 
 228   0.0000       0.544806        14.8249 
 229   0.0000       0.546783        14.8787 
 230   0.0000       0.547696        14.9036 
 231   0.0000       0.555742        15.1225 
 232   0.0000       0.560660        15.2563 
 233   0.0000       0.567437        15.4407 
 234   0.0000       0.570272        15.5179 
 235   0.0000       0.570707        15.5297 
 236   0.0000       0.577992        15.7280 
 237   0.0000       0.579830        15.7780 
 238   0.0000       0.581428        15.8215 
 239   0.0000       0.583300        15.8724 
 240   0.0000       0.589290        16.0354 
 241   0.0000       0.591953        16.1079 
 242   0.0000       0.592087        16.1115 
 243   0.0000       0.598323        16.2812 
 244   0.0000       0.600788        16.3483 
 245   0.0000       0.604980        16.4623 
 246   0.0000       0.607764        16.5381 
 247   0.0000       0.611440        16.6381 
 248   0.0000       0.613095        16.6832 
 249   0.0000       0.622171        16.9301 
 250   0.0000       0.627186        17.0666 
 251   0.0000       0.630345        17.1526 
 252   0.0000       0.633148        17.2288 
 253   0.0000       0.638173        17.3656 
 254   0.0000       0.639022        17.3887 
 255   0.0000       0.641443        17.4545 
 256   0.0000       0.648148        17.6370 
 257   0.0000       0.650300        17.6956 
 258   0.0000       0.657723        17.8976 
 259   0.0000       0.663388        18.0517 
 260   0.0000       0.666102        18.1256 
 261   0.0000       0.669396        18.2152 
 262   0.0000       0.672734        18.3060 
 263   0.0000       0.679049        18.4779 
 264   0.0000       0.682507        18.5720 
 265   0.0000       0.688712        18.7408 
 266   0.0000       0.694941        18.9103 
 267   0.0000       0.696389        18.9497 
 268   0.0000       0.697279        18.9739 
 269   0.0000       0.702511        19.1163 
 270   0.0000       0.706473        19.2241 
 271   0.0000       0.711400        19.3582 
 272   0.0000       0.716765        19.5042 
 273   0.0000       0.723472        19.6867 
 274   0.0000       0.727882        19.8067 
 275   0.0000       0.730452        19.8766 
 276   0.0000       0.734860        19.9965 
 277   0.0000       0.741386        20.1741 
 278   0.0000       0.747940        20.3525 
 279   0.0000       0.751583        20.4516 
 280   0.0000       0.757233        20.6054 
 281   0.0000       0.761509        20.7217 
 282   0.0000       0.765582        20.8325 
 283   0.0000       0.775294        21.0968 
[...]
  | sigma^2 in % of trace(Dij) retained ...   8.58e+00
  | sigma^2 in % of trace(Dip) retained ...   1.66e+01
  | sigma^2 in % of trace(Dpq) retained ...   1.31e-01
  | Av. % of trace(Di) retained         ...  99.998527266425
  | Av. % of trace(Dp) retained         ...  99.999998851437
  | sigma^2 in % of trace(Di) retained  ...   7.59e-07
  | sigma^2 in % of trace(Dp) retained  ...   1.14e-12
 Distributions of % trace(Dij) recovered:
  |       >= 99.9  ...   105 ( 20.3 % of all IJ-pairs)
  |   [80.0, 90.0) ...    35 (  6.8 % of all IJ-pairs)
  |   [90.0, 99.0) ...   284 ( 54.8 % of all IJ-pairs)
  |   [99.0, 99.9) ...    94 ( 18.1 % of all IJ-pairs)
 Distributions of % trace(Dip) recovered:
  |   [80.0, 90.0) ...    12 ( 10.2 % of all IP-pairs)
  |   [90.0, 99.0) ...    63 ( 53.4 % of all IP-pairs)
  |   [99.0, 99.9) ...    43 ( 36.4 % of all IP-pairs)
 Distributions of % trace(Dpq) recovered:
  |       >= 99.9  ...     5 ( 33.3 % of all PQ-pairs)
  |   [99.0, 99.9) ...    10 ( 66.7 % of all PQ-pairs)
 Distributions of % trace(Di) recovered :
  |       >= 99.9  ...    43 (100.0 % of all I-pairs )
 Distributions of % trace(Dp) recovered :
  |       >= 99.9  ...     5 (100.0 % of all P-pairs )

                       ===========================
                       1136 OF 1740 PAIRS ARE KEPT
                       ===========================

 Initial PAO correlation energy (all pairs)    ...  -2.6885032982 Eh
 Energy constituents in PAO basis (Eh):
  | Vijab(+0) ...  -2.2576171695
  | Viab (-1) ...  -0.1760613337
  | Vab  (-2) ...  -0.0573606803
  | Va   (-1) ...  -0.0000427227
  | Vija (+1) ...  -0.0734111425
  | Vij  (+2) ...  -0.0155147640
  | Via  (+0) ...  -0.1083343720
  | Vi   (+1) ...  -0.0001611136
 Initial PNO correlation energy                ...  -2.6547654760 Eh
 Energy constituents in PNO basis (Eh):
  | Vijab(+0) ...  -2.2397122048 (err=  0.0179049647)
  | Viab (-1) ...  -0.1617886492 (err=  0.0142726846)
  | Vab  (-2) ...  -0.0569033758 (err=  0.0004573045)
  | Va   (-1) ...  -0.0000242196 (err=  0.0000185030)
  | Vija (+1) ...  -0.0724997331 (err=  0.0009114093)
  | Vij  (+2) ...  -0.0154709137 (err=  0.0000438503)
  | Via  (+0) ...  -0.1082058235 (err=  0.0001285484)
  | Vi   (+1) ...  -0.0001605563 (err=  0.0000005573)
 Sum of total truncation errors ...   0.0337378222 Eh
  | Pair screening ...   0.0108879067 Eh
  | PNO truncation ...   0.0228499155 Eh

 UMP2 correlation energy (PAO) ...  -2.6835900484
  | alpha-alpha ...  -0.3848064916 (NP_aa=  945)
  | alpha-beta  ...  -1.9934748253 (NP_ab= 1715)
  | beta -beta  ...  -0.3053087314 (NP_bb=  737)
 UMP2 correlation energy (PNO) ...  -2.6495048539
  | alpha-alpha ...  -0.3729120572 (err=  0.0118944344, NP_aa=  603)
  | alpha-beta  ...  -1.9751289591 (err=  0.0183458662, NP_ab= 1111)
  | beta -beta  ...  -0.3014638376 (err=  0.0038448939, NP_bb=  475)
 Sum of total UMP2 truncation errors ...   0.0340851945 Eh
  | Pair screening ...   0.0108863447 Eh
  | PNO truncation ...   0.0231988498 Eh
 Timing for NEV-PNO construction (sec.)
  | Intermediate construction  ..           46.533
  | Amplitude construction     ..           66.583
  | Total time                 ..          113.116
 Making pair pair interaction lists ...      ok
 Total size for 2-ext PNO integrals ...     10.9 MB
Checking the number of SOMO/SOMO doubles PNOs ... 
 #Truncate: (72, 72)[170] -> [84] .. 
 #Truncate: (73, 73)[169] -> [84] .. 
 #Truncate: (74, 74)[171] -> [84] .. 
 #Truncate: (75, 75)[171] -> [84] .. 
 #Truncate: (76, 76)[168] -> [84] .. 

--------------------------------
LOCAL RI TRANSFORMATION (VABPAO)
--------------------------------

Number of PAOs:    1030
Basis functions:   1025 (343 shells)
Aux. functions:    2424 (644 shells)

Processing maps (0.0 sec)
Average map sizes:
   Aux shells -> PAOs           1030.0
   PAOs       -> AO shells       343.0

Calculating integrals (276.9 sec, 37370.165 MB)
Finished
-----------------------------
LOCAL RI TRANSFORMATION (IJV)
-----------------------------

Orbital window:      29 to 76
Basis functions:   1025 (343 shells)
Aux. functions:    2424 (644 shells)

Processing maps (0.0 sec)
Average map sizes:
   Aux shells -> MOs(i)           46.4
   Aux shells -> MOs(j)           48.0
   MOs        -> AO shells       341.3

Calculating integrals (21.9 sec, 41.290 MB)
Sorting integrals (0.3 sec, 41.263 MB)
Total time for the integral transformation: 22.3 sec


-------------------------------------
Pair Pair Term precalculation with     
RI-(ij|mn) and (im|jn) transformation  
ON THE FLY                             
-------------------------------------

   IBatch   1 (of   2)              ... done ( 1134.549 sec)
   IBatch   2 (of   2)              ... done ( 1121.025 sec)
Total EXT                           ...        2255.573 sec

---------------------
RI-PNO TRANSFORMATION
---------------------

Total Number of PNOs                   ... 34824
Total Number of IJ-PNOs                ... 30633
Total Number of IP-PNOs                ...  3239
Total Number of PQ-PNOs                ...   952
Total Number of IJ-pairs               ...   993
Total Number of PI-pairs               ...   118
Total Number of PQ-pairs               ...    25
Average number of PNOs per pair        ...    30
Maximal number of PNOs per pair        ...    84
>> Statistics for ij-pairs..
   #pairs with  1 -  5 PNOs   :    0
   #pairs with  6 - 10 PNOs   :    0
   #pairs with 11 - 15 PNOs   :   74
   #pairs with 16 - 20 PNOs   :  228
   #pairs with 21 - 25 PNOs   :  194
   #pairs with 26 - 30 PNOs   :  124
   #pairs with 31 - 35 PNOs   :   80
   #pairs with 36 - 40 PNOs   :   66
   #pairs with 41 - 45 PNOs   :   46
   #pairs with 46 - 50 PNOs   :   13
   #pairs with 51 - 55 PNOs   :   37
   #pairs with 56 - 60 PNOs   :   56
   #pairs with 61 - 65 PNOs   :   73
   #pairs with 66 - 70 PNOs   :    2
>> Statistics for ip-pairs..
   #pairs with  1 -  5 PNOs   :    0
   #pairs with  6 - 10 PNOs   :    1
   #pairs with 11 - 15 PNOs   :   17
   #pairs with 16 - 20 PNOs   :    1
   #pairs with 21 - 25 PNOs   :   27
   #pairs with 26 - 30 PNOs   :   13
   #pairs with 31 - 35 PNOs   :   45
   #pairs with 36 - 40 PNOs   :   14
   #pairs with 41 - 45 PNOs   :    0
   #pairs with 46 - 50 PNOs   :    0
>> Statistics for pq-pairs..
   #pairs with  1 -  5 PNOs   :    0
   #pairs with  6 - 10 PNOs   :    0
   #pairs with 11 - 15 PNOs   :    0
   #pairs with 16 - 20 PNOs   :    0
   #pairs with 21 - 25 PNOs   :    6
   #pairs with 26 - 30 PNOs   :   14
   #pairs with 31 - 35 PNOs   :    0
   #pairs with 36 - 40 PNOs   :    0
   #pairs with 41 - 45 PNOs   :    0
   #pairs with 46 - 50 PNOs   :    0
   #pairs with 81 - 85 PNOs   :    5

Generation of (ij|ab)[P] integrals            ... on
Generation of (ia|bc)[P],(ja|bc)[P] integrals ... on
Storage of 3 and 4 external integrals         ... on
Generation of ALL (ka|bc)[P] integrals        ... on
Keep RI integrals in memory                   ... off

Ibatch:  1 (of  1)
Starting 2-4 index PNO integral generation ... done

Timings:
Total PNO integral transformation time     ...       2040.314 sec
Size of the 3-external file                ...       279 MB
Size of the 4-external file                ...      1860 MB
Size of the IKJL file                      ...        19 MB
Size of the all 3-external file            ...      6707 MB
Size of the 1-external file                ...        22 MB

Size of the PAO/PNO coefficient matrices   ...     227.6 MB

Making pair/pair overlap matrices          ... done (  308.765 sec)
Size of the pair overlap file              ...    2470.0 MB
Total # unrestricted pairs ...       2189
  # of alpha-alpha pairs   ...        603
  # of alpha-beta pairs    ...       1111
  # of beta-beta pairs     ...        475
Constructing the guess amplitudes          ... done (    0.568 sec)

-------------------------
FINAL STARTUP INFORMATION
-------------------------

E(0)                                       ...  -3028.440491211
E(SL-UMP2 in NEV-PNO space)                ...     -2.684504935
Initial E(tot)                             ...  -3031.124996146
<T|T>                                      ...      0.532679385
Number of unrestricted pairs included      ... 2189
Total number of pairs                      ... 4095
----------------------------------------------------------
                     OPEN-SHELL COUPLED CLUSTER ITERATIONS
----------------------------------------------------------

Number of PNO amplitudes to be optimized        ...          2093489
Number of canonical amplitudes for strong pairs ...       1977130554
Untruncated number of canonical amplitudes      ...       3698645738

Iter       E(tot)           E(Corr)          Delta-E          Residual     Time
  0  -3031.132165984     -2.656674692      0.027830242      0.023930210 1621.60
                           *** Turning on DIIS ***
  1  -3031.247473608     -2.771982316     -0.115307623      0.013187638 1636.38
  2  -3031.312161353     -2.836670061     -0.064687745      0.009005740 1612.88
  3  -3031.333389291     -2.857897999     -0.021227939      0.004464572 1661.14
  4  -3031.340616479     -2.865125187     -0.007227188      0.002834550 1640.15
  5  -3031.344264627     -2.868773335     -0.003648148      0.002178108 1619.01
  6  -3031.345604445     -2.870113154     -0.001339818      0.001096415 1655.20
  7  -3031.346405294     -2.870914002     -0.000800849      0.000534799 1623.39
  8  -3031.346587951     -2.871096659     -0.000182657      0.000235523 1630.65
  9  -3031.346628436     -2.871137144     -0.000040485      0.000130614 1661.71
 10  -3031.346627004     -2.871135712      0.000001432      0.000099162 1610.01
 11  -3031.346639314     -2.871148022     -0.000012310      0.000071612 1652.63
 12  -3031.346645678     -2.871154386     -0.000006364      0.000038097 1637.95
 13  -3031.346649109     -2.871157817     -0.000003431      0.000020452 1627.45
 14  -3031.346649438     -2.871158146     -0.000000329      0.000010918 1607.00
 15  -3031.346648450     -2.871157158      0.000000988      0.000004939 1634.65
               --- The CCSD iterations have converged ---

E(0)                                       ...  -3028.440491211
E(CORR)(strong-pairs)                      ...     -2.871157158
E(CORR)(weak-pairs)                        ...     -0.035000081
E(CORR)(corrected)                         ...     -2.906157239
E(TOT)                                     ...  -3031.346648450
Singles norm <S|S>**1/2                    ...      0.193281928 ( 0.066776207, 0.126505721)  
T1 diagnostic                              ...      0.020261451                              
<S**2>(linearized)                         ...      8.7507551 (ideal value:      8.7500000)

----------------------
LARGEST PNO AMPLITUDES
----------------------
  43b-> 77b  -1b-> -1b       0.059480
  51b-> 75b  -1b-> -1b       0.058980
  43a-> 77a  -1a-> -1a       0.057963
  44a-> 77a  44b-> 77b       0.051222
  52b-> 72b  -1b-> -1b       0.047277
  49b-> 72b  -1b-> -1b       0.046758
  45a-> 80a  45b-> 80b       0.045808
  46a-> 79a  46b-> 79b       0.045351
  49b-> 73b  -1b-> -1b       0.044969
  53a-> 77a  53b-> 77b       0.044454
  66a-> 77a  66b-> 77b       0.043599
  63a-> 77a  63b-> 77b       0.043159
  59a-> 77a  59b-> 77b       0.043047
  67a-> 77a  67b-> 77b       0.042998
  69a-> 77a  69b-> 77b       0.042815
  39b-> 74b  -1b-> -1b       0.042712

Total # unrestricted pairs ...       1208
  # of alpha-alpha pairs   ...        342
  # of alpha-beta pairs    ...        604
  # of beta-beta pairs     ...        262

-------------------------------------------
DLPNO BASED TRIPLES CORRECTION
-------------------------------------------

Singles multiplier          ...  1.000000
Fragment selection                          .... not used
TCutTNO                     ... 1.000e-09
TCutMP2Pairs                ... 1.000e-05
TCutDOStrong                ... 2.000e-02
TCutMKNStrong               ... 1.000e-02
TCutDOWeak                  ... 4.000e-02
TCutMKNWeak                 ... 1.000e-01
NTCutTNO                    ... 1

Number of Triples that are to be computed         ...     36206

 . . . . . . . . .
10% done  
20% done  
30% done  
40% done  
50% done  
60% done  
70% done  
80% done  
90% done  
          Batch   1   done (  16354.523 sec)

Triples-Correction TCutTNO=   1.000e-09 (NWeakPairs = 0  1  2  3)  -0.116245093923   -0.001827089507    0.000000000000    0.000000000000
Triples-Correction  -0.118072183431

Triples timings:
Total time                      ... 17017.607 sec

Triples List generation         ...     0.000 sec
TNO generation                  ...   662.793 sec
Pair density generation         ...     0.083 sec
Look up tables                  ...     0.124 sec
Generating 3-index integrals    ... 10533.753 sec
Make 4-ind.int. from 3-ind.int  ...     3.801 sec
Projecting amplitudes (D + S)   ...  5585.552 sec
Sorting integrals for spin cases...    48.955 sec
Calculate W0/W1                 ...   149.379 sec
Energy contr. (sum over a,b,c)  ...    32.971 sec

Everything after 3-index        ...  5954.968 sec

Energy contribution AAA         ...    22.457 sec
Energy contribution AAB         ...   103.020 sec
Energy contribution ABB         ...    93.708 sec
Energy contribution BBB         ...    12.157 sec
prep                ...     3.098 sec
makeTTNO            ...  5529.877 sec
copyij              ...     0.127 sec
copyil              ...     4.091 sec
transposeij         ...     0.075 sec
newMatInDoubleProj  ...    48.247 sec
BlasInDoubleProj    ...  2985.575 sec
ProjSingles         ...    45.819 sec
ProjDoubles         ...  5539.732 sec
overall Doubles for projection      ... 3354238
used Doubles for projection         ... 3354238


Number of Triples   (0, 1, 2, 3 weak pairs; overall):  17526   12511       0       0  ( 30037)
Number of Atoms     (0, 1, 2, 3 weak pairs; overall):   20.4    14.6     0.0     0.0  (    29)
Number of PAOs      (0, 1, 2, 3 weak pairs; overall):  787.3   592.2     0.0     0.0  (  1025)
Number of AuxFcns   (0, 1, 2, 3 weak pairs; overall): 1011.8   588.5     0.0     0.0  (  2424)
Number of TNOs (0, 1, 2, 3 weak pairs         ):   77.9    55.4     0.0     0.0
Aver. Number of NTNO, Atoms, PAOs, AuxFcns / Triples:  30037    68.5    18.0   706.1   835.5

Triples Correction (T)                     ...     -0.118072183
    alpha-alpha-alpha ... -0.003864848 (  3.3%)
    alpha-alpha-beta  ... -0.055419840 ( 46.9%)
    alpha-beta -beta  ... -0.054693844 ( 46.3%)
    beta -beta -beta  ... -0.004093651 (  3.5%)
Final correlation energy                   ...     -3.024229423
E(CCSD)                                    ...  -3031.346648450
E(CCSD(T))                                 ...  -3031.464720634

----------------------------
STATISTICS FOR PAIR-ENERGIES
----------------------------
Minimum, maximum and average ratios of UMP and CCSD pair-energies ... 0.43, 1.43, 1.02


------------------------------------------------------------------------------- 
                                     TIMINGS                                   
------------------------------------------------------------------------------- 


Total execution time                   ...    54114.144 sec

Localization of occupied MO's          ...       11.789 sec (  0.0%)
Fock Matrix Formation                  ...     1348.801 sec (  2.5%)
Differential overlap integrals         ...        1.360 sec (  0.0%)
Organizing maps                        ...        1.667 sec (  0.0%)
RI 3-index integral generations        ...      361.963 sec (  0.7%)
RI-PNO integral transformation         ...     4886.101 sec (  9.0%)
Initial Guess                          ...     1987.024 sec (  3.7%)
DIIS Solver                            ...       15.875 sec (  0.0%)
State Vector Update                    ...        0.766 sec (  0.0%)
Sigma-vector construction              ...    26131.795 sec ( 48.3%)
  <0|H|D>                              ...        0.031 sec (  0.0% of sigma)
  <D|H|D>(0-ext)                       ...     4846.321 sec ( 18.5% of sigma)
  <D|H|D>(2-ext Fock)                  ...        1.365 sec (  0.0% of sigma)
  <D|H|D>(2-ext)                       ...     4123.346 sec ( 15.8% of sigma)
  <D|H|D>(4-ext)                       ...      128.289 sec (  0.5% of sigma)
  <D|H|D>(4-ext-corr)                  ...      816.279 sec (  3.1% of sigma)
  CCSD doubles correction              ...      462.491 sec (  1.8% of sigma)
  <S|H|S>                              ...      577.279 sec (  2.2% of sigma)
  <S|H|D>(1-ext)                       ...      224.110 sec (  0.9% of sigma)
  <D|H|S>(1-ext)                       ...        0.673 sec (  0.0% of sigma)
  <S|H|D>(3-ext)                       ...       18.821 sec (  0.1% of sigma)
  CCSD singles correction              ...        0.004 sec (  0.0% of sigma)
  Fock-dressing                        ...     7741.470 sec ( 29.6% of sigma)
  Singles amplitudes                   ...       97.609 sec (  0.4% of sigma)
  (ik|jl)-dressing                     ...     5485.413 sec ( 21.0% of sigma)
  (ij|ab),(ia|jb)-dressing             ...     1406.291 sec (  5.4% of sigma)
  Pair energies                        ...        0.142 sec (  0.0% of sigma)
Total Time for computing (T)           ...    19770.754 sec ( 36.5% of ALL)


-------------------------   --------------------
FINAL SINGLE POINT ENERGY     -3031.464720633702
-------------------------   --------------------


                            ***************************************
                            *     ORCA property calculations      *
                            ***************************************

                                    ---------------------
                                    Active property flags
                                    ---------------------
   (+) Dipole Moment


------------------------------------------------------------------------------
                       ORCA ELECTRIC PROPERTIES CALCULATION
------------------------------------------------------------------------------

Dipole Moment Calculation                       ... on
Quadrupole Moment Calculation                   ... off
Polarizability Calculation                      ... off
GBWName                                         ... simple-grid-160-215-b3lyp_d3bj-631gd-gas-singlepoint-DLPNO_CCSD_T1-NormalPNO-augtz-gas.gbw
Electron density file                           ... simple-grid-160-215-b3lyp_d3bj-631gd-gas-singlepoint-DLPNO_CCSD_T1-NormalPNO-augtz-gas.scfp.tmp
The origin for moment calculation is the CENTER OF MASS  = ( 0.304439,  0.020796  0.010948)

-------------
DIPOLE MOMENT
-------------
                                X             Y             Z
Electronic contribution:     40.47267       3.80813       1.34438
Nuclear contribution   :    -45.36142      -3.09865      -1.63125
                        -----------------------------------------
Total Dipole Moment    :     -4.88875       0.70948      -0.28686
                        -----------------------------------------
Magnitude (a.u.)       :      4.94829
Magnitude (Debye)      :     12.57755



--------------------
Rotational spectrum 
--------------------
 
Rotational constants in cm-1:     0.019134     0.011961     0.010614 
Rotational constants in MHz :   573.618291   358.577231   318.185506 

 Dipole components along the rotational axes: 
x,y,z [a.u.] :     4.894264     0.673319    -0.279960 
x,y,z [Debye]:    12.440231     1.711441    -0.711601 

 

Timings for individual modules:

Sum of individual times         ...    70446.058 sec (=1174.101 min)
GTO integral calculation        ...       12.169 sec (=   0.203 min)   0.0 %
SCF iterations                  ...    16303.533 sec (= 271.726 min)  23.1 %
MDCI module                     ...    54130.356 sec (= 902.173 min)  76.8 %
                             ****ORCA TERMINATED NORMALLY****
TOTAL RUN TIME: 0 days 19 hours 34 minutes 9 seconds 179 msec
