
                                 *****************
                                 * O   R   C   A *
                                 *****************

           --- An Ab Initio, DFT and Semiempirical electronic structure package ---

                  #######################################################
                  #                        -***-                        #
                  #          Department of theory and spectroscopy      #
                  #               Directorship: Frank Neese             #
                  #        Max Planck Institute fuer Kohlenforschung    #
                  #                Kaiser Wilhelm Platz 1               #
                  #                 D-45470 Muelheim/Ruhr               #
                  #                      Germany                        #
                  #                                                     #
                  #                  All rights reserved                #
                  #                        -***-                        #
                  #######################################################


                         Program Version 4.1.2  - RELEASE  -


 With contributions from (in alphabetic order):
   Daniel Aravena         : Magnetic Properties
   Michael Atanasov       : Ab Initio Ligand Field Theory
   Alexander A. Auer      : GIAO ZORA
   Ute Becker             : Parallelization
   Giovanni Bistoni       : ED, Open-shell LED
   Martin Brehm           : Molecular dynamics
   Dmytro Bykov           : SCF Hessian
   Vijay G. Chilkuri      : MRCI spin determinant printing
   Dipayan Datta          : RHF DLPNO-CCSD density
   Achintya Kumar Dutta   : EOM-CC, STEOM-CC
   Dmitry Ganyushin       : Spin-Orbit,Spin-Spin,Magnetic field MRCI
   Miquel Garcia          : C-PCM Hessian
   Yang Guo               : DLPNO-NEVPT2, CIM, IAO-localization
   Andreas Hansen         : Spin unrestricted coupled pair/coupled cluster methods
   Benjamin Helmich-Paris : CASSCF linear response (MC-RPA)
   Lee Huntington         : MR-EOM, pCC
   Robert Izsak           : Overlap fitted RIJCOSX, COSX-SCS-MP3, EOM
   Christian Kollmar      : KDIIS, OOCD, Brueckner-CCSD(T), CCSD density
   Simone Kossmann        : Meta GGA functionals, TD-DFT gradient, OOMP2, MP2 Hessian
   Martin Krupicka        : AUTO-CI
   Lucas Lang             : DCDCAS
   Dagmar Lenk            : GEPOL surface, SMD
   Dimitrios Liakos       : Extrapolation schemes; parallel MDCI
   Dimitrios Manganas     : ROCIS; embedding schemes
   Dimitrios Pantazis     : SARC Basis sets
   Taras Petrenko         : DFT Hessian,TD-DFT gradient, ASA, ECA, R-Raman, ABS, FL, XAS/XES, NRVS
   Peter Pinski           : DLPNO-MP2, DLPNO-MP2 Gradient
   Christoph Reimann      : Effective Core Potentials
   Marius Retegan         : Local ZFS, SOC
   Christoph Riplinger    : Optimizer, TS searches, QM/MM, DLPNO-CCSD(T), (RO)-DLPNO pert. Triples
   Tobias Risthaus        : Range-separated hybrids, TD-DFT gradient, RPA, STAB
   Michael Roemelt        : Restricted open shell CIS
   Masaaki Saitow         : Open-shell DLPNO
   Barbara Sandhoefer     : DKH picture change effects
   Avijit Sen             : IP-ROCIS
   Kantharuban Sivalingam : CASSCF convergence, NEVPT2, FIC-MRCI
   Bernardo de Souza      : ESD, SOC TD-DFT
   Georgi Stoychev        : AutoAux, RI-MP2 NMR
   Willem Van den Heuvel  : Paramagnetic NMR
   Boris Wezisla          : Elementary symmetry handling
   Frank Wennmohs         : Technical directorship


 We gratefully acknowledge several colleagues who have allowed us to
 interface, adapt or use parts of their codes:
   Stefan Grimme, W. Hujo, H. Kruse,             : VdW corrections, initial TS optimization,
                  C. Bannwarth                     DFT functionals, gCP, sTDA/sTD-DF
   Ed Valeev                                     : LibInt (2-el integral package), F12 methods
   Garnet Chan, S. Sharma, J. Yang, R. Olivares  : DMRG
   Ulf Ekstrom                                   : XCFun DFT Library
   Mihaly Kallay                                 : mrcc  (arbitrary order and MRCC methods)
   Andreas Klamt, Michael Diedenhofen            : otool_cosmo (COSMO solvation model)
   Jiri Pittner, Ondrej Demel                    : Mk-CCSD
   Frank Weinhold                                : gennbo (NPA and NBO analysis)
   Christopher J. Cramer and Donald G. Truhlar   : smd solvation model
   Lars Goerigk                                  : TD-DFT with DH, B97 family of functionals
   V. Asgeirsson, H. Jonsson                     : NEB implementation
   FAccTs GmbH                                   : IRC, NEB, NEB-TS, Multilevel


 Your calculation uses the libint2 library for the computation of 2-el integrals
 For citations please refer to: http://libint.valeyev.net

 This ORCA versions uses:
   CBLAS   interface :  Fast vector & matrix operations
   LAPACKE interface :  Fast linear algebra routines
   SCALAPACK package :  Parallel linear algebra routines


----- Orbital basis set information -----
Your calculation utilizes the basis: aug-cc-pVTZ 
    H, B-Ne : Obtained from the ccRepo (grant-hill.group.shef.ac.uk/ccrepo) Feb. 2017
              R. A. Kendall, T. H. Dunning, Jr., R. J. Harrison, J. Chem. Phys. 96, 6796 (1992)
         He : Obtained from the ccRepo (grant-hill.group.shef.ac.uk/ccrepo) Feb. 2017
              D. E. Woon, T. H. Dunning, Jr., J. Chem. Phys. 100, 2975 (1994)
  Li-Be, Na : Obtained from the ccRepo (grant-hill.group.shef.ac.uk/ccrepo) Feb. 2017
              B. P. Prascher, D. E. Woon, K. A. Peterson, T. H. Dunning, Jr., A. K. Wilson, Theor. Chem. Acc. 128, 69 (2011)
         Mg : Obtained from the Peterson Research Group Website (tyr0.chem.wsu.edu/~kipeters) Feb. 2017
              B. P. Prascher, D. E. Woon, K. A. Peterson, T. H. Dunning, Jr., A. K. Wilson, Theor. Chem. Acc. 128, 69 (2011)
      Al-Ar : Obtained from the ccRepo (grant-hill.group.shef.ac.uk/ccrepo) Feb. 2017
              D. E. Woon, T. H. Dunning, Jr., J. Chem. Phys. 98, 1358 (1993)
      Sc-Zn : Obtained from the ccRepo (grant-hill.group.shef.ac.uk/ccrepo) Feb. 2017
              N. B. Balabanov, K. A. Peterson, J. Chem. Phys. 123, 064107 (2005)
              N. B. Balabanov, K. A. Peterson, J. Chem. Phys. 125, 074110 (2006)
      Ga-Kr : Obtained from the ccRepo (grant-hill.group.shef.ac.uk/ccrepo) Feb. 2017
              A. K. Wilson, D. E. Woon, K. A. Peterson, T. H. Dunning, Jr., J. Chem. Phys. 110, 7667 (1999)
     Ag, Au : Obtained from the Peterson Research Group Website (tyr0.chem.wsu.edu/~kipeters) Feb. 2017
              K. A. Peterson, C. Puzzarini, Theor. Chem. Acc. 114, 283 (2005)

----- AuxJ basis set information -----
Your calculation utilizes the AutoAux generation procedure.
  G. L. Stoychev, A. A. Auer, F. Neese, J. Chem. Theory Comput. 13, 554 (2017)

----- AuxC basis set information -----
Your calculation utilizes the auxiliary basis: aug-cc-pVTZ/C 
  H-He, B-F, Al-Ar, Ga-Kr : Obtained from the EMSL Basis Set Exchange (bse.pnl.gov) Feb. 2017
                            F. Weigend, A. Kohn, C. Hattig, J. Chem. Phys. 116, 3175 (2002)
                   Be, Mg : Obtained from the TURBOMOLE 7.0 basis set library
                            C. Haettig, Phys. Chem. Chem. Phys. 7, 59 (2005)
                       Ne : Obtained from the EMSL Basis Set Exchange (bse.pnl.gov) Feb. 2017
                            C. Haettig, Phys. Chem. Chem. Phys. 7, 59 (2005)
                            F. Weigend, A. Kohn, C. Hattig, J. Chem. Phys. 116, 3175 (2002)
                    Sc-Zn : Obtained from the EMSL Basis Set Exchange (bse.pnl.gov) Feb. 2017
                            J. G. Hill, J. A. Platts, J. Chem. Phys. 128, 044104 (2008)

----- AuxJK basis set information -----
Your calculation utilizes the AutoAux generation procedure.
  G. L. Stoychev, A. A. Auer, F. Neese, J. Chem. Theory Comput. 13, 554 (2017)

================================================================================
                                        WARNINGS
                       Please study these warnings very carefully!
================================================================================


WARNING: your system is open-shell and RHF/RKS was chosen
  ===> : WILL SWITCH to UHF/UKS


WARNING: MDCI localization with Augmented Hessian Foster-Boys
  ===> : Switching off randomization!

WARNING: Post HF methods need fully converged wavefunctions
  ===> : Setting SCFConvForced true
         You can overwrite this default with %scf ConvForced false 


INFO   : the flag for use of LIBINT has been found!

================================================================================
                                       INPUT FILE
================================================================================
NAME = simple-grid-200-230-b3lyp_d3bj-631gd-gas-singlepoint-DLPNO_CCSD_T1-NormalPNO-augtz-gas.inp
|  1> ! aug-cc-pVTZ aug-cc-pVTZ/C DLPNO-CCSD(T1) TightSCF NormalPNO UNO MiniPrint AutoAux
|  2> %pal nproc 10 end
|  3> %maxcore 20000
|  4> %mdci
|  5>      density none
|  6> end
|  7> 
|  8> * xyz 0 6
|  9>  O     -0.32972900     -0.14343800     -0.58473800
| 10>  C     -1.29294600     -1.05005000     -0.50183400
| 11>  C     -2.98025900     -0.08276500     -0.03564300
| 12>  C     -2.23781200      1.08186200     -0.20015000
| 13>  C     -2.11639100      1.75459600     -1.52115700
| 14> Fe      1.42438900      0.05440100      0.04062200
| 15> Cl      1.94571300      2.04763300     -0.75076100
| 16>  C     -1.58302600      1.77229100      0.94426800
| 17> Cl      2.52752500     -1.67166100     -0.76141900
| 18> Cl      1.33746500      0.02788700      2.25697600
| 19>  H     -3.59333100     -0.36406700     -0.88916100
| 20>  H     -2.33732600      2.43665600      1.39457400
| 21>  H     -1.24424900      1.08794700      1.72312700
| 22>  H     -0.74028600      2.38441200      0.61656600
| 23>  H     -2.58141700      2.74701300     -1.42922400
| 24>  H     -1.06084900      1.91685100     -1.76255500
| 25>  H     -2.61555000      1.21505000     -2.32771600
| 26>  C     -3.55132600     -0.50447500      1.30081800
| 27>  H     -4.44594000      0.09163600      1.52064500
| 28>  H     -3.85804900     -1.55326400      1.28407400
| 29>  H     -2.85227800     -0.36853700      2.12824800
| 30>  C     -1.14829600     -2.05071700      0.62156700
| 31>  H     -1.99816700     -2.73081900      0.69740900
| 32>  H     -0.25505200     -2.64025300      0.37138100
| 33>  H     -0.95348600     -1.56748900      1.57952200
| 34>  C     -1.66840300     -1.64875800     -1.84268500
| 35>  H     -0.79641200     -2.23140100     -2.16733600
| 36>  H     -2.53419400     -2.31253000     -1.77701500
| 37>  H     -1.84091100     -0.87564400     -2.59342300
| 38> *
| 39> 
| 40> 
| 41>                          ****END OF INPUT****
================================================================================

                       ****************************
                       * Single Point Calculation *
                       ****************************

---------------------------------
CARTESIAN COORDINATES (ANGSTROEM)
---------------------------------
  O     -0.329729   -0.143438   -0.584738
  C     -1.292946   -1.050050   -0.501834
  C     -2.980259   -0.082765   -0.035643
  C     -2.237812    1.081862   -0.200150
  C     -2.116391    1.754596   -1.521157
  Fe     1.424389    0.054401    0.040622
  Cl     1.945713    2.047633   -0.750761
  C     -1.583026    1.772291    0.944268
  Cl     2.527525   -1.671661   -0.761419
  Cl     1.337465    0.027887    2.256976
  H     -3.593331   -0.364067   -0.889161
  H     -2.337326    2.436656    1.394574
  H     -1.244249    1.087947    1.723127
  H     -0.740286    2.384412    0.616566
  H     -2.581417    2.747013   -1.429224
  H     -1.060849    1.916851   -1.762555
  H     -2.615550    1.215050   -2.327716
  C     -3.551326   -0.504475    1.300818
  H     -4.445940    0.091636    1.520645
  H     -3.858049   -1.553264    1.284074
  H     -2.852278   -0.368537    2.128248
  C     -1.148296   -2.050717    0.621567
  H     -1.998167   -2.730819    0.697409
  H     -0.255052   -2.640253    0.371381
  H     -0.953486   -1.567489    1.579522
  C     -1.668403   -1.648758   -1.842685
  H     -0.796412   -2.231401   -2.167336
  H     -2.534194   -2.312530   -1.777015
  H     -1.840911   -0.875644   -2.593423

----------------------------
CARTESIAN COORDINATES (A.U.)
----------------------------
  NO LB      ZA    FRAG     MASS         X           Y           Z
   0 O     8.0000    0    15.999   -0.623098   -0.271059   -1.104995
   1 C     6.0000    0    12.011   -2.443314   -1.984307   -0.948329
   2 C     6.0000    0    12.011   -5.631873   -0.156403   -0.067356
   3 C     6.0000    0    12.011   -4.228852    2.044423   -0.378229
   4 C     6.0000    0    12.011   -3.999399    3.315706   -2.874570
   5 Fe   26.0000    0    55.850    2.691705    0.102803    0.076764
   6 Cl   17.0000    0    35.453    3.676865    3.869466   -1.418733
   7 C     6.0000    0    12.011   -2.991486    3.349145    1.784408
   8 Cl   17.0000    0    35.453    4.776330   -3.158981   -1.438873
   9 Cl   17.0000    0    35.453    2.527443    0.052699    4.265067
  10 H     1.0000    0     1.008   -6.790411   -0.687987   -1.680271
  11 H     1.0000    0     1.008   -4.416906    4.604613    2.635363
  12 H     1.0000    0     1.008   -2.351290    2.055922    3.256238
  13 H     1.0000    0     1.008   -1.398938    4.505886    1.165141
  14 H     1.0000    0     1.008   -4.878171    5.191102   -2.700842
  15 H     1.0000    0     1.008   -2.004714    3.622323   -3.330746
  16 H     1.0000    0     1.008   -4.942673    2.296112   -4.398746
  17 C     6.0000    0    12.011   -6.711034   -0.953320    2.458190
  18 H     1.0000    0     1.008   -8.401609    0.173167    2.873603
  19 H     1.0000    0     1.008   -7.290656   -2.935244    2.426548
  20 H     1.0000    0     1.008   -5.390024   -0.696434    4.021806
  21 C     6.0000    0    12.011   -2.169965   -3.875294    1.174591
  22 H     1.0000    0     1.008   -3.775988   -5.160500    1.317912
  23 H     1.0000    0     1.008   -0.481978   -4.989355    0.701808
  24 H     1.0000    0     1.008   -1.801827   -2.962125    2.984864
  25 C     6.0000    0    12.011   -3.152825   -3.115701   -3.482170
  26 H     1.0000    0     1.008   -1.505001   -4.216737   -4.095671
  27 H     1.0000    0     1.008   -4.788933   -4.370048   -3.358072
  28 H     1.0000    0     1.008   -3.478818   -1.654727   -4.900859



           ************************************************************
           *        Program running with 10 parallel MPI-processes    *
           *              working on a common directory               *
           ************************************************************


           ************************************************************
           *        Program running with 10 parallel MPI-processes    *
           *              working on a common directory               *
           ************************************************************

Diagonalization of the overlap matrix:
Smallest eigenvalue                        ... 6.300e-07
Time for diagonalization                   ...    0.659 sec
Threshold for overlap eigenvalues          ... 1.000e-08
Number of eigenvalues below threshold      ... 0
Time for construction of square roots      ...    0.305 sec
Total time needed                          ...    0.969 sec

-------------------
DFT GRID GENERATION
-------------------

General Integration Accuracy     IntAcc      ...  4.340
Radial Grid Type                 RadialGrid  ... Gauss-Chebyshev
Angular Grid (max. acc.)         AngularGrid ... Lebedev-110
Angular grid pruning method      GridPruning ... 3 (G Style)
Weight generation scheme         WeightScheme... Becke
Basis function cutoff            BFCut       ...    1.0000e-11
Integration weight cutoff        WCut        ...    1.0000e-14
Grids for H and He will be reduced by one unit

# of grid points (after initial pruning)     ...  36112 (   0.0 sec)
# of grid points (after weights+screening)   ...  32302 (   0.1 sec)
nearest neighbour list constructed           ...    0.0 sec
Grid point re-assignment to atoms done       ...    0.0 sec
Grid point division into batches done        ...    0.0 sec
Reduced shell lists constructed in    0.3 sec

Total number of grid points                  ...    32302
Total number of batches                      ...      523
Average number of points per batch           ...       61
Average number of grid points per atom       ...     1114
Average number of shells per batch           ...   293.46 (85.56%)
Average number of basis functions per batch  ...   873.20 (85.19%)
Average number of large shells per batch     ...   243.39 (82.94%)
Average number of large basis fcns per batch ...   722.57 (82.75%)
Maximum spatial batch extension              ...   2.89,  3.40,  4.65 au
Average spatial batch extension              ...   0.17,  0.18,  0.18 au

Time for grid setup =    0.393 sec

Loading Hartree-Fock densities                     ... done
Calculating cut-offs                               ... done
Setting up the integral package                    ... done
Initializing the effective Hamiltonian             ... done
Starting the Coulomb interaction                   ... done (   1.1 sec)
Reading the grid                                   ... done
Mapping shells                                     ... done
Starting the XC term evaluation                    ... done (   0.8 sec)
Transforming the Hamiltonian                       ... done (   0.2 sec)
Diagonalizing the Hamiltonian                      ... done (   0.3 sec)
Back transforming the eigenvectors                 ... done (   0.1 sec)
Now organizing SCF variables                       ... done
--------------
SCF ITERATIONS
--------------
ITER       Energy         Delta-E        Max-DP      RMS-DP      [F,P]     Damp
               ***  Starting incremental Fock matrix formation  ***
  0  -3027.5655632025   0.000000000000 0.27832046  0.00121522  0.2808294 0.7000
  1  -3027.8143851345  -0.248821932000 0.19819733  0.00093238  0.1679547 0.7000
                               ***Turning on DIIS***
  2  -3027.9817162224  -0.167331087833 0.13760735  0.00067968  0.1092772 0.7000
  3  -3029.6699263673  -1.688210144964 0.29656862  0.00168164  0.0821196 0.0000
  4  -3028.2885262355   1.381400131843 0.04697293  0.00023437  0.0191101 0.0000
  5  -3028.4098143191  -0.121288083638 0.03989787  0.00017393  0.0118329 0.0000
  6  -3028.4375647327  -0.027750413531 0.02050943  0.00006882  0.0054595 0.0000
  7  -3028.4509463565  -0.013381623883 0.00907682  0.00003163  0.0033451 0.0000
  8  -3028.4478778635   0.003068493092 0.00603664  0.00001837  0.0013764 0.0000
  9  -3028.4382814379   0.009596425607 0.00233552  0.00001054  0.0007225 0.0000
 10  -3028.4275691252   0.010712312649 0.00100926  0.00000345  0.0004266 0.0000
 11  -3028.4337958169  -0.006226691696 0.00041609  0.00000196  0.0000811 0.0000
 12  -3028.4310966664   0.002699150522 0.00088925  0.00000195  0.0000334 0.0000
 13  -3028.4311313945  -0.000034728147 0.00115644  0.00000260  0.0000113 0.0000
 14  -3028.4311826374  -0.000051242833 0.00129318  0.00000284  0.0000069 0.0000
 15  -3028.4311213351   0.000061302260 0.00106093  0.00000253  0.0000032 0.0000
 16  -3028.4311453846  -0.000024049499 0.00148061  0.00000297  0.0000022 0.0000
 17  -3028.4311605491  -0.000015164513 0.00143342  0.00000287  0.0000013 0.0000
 18  -3028.4311419652   0.000018583947 0.00204649  0.00000430  0.0000011 0.0000
                            ***DIIS convergence achieved***

               *****************************************************
               *                     SUCCESS                       *
               *           SCF CONVERGED AFTER  19 CYCLES          *
               *****************************************************

Total Energy       :        -3028.43115364 Eh          -82407.80122 eV
  Last Energy change         ...   -1.1674e-05  Tolerance :   1.0000e-08
  Last MAX-Density change    ...    2.0268e-03  Tolerance :   1.0000e-07
             **** THE GBW FILE WAS UPDATED (simple-grid-200-230-b3lyp_d3bj-631gd-gas-singlepoint-DLPNO_CCSD_T1-NormalPNO-augtz-gas.gbw) ****
             **** DENSITY FILE WAS UPDATED (simple-grid-200-230-b3lyp_d3bj-631gd-gas-singlepoint-DLPNO_CCSD_T1-NormalPNO-augtz-gas.scfp.tmp) ****
             **** ENERGY FILE WAS UPDATED (simple-grid-200-230-b3lyp_d3bj-631gd-gas-singlepoint-DLPNO_CCSD_T1-NormalPNO-augtz-gas.en.tmp) ****
----------------------
UHF SPIN CONTAMINATION
----------------------

Expectation value of <S**2>     :     8.764446
Ideal value S*(S+1) for S=2.5   :     8.750000
Deviation                       :     0.014446

----------------
ORBITAL ENERGIES
----------------
                 SPIN UP ORBITALS
  NO   OCC          E(Eh)            E(eV) 
   0   1.0000    -261.552741     -7117.2119 
   1   1.0000    -104.777696     -2851.1461 
   2   1.0000    -104.776743     -2851.1201 
   3   1.0000    -104.775196     -2851.0780 
   4   1.0000     -32.220629      -876.7679 
   5   1.0000     -27.696608      -753.6630 
   6   1.0000     -27.696301      -753.6547 
   7   1.0000     -27.696064      -753.6482 
   8   1.0000     -20.556515      -559.3712 
   9   1.0000     -11.391347      -309.9743 
  10   1.0000     -11.358644      -309.0844 
  11   1.0000     -11.276875      -306.8594 
  12   1.0000     -11.268541      -306.6326 
  13   1.0000     -11.262610      -306.4712 
  14   1.0000     -11.260573      -306.4158 
  15   1.0000     -11.257126      -306.3220 
  16   1.0000     -11.251687      -306.1740 
  17   1.0000     -10.504303      -285.8366 
  18   1.0000     -10.503261      -285.8083 
  19   1.0000     -10.501746      -285.7670 
  20   1.0000      -7.971189      -216.9071 
  21   1.0000      -7.970348      -216.8842 
  22   1.0000      -7.970303      -216.8830 
  23   1.0000      -7.970080      -216.8769 
  24   1.0000      -7.969359      -216.8573 
  25   1.0000      -7.969269      -216.8548 
  26   1.0000      -7.968583      -216.8362 
  27   1.0000      -7.967853      -216.8163 
  28   1.0000      -7.967763      -216.8139 
  29   1.0000      -4.576065      -124.5211 
  30   1.0000      -3.188793       -86.7715 
  31   1.0000      -3.188080       -86.7521 
  32   1.0000      -3.187576       -86.7383 
  33   1.0000      -1.401968       -38.1495 
  34   1.0000      -1.173654       -31.9368 
  35   1.0000      -1.086569       -29.5671 
  36   1.0000      -1.049346       -28.5542 
  37   1.0000      -1.043930       -28.4068 
  38   1.0000      -1.041927       -28.3523 
  39   1.0000      -1.040930       -28.3252 
  40   1.0000      -0.999904       -27.2088 
  41   1.0000      -0.984994       -26.8031 
  42   1.0000      -0.932765       -25.3818 
  43   1.0000      -0.917455       -24.9652 
  44   1.0000      -0.905671       -24.6446 
  45   1.0000      -0.905573       -24.6419 
  46   1.0000      -0.896557       -24.3966 
  47   1.0000      -0.896365       -24.3913 
  48   1.0000      -0.786871       -21.4119 
  49   1.0000      -0.762871       -20.7588 
  50   1.0000      -0.696032       -18.9400 
  51   1.0000      -0.694043       -18.8859 
  52   1.0000      -0.677441       -18.4341 
  53   1.0000      -0.656736       -17.8707 
  54   1.0000      -0.645674       -17.5697 
  55   1.0000      -0.624166       -16.9844 
  56   1.0000      -0.601177       -16.3589 
  57   1.0000      -0.593526       -16.1507 
  58   1.0000      -0.588461       -16.0128 
  59   1.0000      -0.581982       -15.8365 
  60   1.0000      -0.574137       -15.6231 
  61   1.0000      -0.564848       -15.3703 
  62   1.0000      -0.556019       -15.1301 
  63   1.0000      -0.550003       -14.9663 
  64   1.0000      -0.539262       -14.6741 
  65   1.0000      -0.528547       -14.3825 
  66   1.0000      -0.512312       -13.9407 
  67   1.0000      -0.479266       -13.0415 
  68   1.0000      -0.464260       -12.6332 
  69   1.0000      -0.453457       -12.3392 
  70   1.0000      -0.430937       -11.7264 
  71   1.0000      -0.427104       -11.6221 
  72   1.0000      -0.424987       -11.5645 
  73   1.0000      -0.417345       -11.3565 
  74   1.0000      -0.415647       -11.3103 
  75   1.0000      -0.414363       -11.2754 
  76   1.0000      -0.385896       -10.5008 
  77   0.0000       0.009232         0.2512 
  78   0.0000       0.020037         0.5452 
  79   0.0000       0.021953         0.5974 
  80   0.0000       0.030125         0.8198 
  81   0.0000       0.036054         0.9811 
  82   0.0000       0.038132         1.0376 
  83   0.0000       0.041120         1.1189 
  84   0.0000       0.043803         1.1919 
  85   0.0000       0.045327         1.2334 
  86   0.0000       0.047756         1.2995 
  87   0.0000       0.056369         1.5339 
  88   0.0000       0.059645         1.6230 
  89   0.0000       0.061914         1.6848 
  90   0.0000       0.064647         1.7591 
  91   0.0000       0.068043         1.8516 
  92   0.0000       0.071603         1.9484 
  93   0.0000       0.073929         2.0117 
  94   0.0000       0.079315         2.1583 
  95   0.0000       0.089555         2.4369 
  96   0.0000       0.089818         2.4441 
  97   0.0000       0.091711         2.4956 
  98   0.0000       0.095026         2.5858 
  99   0.0000       0.100291         2.7291 
 100   0.0000       0.102559         2.7908 
 101   0.0000       0.109993         2.9931 
 102   0.0000       0.114785         3.1235 
 103   0.0000       0.119337         3.2473 
 104   0.0000       0.123712         3.3664 
 105   0.0000       0.124761         3.3949 
 106   0.0000       0.127981         3.4825 
 107   0.0000       0.129053         3.5117 
 108   0.0000       0.131280         3.5723 
 109   0.0000       0.133379         3.6294 
 110   0.0000       0.136646         3.7183 
 111   0.0000       0.139011         3.7827 
 112   0.0000       0.144425         3.9300 
 113   0.0000       0.149373         4.0647 
 114   0.0000       0.150900         4.1062 
 115   0.0000       0.154042         4.1917 
 116   0.0000       0.156583         4.2608 
 117   0.0000       0.158722         4.3191 
 118   0.0000       0.164295         4.4707 
 119   0.0000       0.167666         4.5624 
 120   0.0000       0.169539         4.6134 
 121   0.0000       0.173375         4.7178 
 122   0.0000       0.174644         4.7523 
 123   0.0000       0.177603         4.8328 
 124   0.0000       0.182324         4.9613 
 125   0.0000       0.187859         5.1119 
 126   0.0000       0.190995         5.1972 
 127   0.0000       0.192349         5.2341 
 128   0.0000       0.197589         5.3767 
 129   0.0000       0.200078         5.4444 
 130   0.0000       0.203173         5.5286 
 131   0.0000       0.203412         5.5351 
 132   0.0000       0.208363         5.6698 
 133   0.0000       0.210530         5.7288 
 134   0.0000       0.214233         5.8296 
 135   0.0000       0.216191         5.8829 
 136   0.0000       0.216559         5.8929 
 137   0.0000       0.222868         6.0646 
 138   0.0000       0.229426         6.2430 
 139   0.0000       0.231681         6.3044 
 140   0.0000       0.234695         6.3864 
 141   0.0000       0.237920         6.4741 
 142   0.0000       0.238462         6.4889 
 143   0.0000       0.242982         6.6119 
 144   0.0000       0.246508         6.7078 
 145   0.0000       0.252874         6.8810 
 146   0.0000       0.253122         6.8878 
 147   0.0000       0.254728         6.9315 
 148   0.0000       0.259081         7.0500 
 149   0.0000       0.264210         7.1895 
 150   0.0000       0.264927         7.2090 
 151   0.0000       0.272729         7.4213 
 152   0.0000       0.277226         7.5437 
 153   0.0000       0.283020         7.7014 
 154   0.0000       0.283974         7.7273 
 155   0.0000       0.288836         7.8596 
 156   0.0000       0.289260         7.8712 
 157   0.0000       0.298611         8.1256 
 158   0.0000       0.303777         8.2662 
 159   0.0000       0.304754         8.2928 
 160   0.0000       0.307512         8.3678 
 161   0.0000       0.307855         8.3772 
 162   0.0000       0.318103         8.6560 
 163   0.0000       0.319510         8.6943 
 164   0.0000       0.324263         8.8236 
 165   0.0000       0.331565         9.0223 
 166   0.0000       0.332952         9.0601 
 167   0.0000       0.335309         9.1242 
 168   0.0000       0.340563         9.2672 
 169   0.0000       0.344186         9.3658 
 170   0.0000       0.351036         9.5522 
 171   0.0000       0.354188         9.6379 
 172   0.0000       0.358510         9.7555 
 173   0.0000       0.361967         9.8496 
 174   0.0000       0.363538         9.8924 
 175   0.0000       0.364275         9.9124 
 176   0.0000       0.368766        10.0346 
 177   0.0000       0.371369        10.1055 
 178   0.0000       0.373670        10.1681 
 179   0.0000       0.376181        10.2364 
 180   0.0000       0.384022        10.4498 
 181   0.0000       0.384724        10.4689 
 182   0.0000       0.388974        10.5845 
 183   0.0000       0.389912        10.6101 
 184   0.0000       0.391675        10.6580 
 185   0.0000       0.394554        10.7364 
 186   0.0000       0.396312        10.7842 
 187   0.0000       0.400098        10.8872 
 188   0.0000       0.404870        11.0171 
 189   0.0000       0.410278        11.1642 
 190   0.0000       0.413291        11.2462 
 191   0.0000       0.414478        11.2785 
 192   0.0000       0.417879        11.3711 
 193   0.0000       0.423958        11.5365 
 194   0.0000       0.429481        11.6868 
 195   0.0000       0.433752        11.8030 
 196   0.0000       0.436825        11.8866 
 197   0.0000       0.443692        12.0735 
 198   0.0000       0.447406        12.1745 
 199   0.0000       0.450188        12.2502 
 200   0.0000       0.451167        12.2769 
 201   0.0000       0.455252        12.3880 
 202   0.0000       0.459342        12.4993 
 203   0.0000       0.461727        12.5642 
 204   0.0000       0.464199        12.6315 
 205   0.0000       0.469235        12.7685 
 206   0.0000       0.470432        12.8011 
 207   0.0000       0.475194        12.9307 
 208   0.0000       0.476232        12.9589 
 209   0.0000       0.479923        13.0594 
 210   0.0000       0.482308        13.1243 
 211   0.0000       0.486755        13.2453 
 212   0.0000       0.489367        13.3164 
 213   0.0000       0.497362        13.5339 
 214   0.0000       0.498297        13.5593 
 215   0.0000       0.503038        13.6884 
 216   0.0000       0.503561        13.7026 
 217   0.0000       0.505532        13.7562 
 218   0.0000       0.510435        13.8896 
 219   0.0000       0.511474        13.9179 
 220   0.0000       0.514614        14.0033 
 221   0.0000       0.516396        14.0519 
 222   0.0000       0.519833        14.1454 
 223   0.0000       0.524285        14.2665 
 224   0.0000       0.529228        14.4010 
 225   0.0000       0.533982        14.5304 
 226   0.0000       0.537996        14.6396 
 227   0.0000       0.540465        14.7068 
 228   0.0000       0.543446        14.7879 
 229   0.0000       0.545928        14.8554 
 230   0.0000       0.549888        14.9632 
 231   0.0000       0.553434        15.0597 
 232   0.0000       0.560518        15.2525 
 233   0.0000       0.564116        15.3504 
 234   0.0000       0.566942        15.4273 
 235   0.0000       0.571187        15.5428 
 236   0.0000       0.574415        15.6306 
 237   0.0000       0.576989        15.7007 
 238   0.0000       0.579868        15.7790 
 239   0.0000       0.583344        15.8736 
 240   0.0000       0.588664        16.0184 
 241   0.0000       0.594415        16.1749 
 242   0.0000       0.598918        16.2974 
 243   0.0000       0.600012        16.3272 
 244   0.0000       0.602768        16.4021 
 245   0.0000       0.610032        16.5998 
 246   0.0000       0.610190        16.6041 
 247   0.0000       0.617568        16.8049 
 248   0.0000       0.619783        16.8651 
 249   0.0000       0.625033        17.0080 
 250   0.0000       0.627330        17.0705 
 251   0.0000       0.632823        17.2200 
 252   0.0000       0.633330        17.2338 
 253   0.0000       0.639371        17.3982 
 254   0.0000       0.642342        17.4790 
 255   0.0000       0.644984        17.5509 
 256   0.0000       0.646802        17.6004 
 257   0.0000       0.651960        17.7407 
 258   0.0000       0.655367        17.8334 
 259   0.0000       0.661537        18.0013 
 260   0.0000       0.662803        18.0358 
 261   0.0000       0.670124        18.2350 
 262   0.0000       0.671256        18.2658 
 263   0.0000       0.672668        18.3042 
 264   0.0000       0.680033        18.5046 
 265   0.0000       0.682618        18.5750 
 266   0.0000       0.692278        18.8379 
 267   0.0000       0.694599        18.9010 
 268   0.0000       0.697302        18.9746 
 269   0.0000       0.702717        19.1219 
 270   0.0000       0.708414        19.2769 
 271   0.0000       0.713019        19.4022 
 272   0.0000       0.719032        19.5659 
 273   0.0000       0.722554        19.6617 
 274   0.0000       0.724667        19.7192 
 275   0.0000       0.729757        19.8577 
 276   0.0000       0.732087        19.9211 
 277   0.0000       0.743079        20.2202 
 278   0.0000       0.745009        20.2727 
 279   0.0000       0.750267        20.4158 
 280   0.0000       0.758128        20.6297 
 281   0.0000       0.759167        20.6580 
 282   0.0000       0.762687        20.7538 
 283   0.0000       0.775517        21.1029 
 284   0.0000       0.782119        21.2825 
 285   0.0000       0.783139        21.3103 
 286   0.0000       0.786854        21.4114 
 287   0.0000       0.792207        21.5570 
 288   0.0000       0.801426        21.8079 
 289   0.0000       0.806369        21.9424 
 290   0.0000       0.811893        22.0927 
 291   0.0000       0.815397        22.1881 
 292   0.0000       0.822537        22.3824 
 293   0.0000       0.825744        22.4696 
 294   0.0000       0.827877        22.5277 
 295   0.0000       0.833970        22.6935 
 296   0.0000       0.841590        22.9008 
 297   0.0000       0.847534        23.0626 
 298   0.0000       0.852413        23.1953 
 299   0.0000       0.857720        23.3397 
 300   0.0000       0.863167        23.4880 
 301   0.0000       0.872902        23.7529 
 302   0.0000       0.878384        23.9020 
 303   0.0000       0.880387        23.9566 
 304   0.0000       0.886130        24.1128 
 305   0.0000       0.889232        24.1972 
 306   0.0000       0.890516        24.2322 
 307   0.0000       0.895000        24.3542 
 308   0.0000       0.902376        24.5549 
 309   0.0000       0.903103        24.5747 
 310   0.0000       0.907497        24.6943 
 311   0.0000       0.911151        24.7937 
 312   0.0000       0.918404        24.9910 
 313   0.0000       0.924103        25.1461 
 314   0.0000       0.927518        25.2391 
 315   0.0000       0.928680        25.2707 
 316   0.0000       0.933682        25.4068 
 317   0.0000       0.937420        25.5085 
 318   0.0000       0.940780        25.5999 
 319   0.0000       0.945283        25.7225 
 320   0.0000       0.952725        25.9250 
 321   0.0000       0.953592        25.9486 
 322   0.0000       0.956136        26.0178 
 323   0.0000       0.963184        26.2096 
 324   0.0000       0.964122        26.2351 
 325   0.0000       0.967366        26.3234 
 326   0.0000       0.971930        26.4476 
 327   0.0000       0.973642        26.4942 
 328   0.0000       0.978635        26.6300 
 329   0.0000       0.981762        26.7151 
 330   0.0000       0.984639        26.7934 
 331   0.0000       0.985425        26.8148 
 332   0.0000       0.990153        26.9434 
 333   0.0000       0.993192        27.0261 
 334   0.0000       0.998859        27.1803 
 335   0.0000       1.000260        27.2184 
 336   0.0000       1.005602        27.3638 
 337   0.0000       1.011900        27.5352 
 338   0.0000       1.015680        27.6381 
 339   0.0000       1.019279        27.7360 
 340   0.0000       1.021182        27.7878 
 341   0.0000       1.022970        27.8364 
 342   0.0000       1.031521        28.0691 
 343   0.0000       1.032391        28.0928 
 344   0.0000       1.035669        28.1820 
 345   0.0000       1.037608        28.2347 
 346   0.0000       1.040510        28.3137 
 347   0.0000       1.047021        28.4909 
 348   0.0000       1.051626        28.6162 
 349   0.0000       1.054155        28.6850 
 350   0.0000       1.057020        28.7630 
 351   0.0000       1.061307        28.8796 
 352   0.0000       1.063559        28.9409 
 353   0.0000       1.065237        28.9866 
 354   0.0000       1.069822        29.1113 
 355   0.0000       1.073389        29.2084 
 356   0.0000       1.076683        29.2980 
 357   0.0000       1.084649        29.5148 
 358   0.0000       1.088099        29.6087 
 359   0.0000       1.095153        29.8006 
 360   0.0000       1.099305        29.9136 
 361   0.0000       1.102887        30.0111 
 362   0.0000       1.107464        30.1356 
 363   0.0000       1.109169        30.1820 
 364   0.0000       1.112828        30.2816 
 365   0.0000       1.118675        30.4407 
 366   0.0000       1.123899        30.5828 
 367   0.0000       1.127565        30.6826 
 368   0.0000       1.133693        30.8494 
 369   0.0000       1.138077        30.9687 
 370   0.0000       1.140194        31.0263 
 371   0.0000       1.145427        31.1686 
 372   0.0000       1.151432        31.3321 
 373   0.0000       1.152282        31.3552 
 374   0.0000       1.154555        31.4170 
 375   0.0000       1.162977        31.6462 
 376   0.0000       1.166074        31.7305 
 377   0.0000       1.170958        31.8634 
 378   0.0000       1.176453        32.0129 
 379   0.0000       1.183548        32.2060 
 380   0.0000       1.184602        32.2347 
 381   0.0000       1.190803        32.4034 
 382   0.0000       1.196060        32.5465 
 383   0.0000       1.201585        32.6968 
 384   0.0000       1.204636        32.7798 
 385   0.0000       1.211564        32.9683 
 386   0.0000       1.213533        33.0219 
 387   0.0000       1.214851        33.0578 
 388   0.0000       1.221028        33.2259 
 389   0.0000       1.223746        33.2998 
 390   0.0000       1.234062        33.5805 
 391   0.0000       1.237582        33.6763 
 392   0.0000       1.242719        33.8161 
 393   0.0000       1.245253        33.8851 
 394   0.0000       1.248187        33.9649 
 395   0.0000       1.255938        34.1758 
 396   0.0000       1.259759        34.2798 
 397   0.0000       1.263730        34.3878 
 398   0.0000       1.270693        34.5773 
 399   0.0000       1.275112        34.6976 
 400   0.0000       1.277828        34.7715 
 401   0.0000       1.284982        34.9661 
 402   0.0000       1.296789        35.2874 
 403   0.0000       1.299019        35.3481 
 404   0.0000       1.307651        35.5830 
 405   0.0000       1.309616        35.6365 
 406   0.0000       1.311147        35.6781 
 407   0.0000       1.317386        35.8479 
 408   0.0000       1.325601        36.0714 
 409   0.0000       1.330992        36.2181 
 410   0.0000       1.334832        36.3226 
 411   0.0000       1.336187        36.3595 
 412   0.0000       1.340270        36.4706 
 413   0.0000       1.347412        36.6649 
 414   0.0000       1.355019        36.8719 
 415   0.0000       1.358042        36.9542 
 416   0.0000       1.366110        37.1738 
 417   0.0000       1.368456        37.2376 
 418   0.0000       1.373341        37.3705 
 419   0.0000       1.385875        37.7116 
 420   0.0000       1.389327        37.8055 
 421   0.0000       1.394811        37.9547 
 422   0.0000       1.401348        38.1326 
 423   0.0000       1.404869        38.2284 
 424   0.0000       1.407954        38.3124 
 425   0.0000       1.419630        38.6301 
 426   0.0000       1.422639        38.7120 
 427   0.0000       1.428063        38.8596 
 428   0.0000       1.428861        38.8813 
 429   0.0000       1.433999        39.0211 
 430   0.0000       1.439235        39.1636 
 431   0.0000       1.446293        39.3556 
 432   0.0000       1.451483        39.4969 
 433   0.0000       1.452108        39.5139 
 434   0.0000       1.457587        39.6630 
 435   0.0000       1.463659        39.8282 
 436   0.0000       1.467875        39.9429 
 437   0.0000       1.480161        40.2772 
 438   0.0000       1.486688        40.4548 
 439   0.0000       1.492992        40.6264 
 440   0.0000       1.493957        40.6526 
 441   0.0000       1.501502        40.8580 
 442   0.0000       1.504233        40.9323 
 443   0.0000       1.507127        41.0110 
 444   0.0000       1.515253        41.2321 
 445   0.0000       1.521002        41.3886 
 446   0.0000       1.523670        41.4612 
 447   0.0000       1.531068        41.6625 
 448   0.0000       1.539730        41.8982 
 449   0.0000       1.542944        41.9856 
 450   0.0000       1.546799        42.0905 
 451   0.0000       1.547569        42.1115 
 452   0.0000       1.553035        42.2602 
 453   0.0000       1.559853        42.4458 
 454   0.0000       1.568803        42.6893 
 455   0.0000       1.573861        42.8269 
 456   0.0000       1.574656        42.8486 
 457   0.0000       1.580882        43.0180 
 458   0.0000       1.582235        43.0548 
 459   0.0000       1.586277        43.1648 
 460   0.0000       1.593146        43.3517 
 461   0.0000       1.594800        43.3967 
 462   0.0000       1.603066        43.6216 
 463   0.0000       1.608246        43.7626 
 464   0.0000       1.614782        43.9405 
 465   0.0000       1.621579        44.1254 
 466   0.0000       1.624988        44.2182 
 467   0.0000       1.629185        44.3324 
 468   0.0000       1.638134        44.5759 
 469   0.0000       1.646657        44.8078 
 470   0.0000       1.652992        44.9802 
 471   0.0000       1.659367        45.1537 
 472   0.0000       1.663771        45.2735 
 473   0.0000       1.666197        45.3395 
 474   0.0000       1.672189        45.5026 
 475   0.0000       1.681563        45.7577 
 476   0.0000       1.689090        45.9625 
 477   0.0000       1.691684        46.0331 
 478   0.0000       1.700037        46.2604 
 479   0.0000       1.703574        46.3566 
 480   0.0000       1.706334        46.4317 
 481   0.0000       1.706989        46.4495 
 482   0.0000       1.714982        46.6670 
 483   0.0000       1.716748        46.7151 
 484   0.0000       1.722158        46.8623 
 485   0.0000       1.730435        47.0875 
 486   0.0000       1.732951        47.1560 
 487   0.0000       1.735786        47.2331 
 488   0.0000       1.744262        47.4638 
 489   0.0000       1.750979        47.6466 
 490   0.0000       1.754462        47.7413 
 491   0.0000       1.756283        47.7909 
 492   0.0000       1.765110        48.0311 
 493   0.0000       1.771247        48.1981 
 494   0.0000       1.779475        48.4220 
 495   0.0000       1.781935        48.4889 
 496   0.0000       1.785059        48.5739 
 497   0.0000       1.790089        48.7108 
 498   0.0000       1.794490        48.8306 
 499   0.0000       1.796578        48.8874 
 500   0.0000       1.800870        49.0042 
 501   0.0000       1.805162        49.1209 
 502   0.0000       1.814268        49.3687 
 503   0.0000       1.822333        49.5882 
 504   0.0000       1.824477        49.6465 
 505   0.0000       1.827271        49.7226 
 506   0.0000       1.834478        49.9187 
 507   0.0000       1.845147        50.2090 
 508   0.0000       1.846405        50.2432 
 509   0.0000       1.852285        50.4032 
 510   0.0000       1.859642        50.6034 
 511   0.0000       1.862162        50.6720 
 512   0.0000       1.867047        50.8049 
 513   0.0000       1.875690        51.0401 
 514   0.0000       1.876320        51.0573 
 515   0.0000       1.880671        51.1757 
 516   0.0000       1.884019        51.2668 
 517   0.0000       1.892481        51.4970 
 518   0.0000       1.895055        51.5671 
 519   0.0000       1.901333        51.7379 
 520   0.0000       1.908403        51.9303 
 521   0.0000       1.915374        52.1200 
 522   0.0000       1.929569        52.5062 
 523   0.0000       1.930012        52.5183 
 524   0.0000       1.933518        52.6137 
 525   0.0000       1.938681        52.7542 
 526   0.0000       1.945737        52.9462 
 527   0.0000       1.946467        52.9661 
 528   0.0000       1.955421        53.2097 
 529   0.0000       1.959586        53.3230 
 530   0.0000       1.968621        53.5689 
 531   0.0000       1.974442        53.7273 
 532   0.0000       1.976973        53.7962 
 533   0.0000       1.984659        54.0053 
 534   0.0000       1.996295        54.3219 
 535   0.0000       2.000392        54.4334 
 536   0.0000       2.005592        54.5749 
 537   0.0000       2.014489        54.8170 
 538   0.0000       2.018810        54.9346 
 539   0.0000       2.026438        55.1422 
 540   0.0000       2.031060        55.2680 
 541   0.0000       2.033619        55.3376 
 542   0.0000       2.038672        55.4751 
 543   0.0000       2.041425        55.5500 
 544   0.0000       2.052213        55.8436 
 545   0.0000       2.064602        56.1807 
 546   0.0000       2.067997        56.2731 
 547   0.0000       2.079140        56.5763 
 548   0.0000       2.081441        56.6389 
 549   0.0000       2.088003        56.8174 
 550   0.0000       2.096875        57.0589 
 551   0.0000       2.101606        57.1876 
 552   0.0000       2.105562        57.2952 
 553   0.0000       2.111489        57.4565 
 554   0.0000       2.114114        57.5280 
 555   0.0000       2.127312        57.8871 
 556   0.0000       2.136467        58.1362 
 557   0.0000       2.137893        58.1750 
 558   0.0000       2.142965        58.3130 
 559   0.0000       2.154573        58.6289 
 560   0.0000       2.165404        58.9236 
 561   0.0000       2.170470        59.0615 
 562   0.0000       2.180763        59.3416 
 563   0.0000       2.183822        59.4248 
 564   0.0000       2.187336        59.5204 
 565   0.0000       2.204623        59.9908 
 566   0.0000       2.208290        60.0906 
 567   0.0000       2.214661        60.2640 
 568   0.0000       2.222300        60.4719 
 569   0.0000       2.227093        60.6023 
 570   0.0000       2.233372        60.7731 
 571   0.0000       2.243072        61.0371 
 572   0.0000       2.253126        61.3107 
 573   0.0000       2.261737        61.5450 
 574   0.0000       2.268136        61.7191 
 575   0.0000       2.271825        61.8195 
 576   0.0000       2.284027        62.1515 
 577   0.0000       2.286702        62.2243 
 578   0.0000       2.290673        62.3324 
 579   0.0000       2.293695        62.4146 
 580   0.0000       2.301405        62.6244 
 581   0.0000       2.316255        63.0285 
 582   0.0000       2.323088        63.2144 
 583   0.0000       2.326414        63.3050 
 584   0.0000       2.334229        63.5176 
 585   0.0000       2.335930        63.5639 
 586   0.0000       2.340381        63.6850 
 587   0.0000       2.350946        63.9725 
 588   0.0000       2.365629        64.3720 
 589   0.0000       2.374558        64.6150 
 590   0.0000       2.377243        64.6881 
 591   0.0000       2.390028        65.0360 
 592   0.0000       2.399903        65.3047 
 593   0.0000       2.403663        65.4070 
 594   0.0000       2.410309        65.5878 
 595   0.0000       2.421687        65.8975 
 596   0.0000       2.423315        65.9417 
 597   0.0000       2.430278        66.1312 
 598   0.0000       2.442691        66.4690 
 599   0.0000       2.446205        66.5646 
 600   0.0000       2.452651        66.7400 
 601   0.0000       2.463266        67.0289 
 602   0.0000       2.474422        67.3324 
 603   0.0000       2.476204        67.3809 
 604   0.0000       2.482217        67.5446 
 605   0.0000       2.492628        67.8279 
 606   0.0000       2.501227        68.0619 
 607   0.0000       2.507469        68.2317 
 608   0.0000       2.521356        68.6096 
 609   0.0000       2.540228        69.1231 
 610   0.0000       2.557101        69.5823 
 611   0.0000       2.560002        69.6612 
 612   0.0000       2.574377        70.0524 
 613   0.0000       2.587669        70.4140 
 614   0.0000       2.591511        70.5186 
 615   0.0000       2.624661        71.4206 
 616   0.0000       2.626026        71.4578 
 617   0.0000       2.631545        71.6080 
 618   0.0000       2.653446        72.2039 
 619   0.0000       2.662572        72.4523 
 620   0.0000       2.665164        72.5228 
 621   0.0000       2.678471        72.8849 
 622   0.0000       2.685062        73.0642 
 623   0.0000       2.696737        73.3819 
 624   0.0000       2.704799        73.6013 
 625   0.0000       2.710085        73.7452 
 626   0.0000       2.720082        74.0172 
 627   0.0000       2.724014        74.1242 
 628   0.0000       2.731514        74.3283 
 629   0.0000       2.737376        74.4878 
 630   0.0000       2.751051        74.8599 
 631   0.0000       2.760168        75.1080 
 632   0.0000       2.775220        75.5176 
 633   0.0000       2.779178        75.6253 
 634   0.0000       2.783379        75.7396 
 635   0.0000       2.796743        76.1032 
 636   0.0000       2.802001        76.2463 
 637   0.0000       2.829701        77.0001 
 638   0.0000       2.837820        77.2210 
 639   0.0000       2.854455        77.6737 
 640   0.0000       2.867703        78.0342 
 641   0.0000       2.870027        78.0974 
 642   0.0000       2.895046        78.7782 
 643   0.0000       2.908928        79.1560 
 644   0.0000       2.918879        79.4267 
 645   0.0000       2.919749        79.4504 
 646   0.0000       2.941819        80.0510 
 647   0.0000       2.952966        80.3543 
 648   0.0000       2.954634        80.3997 
 649   0.0000       2.969419        80.8020 
 650   0.0000       2.986342        81.2625 
 651   0.0000       3.002707        81.7078 
 652   0.0000       3.020318        82.1870 
 653   0.0000       3.042312        82.7855 
 654   0.0000       3.051311        83.0304 
 655   0.0000       3.059419        83.2510 
 656   0.0000       3.072480        83.6064 
 657   0.0000       3.082861        83.8889 
 658   0.0000       3.101922        84.4076 
 659   0.0000       3.126463        85.0754 
 660   0.0000       3.137176        85.3669 
 661   0.0000       3.152294        85.7783 
 662   0.0000       3.166702        86.1703 
 663   0.0000       3.173294        86.3497 
 664   0.0000       3.189061        86.7788 
 665   0.0000       3.197188        86.9999 
 666   0.0000       3.211697        87.3947 
 667   0.0000       3.215374        87.4948 
 668   0.0000       3.227754        87.8316 
 669   0.0000       3.236346        88.0655 
 670   0.0000       3.244911        88.2985 
 671   0.0000       3.254787        88.5673 
 672   0.0000       3.258382        88.6651 
 673   0.0000       3.270884        89.0053 
 674   0.0000       3.283691        89.3538 
 675   0.0000       3.301138        89.8285 
 676   0.0000       3.309167        90.0470 
 677   0.0000       3.320341        90.3511 
 678   0.0000       3.321908        90.3937 
 679   0.0000       3.328833        90.5822 
 680   0.0000       3.339858        90.8822 
 681   0.0000       3.343278        90.9752 
 682   0.0000       3.353388        91.2503 
 683   0.0000       3.355003        91.2943 
 684   0.0000       3.367981        91.6474 
 685   0.0000       3.382015        92.0293 
 686   0.0000       3.396121        92.4131 
 687   0.0000       3.408126        92.7398 
 688   0.0000       3.419836        93.0585 
 689   0.0000       3.427484        93.2666 
 690   0.0000       3.436102        93.5011 
 691   0.0000       3.443352        93.6984 
 692   0.0000       3.444368        93.7260 
 693   0.0000       3.459306        94.1325 
 694   0.0000       3.477341        94.6233 
 695   0.0000       3.486120        94.8622 
 696   0.0000       3.488946        94.9391 
 697   0.0000       3.497934        95.1836 
 698   0.0000       3.507465        95.4430 
 699   0.0000       3.515142        95.6519 
 700   0.0000       3.520025        95.7848 
 701   0.0000       3.530835        96.0789 
 702   0.0000       3.535277        96.1998 
 703   0.0000       3.540929        96.3536 
 704   0.0000       3.559596        96.8615 
 705   0.0000       3.574854        97.2767 
 706   0.0000       3.582324        97.4800 
 707   0.0000       3.584870        97.5493 
 708   0.0000       3.595328        97.8338 
 709   0.0000       3.603536        98.0572 
 710   0.0000       3.607204        98.1570 
 711   0.0000       3.623603        98.6032 
 712   0.0000       3.625999        98.6684 
 713   0.0000       3.630016        98.7777 
 714   0.0000       3.636862        98.9640 
 715   0.0000       3.650691        99.3404 
 716   0.0000       3.660516        99.6077 
 717   0.0000       3.666100        99.7597 
 718   0.0000       3.672582        99.9360 
 719   0.0000       3.683835       100.2422 
 720   0.0000       3.686890       100.3254 
 721   0.0000       3.687486       100.3416 
 722   0.0000       3.700690       100.7009 
 723   0.0000       3.712356       101.0183 
 724   0.0000       3.722736       101.3008 
 725   0.0000       3.726207       101.3952 
 726   0.0000       3.735196       101.6398 
 727   0.0000       3.746424       101.9454 
 728   0.0000       3.749302       102.0237 
 729   0.0000       3.753553       102.1394 
 730   0.0000       3.757596       102.2494 
 731   0.0000       3.771683       102.6327 
 732   0.0000       3.779303       102.8401 
 733   0.0000       3.787096       103.0521 
 734   0.0000       3.795222       103.2732 
 735   0.0000       3.803619       103.5017 
 736   0.0000       3.806193       103.5718 
 737   0.0000       3.810903       103.6999 
 738   0.0000       3.829118       104.1956 
 739   0.0000       3.831927       104.2720 
 740   0.0000       3.837105       104.4129 
 741   0.0000       3.846837       104.6778 
 742   0.0000       3.852901       104.8428 
 743   0.0000       3.860333       105.0450 
 744   0.0000       3.866188       105.2043 
 745   0.0000       3.876151       105.4754 
 746   0.0000       3.884606       105.7055 
 747   0.0000       3.892102       105.9095 
 748   0.0000       3.897532       106.0572 
 749   0.0000       3.900286       106.1322 
 750   0.0000       3.912958       106.4770 
 751   0.0000       3.916082       106.5620 
 752   0.0000       3.926211       106.8376 
 753   0.0000       3.932596       107.0114 
 754   0.0000       3.934676       107.0680 
 755   0.0000       3.938983       107.1852 
 756   0.0000       3.943108       107.2974 
 757   0.0000       3.950493       107.4984 
 758   0.0000       3.955500       107.6346 
 759   0.0000       3.959704       107.7490 
 760   0.0000       3.970673       108.0475 
 761   0.0000       3.973621       108.1277 
 762   0.0000       3.990518       108.5875 
 763   0.0000       4.002924       108.9251 
 764   0.0000       4.003444       108.9393 
 765   0.0000       4.006673       109.0271 
 766   0.0000       4.021360       109.4268 
 767   0.0000       4.034328       109.7796 
 768   0.0000       4.044499       110.0564 
 769   0.0000       4.046854       110.1205 
 770   0.0000       4.054102       110.3177 
 771   0.0000       4.059509       110.4649 
 772   0.0000       4.070329       110.7593 
 773   0.0000       4.079935       111.0207 
 774   0.0000       4.080976       111.0490 
 775   0.0000       4.088070       111.2420 
 776   0.0000       4.098438       111.5242 
 777   0.0000       4.105263       111.7099 
 778   0.0000       4.118248       112.0632 
 779   0.0000       4.124229       112.2260 
 780   0.0000       4.131588       112.4262 
 781   0.0000       4.135622       112.5360 
 782   0.0000       4.146144       112.8223 
 783   0.0000       4.152535       112.9962 
 784   0.0000       4.159351       113.1817 
 785   0.0000       4.171604       113.5151 
 786   0.0000       4.177943       113.6876 
 787   0.0000       4.194983       114.1513 
 788   0.0000       4.197547       114.2211 
 789   0.0000       4.206079       114.4532 
 790   0.0000       4.210055       114.5614 
 791   0.0000       4.216575       114.7388 
 792   0.0000       4.221159       114.8636 
 793   0.0000       4.238224       115.3279 
 794   0.0000       4.243655       115.4757 
 795   0.0000       4.250349       115.6579 
 796   0.0000       4.258738       115.8861 
 797   0.0000       4.266836       116.1065 
 798   0.0000       4.275140       116.3325 
 799   0.0000       4.294454       116.8580 
 800   0.0000       4.304137       117.1215 
 801   0.0000       4.308888       117.2508 
 802   0.0000       4.315228       117.4233 
 803   0.0000       4.323508       117.6486 
 804   0.0000       4.330333       117.8344 
 805   0.0000       4.337180       118.0207 
 806   0.0000       4.348700       118.3341 
 807   0.0000       4.367178       118.8369 
 808   0.0000       4.368504       118.8730 
 809   0.0000       4.376988       119.1039 
 810   0.0000       4.383446       119.2796 
 811   0.0000       4.396472       119.6341 
 812   0.0000       4.398411       119.6868 
 813   0.0000       4.413578       120.0996 
 814   0.0000       4.428352       120.5016 
 815   0.0000       4.436447       120.7219 
 816   0.0000       4.440876       120.8424 
 817   0.0000       4.447910       121.0338 
 818   0.0000       4.459330       121.3445 
 819   0.0000       4.470741       121.6550 
 820   0.0000       4.477731       121.8453 
 821   0.0000       4.481849       121.9573 
 822   0.0000       4.497560       122.3848 
 823   0.0000       4.504650       122.5778 
 824   0.0000       4.508690       122.6877 
 825   0.0000       4.516399       122.8975 
 826   0.0000       4.525965       123.1578 
 827   0.0000       4.536311       123.4393 
 828   0.0000       4.555572       123.9634 
 829   0.0000       4.562002       124.1384 
 830   0.0000       4.581777       124.6765 
 831   0.0000       4.592766       124.9755 
 832   0.0000       4.602067       125.2286 
 833   0.0000       4.608189       125.3952 
 834   0.0000       4.616315       125.6163 
 835   0.0000       4.622408       125.7821 
 836   0.0000       4.635125       126.1282 
 837   0.0000       4.638380       126.2167 
 838   0.0000       4.663042       126.8878 
 839   0.0000       4.681180       127.3814 
 840   0.0000       4.686110       127.5155 
 841   0.0000       4.700440       127.9055 
 842   0.0000       4.705758       128.0502 
 843   0.0000       4.713801       128.2691 
 844   0.0000       4.727739       128.6483 
 845   0.0000       4.744189       129.0960 
 846   0.0000       4.748286       129.2074 
 847   0.0000       4.760124       129.5296 
 848   0.0000       4.775264       129.9415 
 849   0.0000       4.786109       130.2367 
 850   0.0000       4.794868       130.4750 
 851   0.0000       4.801437       130.6538 
 852   0.0000       4.813332       130.9774 
 853   0.0000       4.820789       131.1803 
 854   0.0000       4.831080       131.4604 
 855   0.0000       4.854203       132.0896 
 856   0.0000       4.865786       132.4048 
 857   0.0000       4.888995       133.0363 
 858   0.0000       4.891813       133.1130 
 859   0.0000       4.900375       133.3460 
 860   0.0000       4.904835       133.4673 
 861   0.0000       4.918683       133.8442 
 862   0.0000       4.934709       134.2803 
 863   0.0000       4.947065       134.6165 
 864   0.0000       4.953733       134.7979 
 865   0.0000       4.963424       135.0616 
 866   0.0000       4.974513       135.3634 
 867   0.0000       4.996632       135.9653 
 868   0.0000       4.998425       136.0141 
 869   0.0000       5.011308       136.3646 
 870   0.0000       5.022820       136.6779 
 871   0.0000       5.029372       136.8562 
 872   0.0000       5.037553       137.0788 
 873   0.0000       5.049792       137.4118 
 874   0.0000       5.056958       137.6068 
 875   0.0000       5.068899       137.9318 
 876   0.0000       5.084051       138.3440 
 877   0.0000       5.098122       138.7269 
 878   0.0000       5.117825       139.2631 
 879   0.0000       5.135901       139.7550 
 880   0.0000       5.139368       139.8493 
 881   0.0000       5.152747       140.2134 
 882   0.0000       5.163815       140.5146 
 883   0.0000       5.175992       140.8459 
 884   0.0000       5.180716       140.9745 
 885   0.0000       5.204570       141.6236 
 886   0.0000       5.217656       141.9796 
 887   0.0000       5.226173       142.2114 
 888   0.0000       5.239353       142.5700 
 889   0.0000       5.248648       142.8230 
 890   0.0000       5.259429       143.1163 
 891   0.0000       5.262564       143.2016 
 892   0.0000       5.281319       143.7120 
 893   0.0000       5.294651       144.0748 
 894   0.0000       5.317207       144.6886 
 895   0.0000       5.326514       144.9418 
 896   0.0000       5.347734       145.5192 
 897   0.0000       5.364287       145.9697 
 898   0.0000       5.371205       146.1579 
 899   0.0000       5.379747       146.3903 
 900   0.0000       5.392016       146.7242 
 901   0.0000       5.392361       146.7336 
 902   0.0000       5.400218       146.9474 
 903   0.0000       5.412562       147.2833 
 904   0.0000       5.432372       147.8224 
 905   0.0000       5.438249       147.9823 
 906   0.0000       5.448182       148.2526 
 907   0.0000       5.461103       148.6042 
 908   0.0000       5.476195       149.0148 
 909   0.0000       5.481641       149.1630 
 910   0.0000       5.487862       149.3323 
 911   0.0000       5.519125       150.1830 
 912   0.0000       5.538133       150.7003 
 913   0.0000       5.552933       151.1030 
 914   0.0000       5.560354       151.3049 
 915   0.0000       5.565785       151.4527 
 916   0.0000       5.582161       151.8983 
 917   0.0000       5.590223       152.1177 
 918   0.0000       5.596904       152.2995 
 919   0.0000       5.615559       152.8071 
 920   0.0000       5.627897       153.1429 
 921   0.0000       5.637418       153.4019 
 922   0.0000       5.643352       153.5634 
 923   0.0000       5.654106       153.8561 
 924   0.0000       5.659633       154.0064 
 925   0.0000       5.672555       154.3581 
 926   0.0000       5.680395       154.5714 
 927   0.0000       5.690151       154.8369 
 928   0.0000       5.703107       155.1894 
 929   0.0000       5.714143       155.4897 
 930   0.0000       5.725543       155.7999 
 931   0.0000       5.740957       156.2194 
 932   0.0000       5.748799       156.4328 
 933   0.0000       5.755613       156.6182 
 934   0.0000       5.775252       157.1526 
 935   0.0000       5.784500       157.4043 
 936   0.0000       5.798443       157.7837 
 937   0.0000       5.814875       158.2308 
 938   0.0000       5.822938       158.4502 
 939   0.0000       5.846161       159.0821 
 940   0.0000       5.855799       159.3444 
 941   0.0000       5.889005       160.2480 
 942   0.0000       5.916486       160.9958 
 943   0.0000       5.928963       161.3353 
 944   0.0000       5.946285       161.8066 
 945   0.0000       5.978089       162.6721 
 946   0.0000       6.045839       164.5156 
 947   0.0000       6.077895       165.3879 
 948   0.0000       6.128407       166.7624 
 949   0.0000       6.137069       166.9981 
 950   0.0000       6.157706       167.5597 
 951   0.0000       6.176657       168.0754 
 952   0.0000       6.186871       168.3533 
 953   0.0000       6.202285       168.7727 
 954   0.0000       6.228259       169.4795 
 955   0.0000       6.240578       169.8148 
 956   0.0000       6.254888       170.2041 
 957   0.0000       6.260281       170.3509 
 958   0.0000       6.263286       170.4327 
 959   0.0000       6.284254       171.0032 
 960   0.0000       6.317551       171.9093 
 961   0.0000       6.336903       172.4359 
 962   0.0000       6.359938       173.0627 
 963   0.0000       6.367025       173.2556 
 964   0.0000       6.399093       174.1282 
 965   0.0000       6.402705       174.2265 
 966   0.0000       6.438090       175.1893 
 967   0.0000       6.449956       175.5122 
 968   0.0000       6.516928       177.3346 
 969   0.0000       6.531263       177.7247 
 970   0.0000       6.586391       179.2248 
 971   0.0000       6.718751       182.8265 
 972   0.0000       6.829993       185.8536 
 973   0.0000       6.867292       186.8685 
 974   0.0000       6.884253       187.3301 
 975   0.0000       6.908622       187.9932 
 976   0.0000       6.939117       188.8230 
 977   0.0000       6.946630       189.0274 
 978   0.0000       6.973173       189.7497 
 979   0.0000       6.986733       190.1187 
 980   0.0000       7.024610       191.1493 
 981   0.0000       7.025755       191.1805 
 982   0.0000       7.087211       192.8528 
 983   0.0000       7.101213       193.2338 
 984   0.0000       7.174743       195.2347 
 985   0.0000       7.209605       196.1833 
 986   0.0000       7.374705       200.6759 
 987   0.0000       7.421486       201.9489 
 988   0.0000       7.508882       204.3271 
 989   0.0000       7.534700       205.0296 
 990   0.0000       7.566144       205.8852 
 991   0.0000       7.613771       207.1812 
 992   0.0000       7.711913       209.8518 
 993   0.0000       7.765827       211.3189 
 994   0.0000       7.855081       213.7476 
 995   0.0000       7.915858       215.4015 
 996   0.0000       8.063870       219.4290 
 997   0.0000       8.154252       221.8885 
 998   0.0000       8.346121       227.1095 
 999   0.0000       9.435199       256.7448 
 1000   0.0000       9.454432       257.2682 
 1001   0.0000       9.468400       257.6482 
 1002   0.0000       9.479608       257.9533 
 1003   0.0000       9.486525       258.1415 
 1004   0.0000       9.521947       259.1053 
 1005   0.0000       9.765699       265.7382 
 1006   0.0000      10.098436       274.7924 
 1007   0.0000      10.130296       275.6594 
 1008   0.0000      10.146613       276.1034 
 1009   0.0000      10.221017       278.1280 
 1010   0.0000      10.224575       278.2248 
 1011   0.0000      10.262663       279.2613 
 1012   0.0000      10.398096       282.9466 
 1013   0.0000      10.435718       283.9703 
 1014   0.0000      10.562478       287.4196 
 1015   0.0000      17.276501       470.1175 
 1016   0.0000      18.137983       493.5596 
 1017   0.0000      18.510729       503.7025 
 1018   0.0000      18.638449       507.1780 
 1019   0.0000      18.886075       513.9162 
 1020   0.0000      19.073064       519.0044 
 1021   0.0000      19.518973       531.1383 
 1022   0.0000      20.290124       552.1223 
 1023   0.0000      20.847138       567.2795 
 1024   0.0000      22.031408       599.5051 

                 SPIN DOWN ORBITALS
  NO   OCC          E(Eh)            E(eV) 
   0   1.0000    -261.549195     -7117.1154 
   1   1.0000    -104.776316     -2851.1085 
   2   1.0000    -104.775386     -2851.0832 
   3   1.0000    -104.773753     -2851.0388 
   4   1.0000     -32.058576      -872.3582 
   5   1.0000     -27.536616      -749.3094 
   6   1.0000     -27.536479      -749.3057 
   7   1.0000     -27.536048      -749.2939 
   8   1.0000     -20.551240      -559.2277 
   9   1.0000     -11.391292      -309.9728 
  10   1.0000     -11.358602      -309.0833 
  11   1.0000     -11.276581      -306.8514 
  12   1.0000     -11.268537      -306.6325 
  13   1.0000     -11.262636      -306.4719 
  14   1.0000     -11.260604      -306.4166 
  15   1.0000     -11.257024      -306.3192 
  16   1.0000     -11.251650      -306.1730 
  17   1.0000     -10.502821      -285.7963 
  18   1.0000     -10.501808      -285.7687 
  19   1.0000     -10.500202      -285.7250 
  20   1.0000      -7.968701      -216.8394 
  21   1.0000      -7.968159      -216.8246 
  22   1.0000      -7.968085      -216.8226 
  23   1.0000      -7.967775      -216.8142 
  24   1.0000      -7.967113      -216.7962 
  25   1.0000      -7.967017      -216.7936 
  26   1.0000      -7.966138      -216.7696 
  27   1.0000      -7.965455      -216.7510 
  28   1.0000      -7.965371      -216.7488 
  29   1.0000      -4.133786      -112.4860 
  30   1.0000      -2.655536       -72.2608 
  31   1.0000      -2.655463       -72.2588 
  32   1.0000      -2.654896       -72.2434 
  33   1.0000      -1.388472       -37.7822 
  34   1.0000      -1.172518       -31.9058 
  35   1.0000      -1.083850       -29.4931 
  36   1.0000      -1.040054       -28.3013 
  37   1.0000      -1.034901       -28.1611 
  38   1.0000      -1.023582       -27.8531 
  39   1.0000      -1.021640       -27.8002 
  40   1.0000      -0.999497       -27.1977 
  41   1.0000      -0.984476       -26.7890 
  42   1.0000      -0.929693       -25.2982 
  43   1.0000      -0.799988       -21.7688 
  44   1.0000      -0.763824       -20.7847 
  45   1.0000      -0.695879       -18.9358 
  46   1.0000      -0.693884       -18.8815 
  47   1.0000      -0.679497       -18.4901 
  48   1.0000      -0.656165       -17.8552 
  49   1.0000      -0.645251       -17.5582 
  50   1.0000      -0.624163       -16.9843 
  51   1.0000      -0.600251       -16.3337 
  52   1.0000      -0.593314       -16.1449 
  53   1.0000      -0.588399       -16.0111 
  54   1.0000      -0.581649       -15.8275 
  55   1.0000      -0.573949       -15.6179 
  56   1.0000      -0.564850       -15.3703 
  57   1.0000      -0.555368       -15.1123 
  58   1.0000      -0.549486       -14.9523 
  59   1.0000      -0.533963       -14.5299 
  60   1.0000      -0.528044       -14.3688 
  61   1.0000      -0.505315       -13.7503 
  62   1.0000      -0.476390       -12.9632 
  63   1.0000      -0.467960       -12.7338 
  64   1.0000      -0.463909       -12.6236 
  65   1.0000      -0.439000       -11.9458 
  66   1.0000      -0.435799       -11.8587 
  67   1.0000      -0.434445       -11.8219 
  68   1.0000      -0.423069       -11.5123 
  69   1.0000      -0.414160       -11.2699 
  70   1.0000      -0.401398       -10.9226 
  71   1.0000      -0.382737       -10.4148 
  72   0.0000       0.009233         0.2512 
  73   0.0000       0.019995         0.5441 
  74   0.0000       0.021933         0.5968 
  75   0.0000       0.030154         0.8205 
  76   0.0000       0.035738         0.9725 
  77   0.0000       0.038110         1.0370 
  78   0.0000       0.041065         1.1174 
  79   0.0000       0.043681         1.1886 
  80   0.0000       0.045294         1.2325 
  81   0.0000       0.047393         1.2896 
  82   0.0000       0.056342         1.5331 
  83   0.0000       0.059652         1.6232 
  84   0.0000       0.061819         1.6822 
  85   0.0000       0.064532         1.7560 
  86   0.0000       0.068042         1.8515 
  87   0.0000       0.071508         1.9458 
  88   0.0000       0.073882         2.0104 
  89   0.0000       0.079113         2.1528 
  90   0.0000       0.089261         2.4289 
  91   0.0000       0.089692         2.4406 
  92   0.0000       0.091530         2.4907 
  93   0.0000       0.094966         2.5842 
  94   0.0000       0.100058         2.7227 
  95   0.0000       0.102559         2.7908 
  96   0.0000       0.109399         2.9769 
  97   0.0000       0.114623         3.1190 
  98   0.0000       0.118734         3.2309 
  99   0.0000       0.121319         3.3013 
 100   0.0000       0.122584         3.3357 
 101   0.0000       0.123593         3.3631 
 102   0.0000       0.124316         3.3828 
 103   0.0000       0.126322         3.4374 
 104   0.0000       0.128258         3.4901 
 105   0.0000       0.128958         3.5091 
 106   0.0000       0.132392         3.6026 
 107   0.0000       0.132791         3.6134 
 108   0.0000       0.135865         3.6971 
 109   0.0000       0.136354         3.7104 
 110   0.0000       0.138977         3.7817 
 111   0.0000       0.140962         3.8358 
 112   0.0000       0.147526         4.0144 
 113   0.0000       0.149712         4.0739 
 114   0.0000       0.152280         4.1437 
 115   0.0000       0.155070         4.2197 
 116   0.0000       0.157012         4.2725 
 117   0.0000       0.160291         4.3617 
 118   0.0000       0.165129         4.4934 
 119   0.0000       0.168408         4.5826 
 120   0.0000       0.170159         4.6303 
 121   0.0000       0.173777         4.7287 
 122   0.0000       0.177093         4.8189 
 123   0.0000       0.178605         4.8601 
 124   0.0000       0.184679         5.0254 
 125   0.0000       0.188565         5.1311 
 126   0.0000       0.192223         5.2306 
 127   0.0000       0.194207         5.2846 
 128   0.0000       0.199718         5.4346 
 129   0.0000       0.202559         5.5119 
 130   0.0000       0.205391         5.5890 
 131   0.0000       0.207508         5.6466 
 132   0.0000       0.209989         5.7141 
 133   0.0000       0.211907         5.7663 
 134   0.0000       0.216228         5.8839 
 135   0.0000       0.218742         5.9523 
 136   0.0000       0.225031         6.1234 
 137   0.0000       0.227157         6.1813 
 138   0.0000       0.234043         6.3686 
 139   0.0000       0.235204         6.4002 
 140   0.0000       0.236585         6.4378 
 141   0.0000       0.241080         6.5601 
 142   0.0000       0.243771         6.6334 
 143   0.0000       0.245645         6.6843 
 144   0.0000       0.248784         6.7698 
 145   0.0000       0.254355         6.9214 
 146   0.0000       0.256329         6.9751 
 147   0.0000       0.260715         7.0944 
 148   0.0000       0.262067         7.1312 
 149   0.0000       0.266195         7.2435 
 150   0.0000       0.271189         7.3794 
 151   0.0000       0.278364         7.5747 
 152   0.0000       0.283815         7.7230 
 153   0.0000       0.285398         7.7661 
 154   0.0000       0.289024         7.8647 
 155   0.0000       0.295238         8.0338 
 156   0.0000       0.301702         8.2097 
 157   0.0000       0.305903         8.3240 
 158   0.0000       0.307259         8.3610 
 159   0.0000       0.309302         8.4165 
 160   0.0000       0.310557         8.4507 
 161   0.0000       0.316170         8.6034 
 162   0.0000       0.320989         8.7346 
 163   0.0000       0.325933         8.8691 
 164   0.0000       0.330705         8.9989 
 165   0.0000       0.332326         9.0431 
 166   0.0000       0.335402         9.1268 
 167   0.0000       0.341128         9.2826 
 168   0.0000       0.342405         9.3173 
 169   0.0000       0.347751         9.4628 
 170   0.0000       0.352461         9.5910 
 171   0.0000       0.356453         9.6996 
 172   0.0000       0.362237         9.8570 
 173   0.0000       0.364047         9.9062 
 174   0.0000       0.365847         9.9552 
 175   0.0000       0.369925        10.0662 
 176   0.0000       0.371200        10.1009 
 177   0.0000       0.375311        10.2127 
 178   0.0000       0.376597        10.2477 
 179   0.0000       0.380228        10.3465 
 180   0.0000       0.387843        10.5538 
 181   0.0000       0.389387        10.5958 
 182   0.0000       0.391152        10.6438 
 183   0.0000       0.393762        10.7148 
 184   0.0000       0.396189        10.7808 
 185   0.0000       0.401301        10.9200 
 186   0.0000       0.404622        11.0103 
 187   0.0000       0.404978        11.0200 
 188   0.0000       0.409754        11.1500 
 189   0.0000       0.414139        11.2693 
 190   0.0000       0.416165        11.3244 
 191   0.0000       0.418001        11.3744 
 192   0.0000       0.423759        11.5311 
 193   0.0000       0.425675        11.5832 
 194   0.0000       0.430234        11.7073 
 195   0.0000       0.437176        11.8962 
 196   0.0000       0.438998        11.9458 
 197   0.0000       0.448440        12.2027 
 198   0.0000       0.451311        12.2808 
 199   0.0000       0.454537        12.3686 
 200   0.0000       0.457634        12.4529 
 201   0.0000       0.459844        12.5130 
 202   0.0000       0.462499        12.5852 
 203   0.0000       0.466942        12.7061 
 204   0.0000       0.470699        12.8084 
 205   0.0000       0.473162        12.8754 
 206   0.0000       0.475464        12.9380 
 207   0.0000       0.478530        13.0215 
 208   0.0000       0.479809        13.0563 
 209   0.0000       0.483782        13.1644 
 210   0.0000       0.487658        13.2699 
 211   0.0000       0.491661        13.3788 
 212   0.0000       0.492914        13.4129 
 213   0.0000       0.499174        13.5832 
 214   0.0000       0.503450        13.6996 
 215   0.0000       0.504803        13.7364 
 216   0.0000       0.506716        13.7885 
 217   0.0000       0.509249        13.8574 
 218   0.0000       0.512278        13.9398 
 219   0.0000       0.515881        14.0378 
 220   0.0000       0.517236        14.0747 
 221   0.0000       0.520795        14.1715 
 222   0.0000       0.524693        14.2776 
 223   0.0000       0.528715        14.3871 
 224   0.0000       0.532853        14.4997 
 225   0.0000       0.536336        14.5945 
 226   0.0000       0.541196        14.7267 
 227   0.0000       0.542957        14.7746 
 228   0.0000       0.548637        14.9292 
 229   0.0000       0.549044        14.9403 
 230   0.0000       0.552176        15.0255 
 231   0.0000       0.556885        15.1536 
 232   0.0000       0.562743        15.3130 
 233   0.0000       0.566142        15.4055 
 234   0.0000       0.568200        15.4615 
 235   0.0000       0.573231        15.5984 
 236   0.0000       0.577251        15.7078 
 237   0.0000       0.578881        15.7521 
 238   0.0000       0.582924        15.8622 
 239   0.0000       0.584361        15.9013 
 240   0.0000       0.591395        16.0927 
 241   0.0000       0.595395        16.2015 
 242   0.0000       0.601517        16.3681 
 243   0.0000       0.601810        16.3761 
 244   0.0000       0.605736        16.4829 
 245   0.0000       0.611805        16.6481 
 246   0.0000       0.612945        16.6791 
 247   0.0000       0.619836        16.8666 
 248   0.0000       0.622607        16.9420 
 249   0.0000       0.627249        17.0683 
 250   0.0000       0.629210        17.1217 
 251   0.0000       0.635051        17.2806 
 252   0.0000       0.635898        17.3037 
 253   0.0000       0.640134        17.4189 
 254   0.0000       0.644396        17.5349 
 255   0.0000       0.647754        17.6263 
 256   0.0000       0.648748        17.6533 
 257   0.0000       0.653868        17.7927 
 258   0.0000       0.658419        17.9165 
 259   0.0000       0.663170        18.0458 
 260   0.0000       0.665104        18.0984 
 261   0.0000       0.672540        18.3008 
 262   0.0000       0.674844        18.3634 
 263   0.0000       0.675527        18.3820 
 264   0.0000       0.684671        18.6309 
 265   0.0000       0.685868        18.6634 
 266   0.0000       0.696652        18.9569 
 267   0.0000       0.697623        18.9833 
 268   0.0000       0.699691        19.0395 
 269   0.0000       0.705179        19.1889 
 270   0.0000       0.712757        19.3951 
 271   0.0000       0.716252        19.4902 
 272   0.0000       0.721462        19.6320 
 273   0.0000       0.725271        19.7356 
 274   0.0000       0.728526        19.8242 
 275   0.0000       0.734393        19.9839 
 276   0.0000       0.737102        20.0576 
 277   0.0000       0.746847        20.3227 
 278   0.0000       0.749754        20.4019 
 279   0.0000       0.754310        20.5258 
 280   0.0000       0.762084        20.7374 
 281   0.0000       0.765220        20.8227 
 282   0.0000       0.765787        20.8381 
 283   0.0000       0.778977        21.1970 
[...]
  | sigma^2 in % of trace(Dip) retained ...   1.69e+01
  | sigma^2 in % of trace(Dpq) retained ...   1.32e-01
  | Av. % of trace(Di) retained         ...  99.998491006601
  | Av. % of trace(Dp) retained         ...  99.999999479960
  | sigma^2 in % of trace(Di) retained  ...   7.88e-07
  | sigma^2 in % of trace(Dp) retained  ...   1.77e-13
 Distributions of % trace(Dij) recovered:
  |       >= 99.9  ...   103 ( 19.7 % of all IJ-pairs)
  |   [80.0, 90.0) ...    35 (  6.7 % of all IJ-pairs)
  |   [90.0, 99.0) ...   291 ( 55.7 % of all IJ-pairs)
  |   [99.0, 99.9) ...    93 ( 17.8 % of all IJ-pairs)
 Distributions of % trace(Dip) recovered:
  |   [80.0, 90.0) ...    11 (  9.3 % of all IP-pairs)
  |   [90.0, 99.0) ...    65 ( 55.1 % of all IP-pairs)
  |   [99.0, 99.9) ...    42 ( 35.6 % of all IP-pairs)
 Distributions of % trace(Dpq) recovered:
  |       >= 99.9  ...     5 ( 33.3 % of all PQ-pairs)
  |   [99.0, 99.9) ...    10 ( 66.7 % of all PQ-pairs)
 Distributions of % trace(Di) recovered :
  |       >= 99.9  ...    43 (100.0 % of all I-pairs )
 Distributions of % trace(Dp) recovered :
  |       >= 99.9  ...     5 (100.0 % of all P-pairs )

                       ===========================
                       1144 OF 1727 PAIRS ARE KEPT
                       ===========================

 Initial PAO correlation energy (all pairs)    ...  -2.6947584718 Eh
 Energy constituents in PAO basis (Eh):
  | Vijab(+0) ...  -2.2651496620
  | Viab (-1) ...  -0.1754627845
  | Vab  (-2) ...  -0.0573647054
  | Va   (-1) ...  -0.0000419027
  | Vija (+1) ...  -0.0728251029
  | Vij  (+2) ...  -0.0155055644
  | Via  (+0) ...  -0.1082494787
  | Vi   (+1) ...  -0.0001592711
 Initial PNO correlation energy                ...  -2.6603786513 Eh
 Energy constituents in PNO basis (Eh):
  | Vijab(+0) ...  -2.2469103274 (err=  0.0182393346)
  | Viab (-1) ...  -0.1610149316 (err=  0.0144478529)
  | Vab  (-2) ...  -0.0568971527 (err=  0.0004675527)
  | Va   (-1) ...  -0.0000241388 (err=  0.0000177639)
  | Vija (+1) ...  -0.0717885478 (err=  0.0010365551)
  | Vij  (+2) ...  -0.0154482159 (err=  0.0000573485)
  | Via  (+0) ...  -0.1081364975 (err=  0.0001129812)
  | Vi   (+1) ...  -0.0001588396 (err=  0.0000004315)
 Sum of total truncation errors ...   0.0343798204 Eh
  | Pair screening ...   0.0110811116 Eh
  | PNO truncation ...   0.0232987088 Eh

 UMP2 correlation energy (PAO) ...  -2.6898911120
  | alpha-alpha ...  -0.3869712387 (NP_aa=  939)
  | alpha-beta  ...  -1.9955226265 (NP_ab= 1702)
  | beta -beta  ...  -0.3073972468 (NP_bb=  730)
 UMP2 correlation energy (PNO) ...  -2.6551371686
  | alpha-alpha ...  -0.3749118996 (err=  0.0120593392, NP_aa=  607)
  | alpha-beta  ...  -1.9767973654 (err=  0.0187252612, NP_ab= 1119)
  | beta -beta  ...  -0.3034279036 (err=  0.0039693431, NP_bb=  479)
 Sum of total UMP2 truncation errors ...   0.0347539435 Eh
  | Pair screening ...   0.0110956469 Eh
  | PNO truncation ...   0.0236582965 Eh
 Timing for NEV-PNO construction (sec.)
  | Intermediate construction  ..           51.526
  | Amplitude construction     ..           72.782
  | Total time                 ..          124.309
 Making pair pair interaction lists ...      ok
 Total size for 2-ext PNO integrals ...     11.1 MB
Checking the number of SOMO/SOMO doubles PNOs ... 
 #Truncate: (72, 72)[170] -> [84] .. 
 #Truncate: (73, 73)[172] -> [84] .. 
 #Truncate: (74, 74)[172] -> [84] .. 
 #Truncate: (75, 75)[171] -> [84] .. 
 #Truncate: (76, 76)[171] -> [84] .. 

--------------------------------
LOCAL RI TRANSFORMATION (VABPAO)
--------------------------------

Number of PAOs:    1030
Basis functions:   1025 (343 shells)
Aux. functions:    2424 (644 shells)

Processing maps (0.0 sec)
Average map sizes:
   Aux shells -> PAOs           1030.0
   PAOs       -> AO shells       343.0

Calculating integrals (223.4 sec, 37370.165 MB)
Finished
-----------------------------
LOCAL RI TRANSFORMATION (IJV)
-----------------------------

Orbital window:      29 to 76
Basis functions:   1025 (343 shells)
Aux. functions:    2424 (644 shells)

Processing maps (0.0 sec)
Average map sizes:
   Aux shells -> MOs(i)           46.6
   Aux shells -> MOs(j)           48.0
   MOs        -> AO shells       340.2

Calculating integrals (25.2 sec, 41.543 MB)
Sorting integrals (0.3 sec, 41.515 MB)
Total time for the integral transformation: 25.6 sec


-------------------------------------
Pair Pair Term precalculation with     
RI-(ij|mn) and (im|jn) transformation  
ON THE FLY                             
-------------------------------------

   IBatch   1 (of   3)              ... done ( 1567.760 sec)
   IBatch   2 (of   3)              ... done ( 1349.249 sec)
   IBatch   3 (of   3)              ... done (   72.658 sec)
Total EXT                           ...        2989.667 sec

---------------------
RI-PNO TRANSFORMATION
---------------------

Total Number of PNOs                   ... 35257
Total Number of IJ-PNOs                ... 31084
Total Number of IP-PNOs                ...  3229
Total Number of PQ-PNOs                ...   944
Total Number of IJ-pairs               ...  1001
Total Number of PI-pairs               ...   118
Total Number of PQ-pairs               ...    25
Average number of PNOs per pair        ...    30
Maximal number of PNOs per pair        ...    84
>> Statistics for ij-pairs..
   #pairs with  1 -  5 PNOs   :    0
   #pairs with  6 - 10 PNOs   :    0
   #pairs with 11 - 15 PNOs   :   60
   #pairs with 16 - 20 PNOs   :  266
   #pairs with 21 - 25 PNOs   :  158
   #pairs with 26 - 30 PNOs   :  162
   #pairs with 31 - 35 PNOs   :   60
   #pairs with 36 - 40 PNOs   :   50
   #pairs with 41 - 45 PNOs   :   52
   #pairs with 46 - 50 PNOs   :   19
   #pairs with 51 - 55 PNOs   :   35
   #pairs with 56 - 60 PNOs   :   58
   #pairs with 61 - 65 PNOs   :   74
   #pairs with 66 - 70 PNOs   :    4
   #pairs with 76 - 80 PNOs   :    3
>> Statistics for ip-pairs..
   #pairs with  1 -  5 PNOs   :    0
   #pairs with  6 - 10 PNOs   :    2
   #pairs with 11 - 15 PNOs   :   14
   #pairs with 16 - 20 PNOs   :    5
   #pairs with 21 - 25 PNOs   :   26
   #pairs with 26 - 30 PNOs   :   10
   #pairs with 31 - 35 PNOs   :   50
   #pairs with 36 - 40 PNOs   :   11
   #pairs with 41 - 45 PNOs   :    0
   #pairs with 46 - 50 PNOs   :    0
>> Statistics for pq-pairs..
   #pairs with  1 -  5 PNOs   :    0
   #pairs with  6 - 10 PNOs   :    0
   #pairs with 11 - 15 PNOs   :    0
   #pairs with 16 - 20 PNOs   :    0
   #pairs with 21 - 25 PNOs   :   10
   #pairs with 26 - 30 PNOs   :   10
   #pairs with 31 - 35 PNOs   :    0
   #pairs with 36 - 40 PNOs   :    0
   #pairs with 41 - 45 PNOs   :    0
   #pairs with 46 - 50 PNOs   :    0
   #pairs with 81 - 85 PNOs   :    5

Generation of (ij|ab)[P] integrals            ... on
Generation of (ia|bc)[P],(ja|bc)[P] integrals ... on
Storage of 3 and 4 external integrals         ... on
Generation of ALL (ka|bc)[P] integrals        ... on
Keep RI integrals in memory                   ... off

Ibatch:  1 (of  1)
Starting 2-4 index PNO integral generation ... done

Timings:
Total PNO integral transformation time     ...       2276.155 sec
Size of the 3-external file                ...       288 MB
Size of the 4-external file                ...      1945 MB
Size of the IKJL file                      ...        19 MB
Size of the all 3-external file            ...      6921 MB
Size of the 1-external file                ...        22 MB

Size of the PAO/PNO coefficient matrices   ...     233.0 MB

Making pair/pair overlap matrices          ... done (  381.758 sec)
Size of the pair overlap file              ...    2522.0 MB
Total # unrestricted pairs ...       2205
  # of alpha-alpha pairs   ...        607
  # of alpha-beta pairs    ...       1119
  # of beta-beta pairs     ...        479
Constructing the guess amplitudes          ... done (    0.683 sec)

-------------------------
FINAL STARTUP INFORMATION
-------------------------

E(0)                                       ...  -3028.423165250
E(SL-UMP2 in NEV-PNO space)                ...     -2.690800426
Initial E(tot)                             ...  -3031.113965676
<T|T>                                      ...      0.535259535
Number of unrestricted pairs included      ... 2205
Total number of pairs                      ... 4095
----------------------------------------------------------
                     OPEN-SHELL COUPLED CLUSTER ITERATIONS
----------------------------------------------------------

Number of PNO amplitudes to be optimized        ...          2147826
Number of canonical amplitudes for strong pairs ...       1991585758
Untruncated number of canonical amplitudes      ...       3698645738

Iter       E(tot)           E(Corr)          Delta-E          Residual     Time
  0  -3031.121116408     -2.662287901      0.028512526      0.021940946 2258.53
                           *** Turning on DIIS ***
  1  -3031.233118527     -2.774290019     -0.112002118      0.008784259 2264.65
  2  -3031.297268336     -2.838439828     -0.064149810      0.008711559 2263.33
  3  -3031.318169550     -2.859341043     -0.020901214      0.003387487 2264.99
  4  -3031.325148105     -2.866319597     -0.006978555      0.002775411 2265.56
  5  -3031.328787909     -2.869959402     -0.003639804      0.002022339 2292.13
  6  -3031.330115280     -2.871286773     -0.001327371      0.000915478 2291.63
  7  -3031.330882321     -2.872053813     -0.000767041      0.000479482 2307.84
  8  -3031.331033539     -2.872205032     -0.000151218      0.000193104 2291.61
  9  -3031.331080092     -2.872251584     -0.000046553      0.000090274 2290.84
 10  -3031.331075158     -2.872246650      0.000004934      0.000061191 2296.52
 11  -3031.331084316     -2.872255808     -0.000009158      0.000039611 2310.42
 12  -3031.331089620     -2.872261112     -0.000005304      0.000023761 2286.23
 13  -3031.331091857     -2.872263349     -0.000002237      0.000013374 2295.15
 14  -3031.331092533     -2.872264025     -0.000000676      0.000007533 1980.24
               --- The CCSD iterations have converged ---

E(0)                                       ...  -3028.423165250
E(CORR)(strong-pairs)                      ...     -2.872264025
E(CORR)(weak-pairs)                        ...     -0.035663258
E(CORR)(corrected)                         ...     -2.907927283
E(TOT)                                     ...  -3031.331092533
Singles norm <S|S>**1/2                    ...      0.188003727 ( 0.062822924, 0.125180803)  
T1 diagnostic                              ...      0.019708146                              
<S**2>(linearized)                         ...      8.7507528 (ideal value:      8.7500000)

----------------------
LARGEST PNO AMPLITUDES
----------------------
  71a-> 77a  71b-> 77b       0.061818
  71a-> 78a  71b-> 78b       0.057715
  50b-> 76b  -1b-> -1b       0.057352
  51b-> 76b  -1b-> -1b       0.048167
  48b-> 72b  -1b-> -1b       0.047978
  48b-> 74b  -1b-> -1b       0.045801
  55a-> 77a  55b-> 77b       0.044774
  66a-> 77a  66b-> 77b       0.044554
  48b-> 75b  -1b-> -1b       0.044105
  62a-> 77a  62b-> 77b       0.043454
  70a-> 77a  70b-> 77b       0.042964
  58a-> 77a  58b-> 77b       0.042590
  39b-> 73b  -1b-> -1b       0.042564
  64a-> 77a  64b-> 77b       0.042527
  60a-> 77a  60b-> 77b       0.042056
  61a-> 77a  61b-> 77b       0.041982

Total # unrestricted pairs ...       1166
  # of alpha-alpha pairs   ...        332
  # of alpha-beta pairs    ...        583
  # of beta-beta pairs     ...        251

-------------------------------------------
DLPNO BASED TRIPLES CORRECTION
-------------------------------------------

Singles multiplier          ...  1.000000
Fragment selection                          .... not used
TCutTNO                     ... 1.000e-09
TCutMP2Pairs                ... 1.000e-05
TCutDOStrong                ... 2.000e-02
TCutMKNStrong               ... 1.000e-02
TCutDOWeak                  ... 4.000e-02
TCutMKNWeak                 ... 1.000e-01
NTCutTNO                    ... 1

Number of Triples that are to be computed         ...     36214

 . . . . . . . . .
10% done  
20% done  
30% done  
40% done  
50% done  
60% done  
70% done  
80% done  
90% done  
          Batch   1   done (  17560.870 sec)

Triples-Correction TCutTNO=   1.000e-09 (NWeakPairs = 0  1  2  3)  -0.117692061596   -0.001773754074    0.000000000000    0.000000000000
Triples-Correction  -0.119465815670

Triples timings:
Total time                      ... 18264.306 sec

Triples List generation         ...     0.000 sec
TNO generation                  ...   702.891 sec
Pair density generation         ...     0.087 sec
Look up tables                  ...     0.137 sec
Generating 3-index integrals    ... 11063.852 sec
Make 4-ind.int. from 3-ind.int  ...     4.132 sec
Projecting amplitudes (D + S)   ...  6202.569 sec
Sorting integrals for spin cases...    59.089 sec
Calculate W0/W1                 ...   187.327 sec
Energy contr. (sum over a,b,c)  ...    43.894 sec

Everything after 3-index        ...  6654.935 sec

Energy contribution AAA         ...    28.170 sec
Energy contribution AAB         ...   128.448 sec
Energy contribution ABB         ...   117.644 sec
Energy contribution BBB         ...    16.095 sec
prep                ...     3.520 sec
makeTTNO            ...  6139.525 sec
copyij              ...     0.140 sec
copyil              ...     4.475 sec
transposeij         ...     0.084 sec
newMatInDoubleProj  ...    58.655 sec
BlasInDoubleProj    ...  3349.364 sec
ProjSingles         ...    52.033 sec
ProjDoubles         ...  6150.535 sec
overall Doubles for projection      ... 3328560
used Doubles for projection         ... 3328560


Number of Triples   (0, 1, 2, 3 weak pairs; overall):  17885   12153       0       0  ( 30038)
Number of Atoms     (0, 1, 2, 3 weak pairs; overall):   20.3    14.8     0.0     0.0  (    29)
Number of PAOs      (0, 1, 2, 3 weak pairs; overall):  781.8   597.2     0.0     0.0  (  1025)
Number of AuxFcns   (0, 1, 2, 3 weak pairs; overall): 1002.1   580.6     0.0     0.0  (  2424)
Number of TNOs (0, 1, 2, 3 weak pairs         ):   78.6    55.4     0.0     0.0
Aver. Number of NTNO, Atoms, PAOs, AuxFcns / Triples:  30038    69.2    18.1   707.1   831.6

Triples Correction (T)                     ...     -0.119465816
    alpha-alpha-alpha ... -0.003925084 (  3.3%)
    alpha-alpha-beta  ... -0.056077664 ( 46.9%)
    alpha-beta -beta  ... -0.055323221 ( 46.3%)
    beta -beta -beta  ... -0.004139846 (  3.5%)
Final correlation energy                   ...     -3.027393098
E(CCSD)                                    ...  -3031.331092533
E(CCSD(T))                                 ...  -3031.450558348

----------------------------
STATISTICS FOR PAIR-ENERGIES
----------------------------
Minimum, maximum and average ratios of UMP and CCSD pair-energies ... 0.52, 1.43, 1.02


------------------------------------------------------------------------------- 
                                     TIMINGS                                   
------------------------------------------------------------------------------- 


Total execution time                   ...    65379.741 sec

Localization of occupied MO's          ...       10.859 sec (  0.0%)
Fock Matrix Formation                  ...     1403.041 sec (  2.1%)
Differential overlap integrals         ...        1.484 sec (  0.0%)
Organizing maps                        ...        1.751 sec (  0.0%)
RI 3-index integral generations        ...      311.795 sec (  0.5%)
RI-PNO integral transformation         ...     6200.452 sec (  9.5%)
Initial Guess                          ...     2566.729 sec (  3.9%)
DIIS Solver                            ...       25.757 sec (  0.0%)
State Vector Update                    ...        0.782 sec (  0.0%)
Sigma-vector construction              ...    33959.680 sec ( 51.9%)
  <0|H|D>                              ...        0.032 sec (  0.0% of sigma)
  <D|H|D>(0-ext)                       ...     5734.843 sec ( 16.9% of sigma)
  <D|H|D>(2-ext Fock)                  ...        1.808 sec (  0.0% of sigma)
  <D|H|D>(2-ext)                       ...     5348.127 sec ( 15.7% of sigma)
  <D|H|D>(4-ext)                       ...      159.784 sec (  0.5% of sigma)
  <D|H|D>(4-ext-corr)                  ...      992.774 sec (  2.9% of sigma)
  CCSD doubles correction              ...      569.333 sec (  1.7% of sigma)
  <S|H|S>                              ...      855.367 sec (  2.5% of sigma)
  <S|H|D>(1-ext)                       ...      300.956 sec (  0.9% of sigma)
  <D|H|S>(1-ext)                       ...        1.033 sec (  0.0% of sigma)
  <S|H|D>(3-ext)                       ...       24.253 sec (  0.1% of sigma)
  CCSD singles correction              ...        0.005 sec (  0.0% of sigma)
  Fock-dressing                        ...    10020.259 sec ( 29.5% of sigma)
  Singles amplitudes                   ...      128.417 sec (  0.4% of sigma)
  (ik|jl)-dressing                     ...     7944.259 sec ( 23.4% of sigma)
  (ij|ab),(ia|jb)-dressing             ...     1832.657 sec (  5.4% of sigma)
  Pair energies                        ...        0.161 sec (  0.0% of sigma)
Total Time for computing (T)           ...    21275.869 sec ( 32.5% of ALL)


-------------------------   --------------------
FINAL SINGLE POINT ENERGY     -3031.450558348342
-------------------------   --------------------


                            ***************************************
                            *     ORCA property calculations      *
                            ***************************************

                                    ---------------------
                                    Active property flags
                                    ---------------------
   (+) Dipole Moment


------------------------------------------------------------------------------
                       ORCA ELECTRIC PROPERTIES CALCULATION
------------------------------------------------------------------------------

Dipole Moment Calculation                       ... on
Quadrupole Moment Calculation                   ... off
Polarizability Calculation                      ... off
GBWName                                         ... simple-grid-200-230-b3lyp_d3bj-631gd-gas-singlepoint-DLPNO_CCSD_T1-NormalPNO-augtz-gas.gbw
Electron density file                           ... simple-grid-200-230-b3lyp_d3bj-631gd-gas-singlepoint-DLPNO_CCSD_T1-NormalPNO-augtz-gas.scfp.tmp
The origin for moment calculation is the CENTER OF MASS  = ( 0.307007,  0.022973  0.018502)

-------------
DIPOLE MOMENT
-------------
                                X             Y             Z
Electronic contribution:     41.18646       3.35017       2.27318
Nuclear contribution   :    -45.74409      -3.42306      -2.75673
                        -----------------------------------------
Total Dipole Moment    :     -4.55763      -0.07289      -0.48355
                        -----------------------------------------
Magnitude (a.u.)       :      4.58379
Magnitude (Debye)      :     11.65108



--------------------
Rotational spectrum 
--------------------
 
Rotational constants in cm-1:     0.019361     0.011431     0.010601 
Rotational constants in MHz :   580.415844   342.683808   317.799888 

 Dipole components along the rotational axes: 
x,y,z [a.u.] :    -4.557067    -0.103037    -0.483403 
x,y,z [Debye]:   -11.583144    -0.261900    -1.228712 

 

Timings for individual modules:

Sum of individual times         ...    82591.642 sec (=1376.527 min)
GTO integral calculation        ...       14.149 sec (=   0.236 min)   0.0 %
SCF iterations                  ...    17182.513 sec (= 286.375 min)  20.8 %
MDCI module                     ...    65394.979 sec (=1089.916 min)  79.2 %
                             ****ORCA TERMINATED NORMALLY****
TOTAL RUN TIME: 0 days 22 hours 56 minutes 34 seconds 332 msec
