
                                 *****************
                                 * O   R   C   A *
                                 *****************

           --- An Ab Initio, DFT and Semiempirical electronic structure package ---

                  #######################################################
                  #                        -***-                        #
                  #          Department of theory and spectroscopy      #
                  #               Directorship: Frank Neese             #
                  #        Max Planck Institute fuer Kohlenforschung    #
                  #                Kaiser Wilhelm Platz 1               #
                  #                 D-45470 Muelheim/Ruhr               #
                  #                      Germany                        #
                  #                                                     #
                  #                  All rights reserved                #
                  #                        -***-                        #
                  #######################################################


                         Program Version 4.1.2  - RELEASE  -


 With contributions from (in alphabetic order):
   Daniel Aravena         : Magnetic Properties
   Michael Atanasov       : Ab Initio Ligand Field Theory
   Alexander A. Auer      : GIAO ZORA
   Ute Becker             : Parallelization
   Giovanni Bistoni       : ED, Open-shell LED
   Martin Brehm           : Molecular dynamics
   Dmytro Bykov           : SCF Hessian
   Vijay G. Chilkuri      : MRCI spin determinant printing
   Dipayan Datta          : RHF DLPNO-CCSD density
   Achintya Kumar Dutta   : EOM-CC, STEOM-CC
   Dmitry Ganyushin       : Spin-Orbit,Spin-Spin,Magnetic field MRCI
   Miquel Garcia          : C-PCM Hessian
   Yang Guo               : DLPNO-NEVPT2, CIM, IAO-localization
   Andreas Hansen         : Spin unrestricted coupled pair/coupled cluster methods
   Benjamin Helmich-Paris : CASSCF linear response (MC-RPA)
   Lee Huntington         : MR-EOM, pCC
   Robert Izsak           : Overlap fitted RIJCOSX, COSX-SCS-MP3, EOM
   Christian Kollmar      : KDIIS, OOCD, Brueckner-CCSD(T), CCSD density
   Simone Kossmann        : Meta GGA functionals, TD-DFT gradient, OOMP2, MP2 Hessian
   Martin Krupicka        : AUTO-CI
   Lucas Lang             : DCDCAS
   Dagmar Lenk            : GEPOL surface, SMD
   Dimitrios Liakos       : Extrapolation schemes; parallel MDCI
   Dimitrios Manganas     : ROCIS; embedding schemes
   Dimitrios Pantazis     : SARC Basis sets
   Taras Petrenko         : DFT Hessian,TD-DFT gradient, ASA, ECA, R-Raman, ABS, FL, XAS/XES, NRVS
   Peter Pinski           : DLPNO-MP2, DLPNO-MP2 Gradient
   Christoph Reimann      : Effective Core Potentials
   Marius Retegan         : Local ZFS, SOC
   Christoph Riplinger    : Optimizer, TS searches, QM/MM, DLPNO-CCSD(T), (RO)-DLPNO pert. Triples
   Tobias Risthaus        : Range-separated hybrids, TD-DFT gradient, RPA, STAB
   Michael Roemelt        : Restricted open shell CIS
   Masaaki Saitow         : Open-shell DLPNO
   Barbara Sandhoefer     : DKH picture change effects
   Avijit Sen             : IP-ROCIS
   Kantharuban Sivalingam : CASSCF convergence, NEVPT2, FIC-MRCI
   Bernardo de Souza      : ESD, SOC TD-DFT
   Georgi Stoychev        : AutoAux, RI-MP2 NMR
   Willem Van den Heuvel  : Paramagnetic NMR
   Boris Wezisla          : Elementary symmetry handling
   Frank Wennmohs         : Technical directorship


 We gratefully acknowledge several colleagues who have allowed us to
 interface, adapt or use parts of their codes:
   Stefan Grimme, W. Hujo, H. Kruse,             : VdW corrections, initial TS optimization,
                  C. Bannwarth                     DFT functionals, gCP, sTDA/sTD-DF
   Ed Valeev                                     : LibInt (2-el integral package), F12 methods
   Garnet Chan, S. Sharma, J. Yang, R. Olivares  : DMRG
   Ulf Ekstrom                                   : XCFun DFT Library
   Mihaly Kallay                                 : mrcc  (arbitrary order and MRCC methods)
   Andreas Klamt, Michael Diedenhofen            : otool_cosmo (COSMO solvation model)
   Jiri Pittner, Ondrej Demel                    : Mk-CCSD
   Frank Weinhold                                : gennbo (NPA and NBO analysis)
   Christopher J. Cramer and Donald G. Truhlar   : smd solvation model
   Lars Goerigk                                  : TD-DFT with DH, B97 family of functionals
   V. Asgeirsson, H. Jonsson                     : NEB implementation
   FAccTs GmbH                                   : IRC, NEB, NEB-TS, Multilevel


 Your calculation uses the libint2 library for the computation of 2-el integrals
 For citations please refer to: http://libint.valeyev.net

 This ORCA versions uses:
   CBLAS   interface :  Fast vector & matrix operations
   LAPACKE interface :  Fast linear algebra routines
   SCALAPACK package :  Parallel linear algebra routines


----- Orbital basis set information -----
Your calculation utilizes the basis: aug-cc-pVTZ 
    H, B-Ne : Obtained from the ccRepo (grant-hill.group.shef.ac.uk/ccrepo) Feb. 2017
              R. A. Kendall, T. H. Dunning, Jr., R. J. Harrison, J. Chem. Phys. 96, 6796 (1992)
         He : Obtained from the ccRepo (grant-hill.group.shef.ac.uk/ccrepo) Feb. 2017
              D. E. Woon, T. H. Dunning, Jr., J. Chem. Phys. 100, 2975 (1994)
  Li-Be, Na : Obtained from the ccRepo (grant-hill.group.shef.ac.uk/ccrepo) Feb. 2017
              B. P. Prascher, D. E. Woon, K. A. Peterson, T. H. Dunning, Jr., A. K. Wilson, Theor. Chem. Acc. 128, 69 (2011)
         Mg : Obtained from the Peterson Research Group Website (tyr0.chem.wsu.edu/~kipeters) Feb. 2017
              B. P. Prascher, D. E. Woon, K. A. Peterson, T. H. Dunning, Jr., A. K. Wilson, Theor. Chem. Acc. 128, 69 (2011)
      Al-Ar : Obtained from the ccRepo (grant-hill.group.shef.ac.uk/ccrepo) Feb. 2017
              D. E. Woon, T. H. Dunning, Jr., J. Chem. Phys. 98, 1358 (1993)
      Sc-Zn : Obtained from the ccRepo (grant-hill.group.shef.ac.uk/ccrepo) Feb. 2017
              N. B. Balabanov, K. A. Peterson, J. Chem. Phys. 123, 064107 (2005)
              N. B. Balabanov, K. A. Peterson, J. Chem. Phys. 125, 074110 (2006)
      Ga-Kr : Obtained from the ccRepo (grant-hill.group.shef.ac.uk/ccrepo) Feb. 2017
              A. K. Wilson, D. E. Woon, K. A. Peterson, T. H. Dunning, Jr., J. Chem. Phys. 110, 7667 (1999)
     Ag, Au : Obtained from the Peterson Research Group Website (tyr0.chem.wsu.edu/~kipeters) Feb. 2017
              K. A. Peterson, C. Puzzarini, Theor. Chem. Acc. 114, 283 (2005)

----- AuxJ basis set information -----
Your calculation utilizes the AutoAux generation procedure.
  G. L. Stoychev, A. A. Auer, F. Neese, J. Chem. Theory Comput. 13, 554 (2017)

----- AuxC basis set information -----
Your calculation utilizes the auxiliary basis: aug-cc-pVTZ/C 
  H-He, B-F, Al-Ar, Ga-Kr : Obtained from the EMSL Basis Set Exchange (bse.pnl.gov) Feb. 2017
                            F. Weigend, A. Kohn, C. Hattig, J. Chem. Phys. 116, 3175 (2002)
                   Be, Mg : Obtained from the TURBOMOLE 7.0 basis set library
                            C. Haettig, Phys. Chem. Chem. Phys. 7, 59 (2005)
                       Ne : Obtained from the EMSL Basis Set Exchange (bse.pnl.gov) Feb. 2017
                            C. Haettig, Phys. Chem. Chem. Phys. 7, 59 (2005)
                            F. Weigend, A. Kohn, C. Hattig, J. Chem. Phys. 116, 3175 (2002)
                    Sc-Zn : Obtained from the EMSL Basis Set Exchange (bse.pnl.gov) Feb. 2017
                            J. G. Hill, J. A. Platts, J. Chem. Phys. 128, 044104 (2008)

----- AuxJK basis set information -----
Your calculation utilizes the AutoAux generation procedure.
  G. L. Stoychev, A. A. Auer, F. Neese, J. Chem. Theory Comput. 13, 554 (2017)

================================================================================
                                        WARNINGS
                       Please study these warnings very carefully!
================================================================================


WARNING: your system is open-shell and RHF/RKS was chosen
  ===> : WILL SWITCH to UHF/UKS


WARNING: MDCI localization with Augmented Hessian Foster-Boys
  ===> : Switching off randomization!

WARNING: Post HF methods need fully converged wavefunctions
  ===> : Setting SCFConvForced true
         You can overwrite this default with %scf ConvForced false 


INFO   : the flag for use of LIBINT has been found!

================================================================================
                                       INPUT FILE
================================================================================
NAME = simple-grid-185-290-b3lyp_d3bj-631gd-gas-singlepoint-DLPNO_CCSD_T1-NormalPNO-augtz-gas.inp
|  1> ! aug-cc-pVTZ aug-cc-pVTZ/C DLPNO-CCSD(T1) TightSCF NormalPNO UNO MiniPrint AutoAux
|  2> %pal nproc 10 end
|  3> %maxcore 20000
|  4> %mdci
|  5>      density none
|  6> end
|  7> 
|  8> * xyz 0 6
|  9>  O     -0.30528500     -0.11927600     -0.42055800
| 10>  C     -1.20859000     -1.06124200     -0.19985100
| 11>  C     -2.56251500     -0.30947100      0.81218900
| 12>  C     -3.07321900      0.66849800     -0.06281000
| 13>  C     -4.22080600      0.39161600     -0.96683500
| 14> Fe      1.52883800      0.17123000     -0.09823100
| 15> Cl      1.86365200      2.15557600     -0.98185100
| 16>  C     -2.36512400      1.95126800     -0.20216100
| 17> Cl      2.52837000     -1.51879100     -1.09205400
| 18> Cl      1.85001500      0.16366800      2.08899800
| 19>  H     -3.22407100     -1.16950300      0.92643300
| 20>  H     -2.83779500      2.64194100     -0.90232600
| 21>  H     -2.18719800      2.44128500      0.76065100
| 22>  H     -1.35017600      1.67647900     -0.56798000
| 23>  H     -5.05212000      1.04545300     -0.66217100
| 24>  H     -3.98596500      0.66732100     -2.00241400
| 25>  H     -4.56299500     -0.64362200     -0.92368900
| 26>  C     -1.90896200      0.15660900      2.11168500
| 27>  H     -2.55715300      0.87514400      2.62452100
| 28>  H     -1.75405500     -0.68683300      2.78561400
| 29>  H     -0.93920100      0.62595200      1.93652500
| 30>  C     -0.74228400     -2.18639700      0.72928500
| 31>  H     -1.55715500     -2.86080400      1.00543800
| 32>  H      0.00736900     -2.75358500      0.16491100
| 33>  H     -0.25402700     -1.79925700      1.62327900
| 34>  C     -1.81310100     -1.60010200     -1.49341800
| 35>  H     -1.03862700     -2.20002300     -1.98311700
| 36>  H     -2.68320900     -2.23922500     -1.31561600
| 37>  H     -2.07815600     -0.79087000     -2.17666600
| 38> *
| 39> 
| 40> 
| 41>                          ****END OF INPUT****
================================================================================

                       ****************************
                       * Single Point Calculation *
                       ****************************

---------------------------------
CARTESIAN COORDINATES (ANGSTROEM)
---------------------------------
  O     -0.305285   -0.119276   -0.420558
  C     -1.208590   -1.061242   -0.199851
  C     -2.562515   -0.309471    0.812189
  C     -3.073219    0.668498   -0.062810
  C     -4.220806    0.391616   -0.966835
  Fe     1.528838    0.171230   -0.098231
  Cl     1.863652    2.155576   -0.981851
  C     -2.365124    1.951268   -0.202161
  Cl     2.528370   -1.518791   -1.092054
  Cl     1.850015    0.163668    2.088998
  H     -3.224071   -1.169503    0.926433
  H     -2.837795    2.641941   -0.902326
  H     -2.187198    2.441285    0.760651
  H     -1.350176    1.676479   -0.567980
  H     -5.052120    1.045453   -0.662171
  H     -3.985965    0.667321   -2.002414
  H     -4.562995   -0.643622   -0.923689
  C     -1.908962    0.156609    2.111685
  H     -2.557153    0.875144    2.624521
  H     -1.754055   -0.686833    2.785614
  H     -0.939201    0.625952    1.936525
  C     -0.742284   -2.186397    0.729285
  H     -1.557155   -2.860804    1.005438
  H      0.007369   -2.753585    0.164911
  H     -0.254027   -1.799257    1.623279
  C     -1.813101   -1.600102   -1.493418
  H     -1.038627   -2.200023   -1.983117
  H     -2.683209   -2.239225   -1.315616
  H     -2.078156   -0.790870   -2.176666

----------------------------
CARTESIAN COORDINATES (A.U.)
----------------------------
  NO LB      ZA    FRAG     MASS         X           Y           Z
   0 O     8.0000    0    15.999   -0.576905   -0.225399   -0.794739
   1 C     6.0000    0    12.011   -2.283904   -2.005457   -0.377664
   2 C     6.0000    0    12.011   -4.842452   -0.584815    1.534815
   3 C     6.0000    0    12.011   -5.807542    1.263278   -0.118694
   4 C     6.0000    0    12.011   -7.976167    0.740047   -1.827053
   5 Fe   26.0000    0    55.850    2.889085    0.323578   -0.185630
   6 Cl   17.0000    0    35.453    3.521792    4.073448   -1.855429
   7 C     6.0000    0    12.011   -4.469437    3.687362   -0.382029
   8 Cl   17.0000    0    35.453    4.777927   -2.870099   -2.063683
   9 Cl   17.0000    0    35.453    3.496022    0.309288    3.947634
  10 H     1.0000    0     1.008   -6.092611   -2.210040    1.750705
  11 H     1.0000    0     1.008   -5.362655    4.992545   -1.705149
  12 H     1.0000    0     1.008   -4.133205    4.613360    1.437422
  13 H     1.0000    0     1.008   -2.551463    3.168086   -1.073327
  14 H     1.0000    0     1.008   -9.547123    1.975620   -1.251322
  15 H     1.0000    0     1.008   -7.532382    1.261054   -3.784014
  16 H     1.0000    0     1.008   -8.622811   -1.216269   -1.745519
  17 C     6.0000    0    12.011   -3.607415    0.295948    3.990506
  18 H     1.0000    0     1.008   -4.832319    1.653782    4.959626
  19 H     1.0000    0     1.008   -3.314684   -1.297926    5.264048
  20 H     1.0000    0     1.008   -1.774833    1.182878    3.659502
  21 C     6.0000    0    12.011   -1.402713   -4.131692    1.378149
  22 H     1.0000    0     1.008   -2.942596   -5.406136    1.900002
  23 H     1.0000    0     1.008    0.013925   -5.203522    0.311637
  24 H     1.0000    0     1.008   -0.480041   -3.400103    3.067553
  25 C     6.0000    0    12.011   -3.426264   -3.023755   -2.822151
  26 H     1.0000    0     1.008   -1.962721   -4.157441   -3.747548
  27 H     1.0000    0     1.008   -5.070530   -4.231522   -2.486154
  28 H     1.0000    0     1.008   -3.927146   -1.494528   -4.113303



           ************************************************************
           *        Program running with 10 parallel MPI-processes    *
           *              working on a common directory               *
           ************************************************************


           ************************************************************
           *        Program running with 10 parallel MPI-processes    *
           *              working on a common directory               *
           ************************************************************

Diagonalization of the overlap matrix:
Smallest eigenvalue                        ... 6.580e-07
Time for diagonalization                   ...    0.411 sec
Threshold for overlap eigenvalues          ... 1.000e-08
Number of eigenvalues below threshold      ... 0
Time for construction of square roots      ...    0.322 sec
Total time needed                          ...    0.741 sec

-------------------
DFT GRID GENERATION
-------------------

General Integration Accuracy     IntAcc      ...  4.340
Radial Grid Type                 RadialGrid  ... Gauss-Chebyshev
Angular Grid (max. acc.)         AngularGrid ... Lebedev-110
Angular grid pruning method      GridPruning ... 3 (G Style)
Weight generation scheme         WeightScheme... Becke
Basis function cutoff            BFCut       ...    1.0000e-11
Integration weight cutoff        WCut        ...    1.0000e-14
Grids for H and He will be reduced by one unit

# of grid points (after initial pruning)     ...  36112 (   0.0 sec)
# of grid points (after weights+screening)   ...  32336 (   0.1 sec)
nearest neighbour list constructed           ...    0.0 sec
Grid point re-assignment to atoms done       ...    0.0 sec
Grid point division into batches done        ...    0.0 sec
Reduced shell lists constructed in    0.3 sec

Total number of grid points                  ...    32336
Total number of batches                      ...      520
Average number of points per batch           ...       62
Average number of grid points per atom       ...     1115
Average number of shells per batch           ...   292.92 (85.40%)
Average number of basis functions per batch  ...   870.58 (84.94%)
Average number of large shells per batch     ...   240.68 (82.16%)
Average number of large basis fcns per batch ...   714.79 (82.10%)
Maximum spatial batch extension              ...   3.00,  4.23,  3.38 au
Average spatial batch extension              ...   0.17,  0.18,  0.17 au

Time for grid setup =    0.407 sec

Loading Hartree-Fock densities                     ... done
Calculating cut-offs                               ... done
Setting up the integral package                    ... done
Initializing the effective Hamiltonian             ... done
Starting the Coulomb interaction                   ... done (   1.1 sec)
Reading the grid                                   ... done
Mapping shells                                     ... done
Starting the XC term evaluation                    ... done (   0.8 sec)
Transforming the Hamiltonian                       ... done (   0.2 sec)
Diagonalizing the Hamiltonian                      ... done (   0.3 sec)
Back transforming the eigenvectors                 ... done (   0.1 sec)
Now organizing SCF variables                       ... done
--------------
SCF ITERATIONS
--------------
ITER       Energy         Delta-E        Max-DP      RMS-DP      [F,P]     Damp
               ***  Starting incremental Fock matrix formation  ***
  0  -3027.5551685348   0.000000000000 0.29849975  0.00105852  0.2788250 0.7000
  1  -3027.8066632482  -0.251494713400 0.22632013  0.00083528  0.1632624 0.7000
                               ***Turning on DIIS***
  2  -3027.9754990942  -0.168835846023 0.15955140  0.00061683  0.1097363 0.7000
  3  -3029.6085913883  -1.633092294085 0.34428633  0.00154514  0.0823272 0.0000
  4  -3028.2879675502   1.320623838083 0.04794043  0.00021754  0.0204235 0.0000
  5  -3028.4024294471  -0.114461896948 0.03997706  0.00017052  0.0116084 0.0000
  6  -3028.4394686531  -0.037039205972 0.02118638  0.00007157  0.0056213 0.0000
  7  -3028.4584432594  -0.018974606315 0.00901418  0.00003401  0.0034173 0.0000
  8  -3028.4497173938   0.008725865574 0.00578820  0.00001925  0.0015019 0.0000
  9  -3028.4433816830   0.006335710804 0.00325088  0.00001179  0.0007060 0.0000
 10  -3028.4335135158   0.009868167203 0.00081968  0.00000361  0.0003407 0.0000
 11  -3028.4376735635  -0.004160047700 0.00040223  0.00000245  0.0001152 0.0000
 12  -3028.4342948498   0.003378713769 0.00034273  0.00000217  0.0000323 0.0000
 13  -3028.4348495835  -0.000554733715 0.00098664  0.00000208  0.0000149 0.0000
 14  -3028.4349770979  -0.000127514377 0.00026689  0.00000212  0.0000091 0.0000
 15  -3028.4348806154   0.000096482467 0.00154985  0.00000325  0.0000082 0.0000
 16  -3028.4349474850  -0.000066869567 0.00043563  0.00000253  0.0000071 0.0000
 17  -3028.4348770236   0.000070461386 0.00282065  0.00000552  0.0000062 0.0000
 18  -3028.4348925557  -0.000015532142 0.00083795  0.00000368  0.0000046 0.0000
 19  -3028.4349412184  -0.000048662722 0.00049205  0.00000192  0.0000029 0.0000
               *** Restarting incremental Fock matrix formation ***
                                   *** Resetting DIIS ***
 20  -3028.4349637662  -0.000022547731 0.00588481  0.00001170  0.0000020 0.0000
 21  -3028.4349630379   0.000000728231 0.00147315  0.00000283  0.0000018 0.0000
 22  -3028.4349542049   0.000008833040 0.00187157  0.00000344  0.0000017 0.0000
 23  -3028.4349624743  -0.000008269453 0.00246439  0.00000439  0.0000015 0.0000
 24  -3028.4349631074  -0.000000633001 0.00224168  0.00000544  0.0000013 0.0000
                            ***DIIS convergence achieved***

               *****************************************************
               *                     SUCCESS                       *
               *           SCF CONVERGED AFTER  25 CYCLES          *
               *****************************************************

Total Energy       :        -3028.43496053 Eh          -82407.90481 eV
  Last Energy change         ...    2.5815e-06  Tolerance :   1.0000e-08
  Last MAX-Density change    ...    1.0409e-03  Tolerance :   1.0000e-07
             **** THE GBW FILE WAS UPDATED (simple-grid-185-290-b3lyp_d3bj-631gd-gas-singlepoint-DLPNO_CCSD_T1-NormalPNO-augtz-gas.gbw) ****
             **** DENSITY FILE WAS UPDATED (simple-grid-185-290-b3lyp_d3bj-631gd-gas-singlepoint-DLPNO_CCSD_T1-NormalPNO-augtz-gas.scfp.tmp) ****
             **** ENERGY FILE WAS UPDATED (simple-grid-185-290-b3lyp_d3bj-631gd-gas-singlepoint-DLPNO_CCSD_T1-NormalPNO-augtz-gas.en.tmp) ****
----------------------
UHF SPIN CONTAMINATION
----------------------

Expectation value of <S**2>     :     8.764540
Ideal value S*(S+1) for S=2.5   :     8.750000
Deviation                       :     0.014540

----------------
ORBITAL ENERGIES
----------------
                 SPIN UP ORBITALS
  NO   OCC          E(Eh)            E(eV) 
   0   1.0000    -261.544723     -7116.9937 
   1   1.0000    -104.770661     -2850.9546 
   2   1.0000    -104.768516     -2850.8963 
   3   1.0000    -104.767670     -2850.8732 
   4   1.0000     -32.212625      -876.5501 
   5   1.0000     -27.688648      -753.4464 
   6   1.0000     -27.688225      -753.4349 
   7   1.0000     -27.688060      -753.4304 
   8   1.0000     -20.551125      -559.2246 
   9   1.0000     -11.377712      -309.6033 
  10   1.0000     -11.371365      -309.4306 
  11   1.0000     -11.298237      -307.4407 
  12   1.0000     -11.285217      -307.0864 
  13   1.0000     -11.273838      -306.7767 
  14   1.0000     -11.251855      -306.1785 
  15   1.0000     -11.251693      -306.1741 
  16   1.0000     -11.242874      -305.9342 
  17   1.0000     -10.497302      -285.6461 
  18   1.0000     -10.495111      -285.5865 
  19   1.0000     -10.494297      -285.5643 
  20   1.0000      -7.964169      -216.7160 
  21   1.0000      -7.963357      -216.6940 
  22   1.0000      -7.963310      -216.6927 
  23   1.0000      -7.961930      -216.6551 
  24   1.0000      -7.961227      -216.6360 
  25   1.0000      -7.961157      -216.6341 
  26   1.0000      -7.961128      -216.6333 
  27   1.0000      -7.960393      -216.6133 
  28   1.0000      -7.960310      -216.6111 
  29   1.0000      -4.568010      -124.3019 
  30   1.0000      -3.180683       -86.5508 
  31   1.0000      -3.180001       -86.5322 
  32   1.0000      -3.179562       -86.5203 
  33   1.0000      -1.387198       -37.7476 
  34   1.0000      -1.191343       -32.4181 
  35   1.0000      -1.080933       -29.4137 
  36   1.0000      -1.046492       -28.4765 
  37   1.0000      -1.041855       -28.3503 
  38   1.0000      -1.036532       -28.2055 
  39   1.0000      -1.034554       -28.1516 
  40   1.0000      -1.014691       -27.6112 
  41   1.0000      -0.975777       -26.5522 
  42   1.0000      -0.929332       -25.2884 
  43   1.0000      -0.911628       -24.8067 
  44   1.0000      -0.897443       -24.4207 
  45   1.0000      -0.897429       -24.4203 
  46   1.0000      -0.888437       -24.1756 
  47   1.0000      -0.888041       -24.1648 
  48   1.0000      -0.792790       -21.5729 
  49   1.0000      -0.769584       -20.9414 
  50   1.0000      -0.704920       -19.1819 
  51   1.0000      -0.693171       -18.8621 
  52   1.0000      -0.669794       -18.2260 
  53   1.0000      -0.658815       -17.9273 
  54   1.0000      -0.653185       -17.7741 
  55   1.0000      -0.633638       -17.2422 
  56   1.0000      -0.605095       -16.4655 
  57   1.0000      -0.600231       -16.3331 
  58   1.0000      -0.590897       -16.0791 
  59   1.0000      -0.581792       -15.8314 
  60   1.0000      -0.576952       -15.6997 
  61   1.0000      -0.563228       -15.3262 
  62   1.0000      -0.557971       -15.1832 
  63   1.0000      -0.540074       -14.6962 
  64   1.0000      -0.535538       -14.5727 
  65   1.0000      -0.521984       -14.2039 
  66   1.0000      -0.505742       -13.7620 
  67   1.0000      -0.468619       -12.7518 
  68   1.0000      -0.457768       -12.4565 
  69   1.0000      -0.444851       -12.1050 
  70   1.0000      -0.425207       -11.5705 
  71   1.0000      -0.421411       -11.4672 
  72   1.0000      -0.417416       -11.3585 
  73   1.0000      -0.409470       -11.1423 
  74   1.0000      -0.407561       -11.0903 
  75   1.0000      -0.407025       -11.0757 
  76   1.0000      -0.400218       -10.8905 
  77   0.0000       0.003206         0.0872 
  78   0.0000       0.005255         0.1430 
  79   0.0000       0.017806         0.4845 
  80   0.0000       0.018852         0.5130 
  81   0.0000       0.027660         0.7527 
  82   0.0000       0.037824         1.0292 
  83   0.0000       0.038541         1.0488 
  84   0.0000       0.040919         1.1135 
  85   0.0000       0.044002         1.1973 
  86   0.0000       0.048334         1.3152 
  87   0.0000       0.057002         1.5511 
  88   0.0000       0.057991         1.5780 
  89   0.0000       0.060097         1.6353 
  90   0.0000       0.062355         1.6968 
  91   0.0000       0.064834         1.7642 
  92   0.0000       0.072963         1.9854 
  93   0.0000       0.074512         2.0276 
  94   0.0000       0.081816         2.2263 
  95   0.0000       0.085878         2.3369 
  96   0.0000       0.089413         2.4331 
  97   0.0000       0.091834         2.4989 
  98   0.0000       0.093151         2.5348 
  99   0.0000       0.096673         2.6306 
 100   0.0000       0.101685         2.7670 
 101   0.0000       0.104879         2.8539 
 102   0.0000       0.114423         3.1136 
 103   0.0000       0.115415         3.1406 
 104   0.0000       0.120375         3.2756 
 105   0.0000       0.123338         3.3562 
 106   0.0000       0.127606         3.4723 
 107   0.0000       0.131096         3.5673 
 108   0.0000       0.131761         3.5854 
 109   0.0000       0.134883         3.6704 
 110   0.0000       0.139683         3.8010 
 111   0.0000       0.143035         3.8922 
 112   0.0000       0.145480         3.9587 
 113   0.0000       0.150469         4.0945 
 114   0.0000       0.151236         4.1153 
 115   0.0000       0.156022         4.2456 
 116   0.0000       0.157332         4.2812 
 117   0.0000       0.159061         4.3283 
 118   0.0000       0.160802         4.3756 
 119   0.0000       0.162360         4.4180 
 120   0.0000       0.163593         4.4516 
 121   0.0000       0.169511         4.6126 
 122   0.0000       0.175186         4.7670 
 123   0.0000       0.177159         4.8207 
 124   0.0000       0.178177         4.8485 
 125   0.0000       0.183456         4.9921 
 126   0.0000       0.188037         5.1167 
 127   0.0000       0.190006         5.1703 
 128   0.0000       0.195051         5.3076 
 129   0.0000       0.202572         5.5123 
 130   0.0000       0.203128         5.5274 
 131   0.0000       0.207672         5.6510 
 132   0.0000       0.213093         5.7985 
 133   0.0000       0.215822         5.8728 
 134   0.0000       0.216560         5.8929 
 135   0.0000       0.219778         5.9805 
 136   0.0000       0.220590         6.0026 
 137   0.0000       0.224942         6.1210 
 138   0.0000       0.227426         6.1886 
 139   0.0000       0.227870         6.2007 
 140   0.0000       0.233194         6.3455 
 141   0.0000       0.238113         6.4794 
 142   0.0000       0.239932         6.5289 
 143   0.0000       0.243113         6.6154 
 144   0.0000       0.246489         6.7073 
 145   0.0000       0.252135         6.8609 
 146   0.0000       0.253667         6.9026 
 147   0.0000       0.255310         6.9473 
 148   0.0000       0.261356         7.1119 
 149   0.0000       0.264971         7.2102 
 150   0.0000       0.267678         7.2839 
 151   0.0000       0.275931         7.5085 
 152   0.0000       0.280029         7.6200 
 153   0.0000       0.282981         7.7003 
 154   0.0000       0.284723         7.7477 
 155   0.0000       0.290658         7.9092 
 156   0.0000       0.294229         8.0064 
 157   0.0000       0.297801         8.1036 
 158   0.0000       0.300390         8.1740 
 159   0.0000       0.303043         8.2462 
 160   0.0000       0.308328         8.3900 
 161   0.0000       0.311002         8.4628 
 162   0.0000       0.314307         8.5527 
 163   0.0000       0.320877         8.7315 
 164   0.0000       0.323637         8.8066 
 165   0.0000       0.328113         8.9284 
 166   0.0000       0.331986         9.0338 
 167   0.0000       0.334655         9.1064 
 168   0.0000       0.334921         9.1137 
 169   0.0000       0.339939         9.2502 
 170   0.0000       0.343681         9.3520 
 171   0.0000       0.349034         9.4977 
 172   0.0000       0.351104         9.5540 
 173   0.0000       0.355212         9.6658 
 174   0.0000       0.358492         9.7551 
 175   0.0000       0.360766         9.8169 
 176   0.0000       0.363949         9.9035 
 177   0.0000       0.367807        10.0085 
 178   0.0000       0.370974        10.0947 
 179   0.0000       0.375609        10.2208 
 180   0.0000       0.379859        10.3365 
 181   0.0000       0.382254        10.4017 
 182   0.0000       0.384135        10.4528 
 183   0.0000       0.389025        10.5859 
 184   0.0000       0.392390        10.6775 
 185   0.0000       0.393869        10.7177 
 186   0.0000       0.396251        10.7825 
 187   0.0000       0.402332        10.9480 
 188   0.0000       0.404683        11.0120 
 189   0.0000       0.406539        11.0625 
 190   0.0000       0.410577        11.1724 
 191   0.0000       0.411811        11.2060 
 192   0.0000       0.417443        11.3592 
 193   0.0000       0.421895        11.4804 
 194   0.0000       0.428314        11.6550 
 195   0.0000       0.432734        11.7753 
 196   0.0000       0.433247        11.7892 
 197   0.0000       0.434900        11.8342 
 198   0.0000       0.439070        11.9477 
 199   0.0000       0.447687        12.1822 
 200   0.0000       0.448131        12.1943 
 201   0.0000       0.449593        12.2341 
 202   0.0000       0.453207        12.3324 
 203   0.0000       0.456698        12.4274 
 204   0.0000       0.463364        12.6088 
 205   0.0000       0.465977        12.6799 
 206   0.0000       0.469703        12.7813 
 207   0.0000       0.473134        12.8746 
 208   0.0000       0.476093        12.9551 
 209   0.0000       0.480594        13.0776 
 210   0.0000       0.481085        13.0910 
 211   0.0000       0.488722        13.2988 
 212   0.0000       0.490837        13.3564 
 213   0.0000       0.491951        13.3867 
 214   0.0000       0.493792        13.4368 
 215   0.0000       0.498951        13.5771 
 216   0.0000       0.501487        13.6462 
 217   0.0000       0.504075        13.7166 
 218   0.0000       0.506673        13.7873 
 219   0.0000       0.513095        13.9620 
 220   0.0000       0.513562        13.9747 
 221   0.0000       0.518914        14.1204 
 222   0.0000       0.521191        14.1823 
 223   0.0000       0.526915        14.3381 
 224   0.0000       0.527734        14.3604 
 225   0.0000       0.531206        14.4549 
 226   0.0000       0.534912        14.5557 
 227   0.0000       0.535735        14.5781 
 228   0.0000       0.538855        14.6630 
 229   0.0000       0.542374        14.7587 
 230   0.0000       0.545844        14.8532 
 231   0.0000       0.547069        14.8865 
 232   0.0000       0.552224        15.0268 
 233   0.0000       0.553424        15.0594 
 234   0.0000       0.560227        15.2446 
 235   0.0000       0.564744        15.3675 
 236   0.0000       0.571169        15.5423 
 237   0.0000       0.573134        15.5958 
 238   0.0000       0.574486        15.6326 
 239   0.0000       0.578899        15.7526 
 240   0.0000       0.582192        15.8423 
 241   0.0000       0.585754        15.9392 
 242   0.0000       0.589443        16.0396 
 243   0.0000       0.590817        16.0769 
 244   0.0000       0.598161        16.2768 
 245   0.0000       0.601362        16.3639 
 246   0.0000       0.605988        16.4898 
 247   0.0000       0.610926        16.6241 
 248   0.0000       0.613348        16.6901 
 249   0.0000       0.617176        16.7942 
 250   0.0000       0.621206        16.9039 
 251   0.0000       0.623661        16.9707 
 252   0.0000       0.626536        17.0489 
 253   0.0000       0.628942        17.1144 
 254   0.0000       0.629541        17.1307 
 255   0.0000       0.637848        17.3567 
 256   0.0000       0.645609        17.5679 
 257   0.0000       0.650626        17.7044 
 258   0.0000       0.654104        17.7991 
 259   0.0000       0.658840        17.9280 
 260   0.0000       0.661654        18.0045 
 261   0.0000       0.666674        18.1411 
 262   0.0000       0.674286        18.3483 
 263   0.0000       0.676794        18.4165 
 264   0.0000       0.677601        18.4385 
 265   0.0000       0.682283        18.5659 
 266   0.0000       0.688225        18.7276 
 267   0.0000       0.693599        18.8738 
 268   0.0000       0.695927        18.9371 
 269   0.0000       0.702492        19.1158 
 270   0.0000       0.704964        19.1831 
 271   0.0000       0.706135        19.2149 
 272   0.0000       0.710418        19.3315 
 273   0.0000       0.716856        19.5067 
 274   0.0000       0.719559        19.5802 
 275   0.0000       0.721783        19.6407 
 276   0.0000       0.727698        19.8017 
 277   0.0000       0.731112        19.8946 
 278   0.0000       0.738218        20.0879 
 279   0.0000       0.739850        20.1324 
 280   0.0000       0.751772        20.4568 
 281   0.0000       0.755840        20.5675 
 282   0.0000       0.760174        20.6854 
 283   0.0000       0.762567        20.7505 
 284   0.0000       0.765131        20.8203 
 285   0.0000       0.779546        21.2125 
 286   0.0000       0.783718        21.3260 
 287   0.0000       0.790767        21.5179 
 288   0.0000       0.793855        21.6019 
 289   0.0000       0.797583        21.7033 
 290   0.0000       0.802749        21.8439 
 291   0.0000       0.814868        22.1737 
 292   0.0000       0.819937        22.3116 
 293   0.0000       0.822466        22.3804 
 294   0.0000       0.833593        22.6832 
 295   0.0000       0.836674        22.7671 
 296   0.0000       0.839558        22.8455 
 297   0.0000       0.847175        23.0528 
 298   0.0000       0.851378        23.1672 
 299   0.0000       0.855750        23.2861 
 300   0.0000       0.858682        23.3659 
 301   0.0000       0.865221        23.5439 
 302   0.0000       0.866380        23.5754 
 303   0.0000       0.870023        23.6745 
 304   0.0000       0.874991        23.8097 
 305   0.0000       0.879547        23.9337 
 306   0.0000       0.884430        24.0666 
 307   0.0000       0.887811        24.1586 
 308   0.0000       0.897767        24.4295 
 309   0.0000       0.901670        24.5357 
 310   0.0000       0.906766        24.6743 
 311   0.0000       0.911213        24.7954 
 312   0.0000       0.912331        24.8258 
 313   0.0000       0.915473        24.9113 
 314   0.0000       0.923793        25.1377 
 315   0.0000       0.927080        25.2271 
 316   0.0000       0.934398        25.4263 
 317   0.0000       0.937123        25.5004 
 318   0.0000       0.940214        25.5845 
 319   0.0000       0.945210        25.7205 
 320   0.0000       0.949271        25.8310 
 321   0.0000       0.950916        25.8757 
 322   0.0000       0.956830        26.0367 
 323   0.0000       0.958730        26.0884 
 324   0.0000       0.959926        26.1209 
 325   0.0000       0.965406        26.2700 
 326   0.0000       0.970369        26.4051 
 327   0.0000       0.977134        26.5892 
 328   0.0000       0.979778        26.6611 
 329   0.0000       0.983896        26.7732 
 330   0.0000       0.987281        26.8653 
 331   0.0000       0.989564        26.9274 
 332   0.0000       0.992367        27.0037 
 333   0.0000       0.993068        27.0227 
 334   0.0000       0.998952        27.1829 
 335   0.0000       1.002356        27.2755 
 336   0.0000       1.008503        27.4428 
 337   0.0000       1.011731        27.5306 
 338   0.0000       1.012165        27.5424 
 339   0.0000       1.017244        27.6806 
 340   0.0000       1.022369        27.8201 
 341   0.0000       1.024230        27.8707 
 342   0.0000       1.027469        27.9588 
 343   0.0000       1.031230        28.0612 
 344   0.0000       1.034981        28.1633 
 345   0.0000       1.042596        28.3705 
 346   0.0000       1.045214        28.4417 
 347   0.0000       1.047282        28.4980 
 348   0.0000       1.049508        28.5586 
 349   0.0000       1.054037        28.6818 
 350   0.0000       1.056703        28.7544 
 351   0.0000       1.061266        28.8785 
 352   0.0000       1.065204        28.9857 
 353   0.0000       1.067312        29.0430 
 354   0.0000       1.068707        29.0810 
 355   0.0000       1.075394        29.2629 
 356   0.0000       1.081322        29.4243 
 357   0.0000       1.084455        29.5095 
 358   0.0000       1.087239        29.5853 
 359   0.0000       1.093595        29.7582 
 360   0.0000       1.095552        29.8115 
 361   0.0000       1.100372        29.9427 
 362   0.0000       1.101844        29.9827 
 363   0.0000       1.103220        30.0201 
 364   0.0000       1.110505        30.2184 
 365   0.0000       1.115980        30.3674 
 366   0.0000       1.116788        30.3893 
 367   0.0000       1.128814        30.7166 
 368   0.0000       1.130518        30.7630 
 369   0.0000       1.133306        30.8388 
 370   0.0000       1.134814        30.8798 
 371   0.0000       1.140952        31.0469 
 372   0.0000       1.143961        31.1288 
 373   0.0000       1.149612        31.2825 
 374   0.0000       1.153790        31.3962 
 375   0.0000       1.157918        31.5085 
 376   0.0000       1.166091        31.7309 
 377   0.0000       1.170791        31.8588 
 378   0.0000       1.173778        31.9401 
 379   0.0000       1.178163        32.0594 
 380   0.0000       1.182153        32.1680 
 381   0.0000       1.185537        32.2601 
 382   0.0000       1.190968        32.4079 
 383   0.0000       1.198401        32.6101 
 384   0.0000       1.199767        32.6473 
 385   0.0000       1.205864        32.8132 
 386   0.0000       1.210473        32.9386 
 387   0.0000       1.212853        33.0034 
 388   0.0000       1.216523        33.1033 
 389   0.0000       1.221891        33.2494 
 390   0.0000       1.226664        33.3792 
 391   0.0000       1.230928        33.4952 
 392   0.0000       1.235034        33.6070 
 393   0.0000       1.240960        33.7682 
 394   0.0000       1.248409        33.9709 
 395   0.0000       1.255061        34.1519 
 396   0.0000       1.261877        34.3374 
 397   0.0000       1.262574        34.3564 
 398   0.0000       1.265739        34.4425 
 399   0.0000       1.270894        34.5828 
 400   0.0000       1.278400        34.7870 
 401   0.0000       1.287958        35.0471 
 402   0.0000       1.291762        35.1506 
 403   0.0000       1.293990        35.2113 
 404   0.0000       1.297134        35.2968 
 405   0.0000       1.300759        35.3954 
 406   0.0000       1.308328        35.6014 
 407   0.0000       1.311486        35.6874 
 408   0.0000       1.314332        35.7648 
 409   0.0000       1.317733        35.8573 
 410   0.0000       1.325191        36.0603 
 411   0.0000       1.327397        36.1203 
 412   0.0000       1.330311        36.1996 
 413   0.0000       1.345520        36.6135 
 414   0.0000       1.350997        36.7625 
 415   0.0000       1.353858        36.8403 
 416   0.0000       1.359753        37.0008 
 417   0.0000       1.364829        37.1389 
 418   0.0000       1.368915        37.2501 
 419   0.0000       1.373475        37.3742 
 420   0.0000       1.378897        37.5217 
 421   0.0000       1.381435        37.5908 
 422   0.0000       1.390274        37.8313 
 423   0.0000       1.395357        37.9696 
 424   0.0000       1.396588        38.0031 
 425   0.0000       1.406587        38.2752 
 426   0.0000       1.415650        38.5218 
 427   0.0000       1.420243        38.6468 
 428   0.0000       1.429133        38.8887 
 429   0.0000       1.436645        39.0931 
 430   0.0000       1.440089        39.1868 
 431   0.0000       1.446566        39.3631 
 432   0.0000       1.448567        39.4175 
 433   0.0000       1.453870        39.5618 
 434   0.0000       1.457474        39.6599 
 435   0.0000       1.459851        39.7246 
 436   0.0000       1.463504        39.8240 
 437   0.0000       1.467328        39.9280 
 438   0.0000       1.471393        40.0386 
 439   0.0000       1.479054        40.2471 
 440   0.0000       1.480582        40.2887 
 441   0.0000       1.487032        40.4642 
 442   0.0000       1.492624        40.6164 
 443   0.0000       1.499665        40.8080 
 444   0.0000       1.504229        40.9322 
 445   0.0000       1.511988        41.1433 
 446   0.0000       1.515786        41.2466 
 447   0.0000       1.520580        41.3771 
 448   0.0000       1.523938        41.4685 
 449   0.0000       1.534868        41.7659 
 450   0.0000       1.540357        41.9152 
 451   0.0000       1.543722        42.0068 
 452   0.0000       1.547786        42.1174 
 453   0.0000       1.554537        42.3011 
 454   0.0000       1.557136        42.3718 
 455   0.0000       1.566473        42.6259 
 456   0.0000       1.567169        42.6448 
 457   0.0000       1.575091        42.8604 
 458   0.0000       1.580255        43.0009 
 459   0.0000       1.586355        43.1669 
 460   0.0000       1.588438        43.2236 
 461   0.0000       1.592788        43.3420 
 462   0.0000       1.601463        43.5780 
 463   0.0000       1.602444        43.6047 
 464   0.0000       1.605347        43.6837 
 465   0.0000       1.616244        43.9802 
 466   0.0000       1.618119        44.0312 
 467   0.0000       1.625404        44.2295 
 468   0.0000       1.633342        44.4455 
 469   0.0000       1.638325        44.5811 
 470   0.0000       1.641378        44.6642 
 471   0.0000       1.642971        44.7075 
 472   0.0000       1.654633        45.0249 
 473   0.0000       1.656224        45.0681 
 474   0.0000       1.667988        45.3883 
 475   0.0000       1.669529        45.4302 
 476   0.0000       1.677338        45.6427 
 477   0.0000       1.685102        45.8540 
 478   0.0000       1.687784        45.9269 
 479   0.0000       1.689926        45.9852 
 480   0.0000       1.695576        46.1390 
 481   0.0000       1.697323        46.1865 
 482   0.0000       1.698776        46.2261 
 483   0.0000       1.701655        46.3044 
 484   0.0000       1.709110        46.5072 
 485   0.0000       1.716136        46.6984 
 486   0.0000       1.721042        46.8319 
 487   0.0000       1.729910        47.0733 
 488   0.0000       1.733187        47.1624 
 489   0.0000       1.734104        47.1874 
 490   0.0000       1.745230        47.4901 
 491   0.0000       1.755532        47.7705 
 492   0.0000       1.758786        47.8590 
 493   0.0000       1.761946        47.9450 
 494   0.0000       1.763818        47.9959 
 495   0.0000       1.780129        48.4398 
 496   0.0000       1.781077        48.4656 
 497   0.0000       1.793039        48.7911 
 498   0.0000       1.795036        48.8454 
 499   0.0000       1.799781        48.9745 
 500   0.0000       1.805130        49.1201 
 501   0.0000       1.810739        49.2727 
 502   0.0000       1.818735        49.4903 
 503   0.0000       1.820300        49.5329 
 504   0.0000       1.825721        49.6804 
 505   0.0000       1.832447        49.8634 
 506   0.0000       1.837495        50.0008 
 507   0.0000       1.841588        50.1121 
 508   0.0000       1.847947        50.2852 
 509   0.0000       1.848708        50.3059 
 510   0.0000       1.857839        50.5544 
 511   0.0000       1.858571        50.5743 
 512   0.0000       1.863998        50.7220 
 513   0.0000       1.870711        50.9046 
 514   0.0000       1.874193        50.9994 
 515   0.0000       1.878563        51.1183 
 516   0.0000       1.882809        51.2338 
 517   0.0000       1.888702        51.3942 
 518   0.0000       1.894190        51.5435 
 519   0.0000       1.896954        51.6188 
 520   0.0000       1.903339        51.7925 
 521   0.0000       1.910080        51.9759 
 522   0.0000       1.912385        52.0386 
 523   0.0000       1.918895        52.2158 
 524   0.0000       1.928974        52.4901 
 525   0.0000       1.932493        52.5858 
 526   0.0000       1.935905        52.6786 
 527   0.0000       1.938234        52.7420 
 528   0.0000       1.949602        53.0514 
 529   0.0000       1.954177        53.1759 
 530   0.0000       1.958761        53.3006 
 531   0.0000       1.967753        53.5453 
 532   0.0000       1.972646        53.6784 
 533   0.0000       1.975638        53.7598 
 534   0.0000       1.978212        53.8299 
 535   0.0000       1.981592        53.9219 
 536   0.0000       1.992455        54.2175 
 537   0.0000       1.998472        54.3812 
 538   0.0000       2.005013        54.5592 
 539   0.0000       2.019360        54.9496 
 540   0.0000       2.019526        54.9541 
 541   0.0000       2.022690        55.0402 
 542   0.0000       2.028525        55.1990 
 543   0.0000       2.044714        55.6395 
 544   0.0000       2.054741        55.9123 
 545   0.0000       2.057063        55.9755 
 546   0.0000       2.062717        56.1294 
 547   0.0000       2.063471        56.1499 
 548   0.0000       2.068957        56.2992 
 549   0.0000       2.071298        56.3629 
 550   0.0000       2.085424        56.7473 
 551   0.0000       2.089996        56.8717 
 552   0.0000       2.094264        56.9878 
 553   0.0000       2.105120        57.2832 
 554   0.0000       2.110890        57.4402 
 555   0.0000       2.121098        57.7180 
 556   0.0000       2.128040        57.9069 
 557   0.0000       2.138241        58.1845 
 558   0.0000       2.144752        58.3617 
 559   0.0000       2.149906        58.5019 
 560   0.0000       2.155740        58.6607 
 561   0.0000       2.163013        58.8586 
 562   0.0000       2.169818        59.0438 
 563   0.0000       2.172501        59.1168 
 564   0.0000       2.184969        59.4560 
 565   0.0000       2.190590        59.6090 
 566   0.0000       2.201348        59.9017 
 567   0.0000       2.206571        60.0438 
 568   0.0000       2.212726        60.2113 
 569   0.0000       2.219070        60.3840 
 570   0.0000       2.228455        60.6394 
 571   0.0000       2.233598        60.7793 
 572   0.0000       2.233931        60.7884 
 573   0.0000       2.244519        61.0765 
 574   0.0000       2.250171        61.2303 
 575   0.0000       2.254912        61.3593 
 576   0.0000       2.267482        61.7013 
 577   0.0000       2.272369        61.8343 
 578   0.0000       2.278352        61.9971 
 579   0.0000       2.292849        62.3916 
 580   0.0000       2.298389        62.5423 
 581   0.0000       2.303577        62.6835 
 582   0.0000       2.307605        62.7931 
 583   0.0000       2.315614        63.0111 
 584   0.0000       2.323128        63.2155 
 585   0.0000       2.330326        63.4114 
 586   0.0000       2.338265        63.6274 
 587   0.0000       2.340371        63.6847 
 588   0.0000       2.345767        63.8316 
 589   0.0000       2.354245        64.0623 
 590   0.0000       2.363285        64.3083 
 591   0.0000       2.377936        64.7069 
 592   0.0000       2.384997        64.8991 
 593   0.0000       2.393365        65.1268 
 594   0.0000       2.399700        65.2992 
 595   0.0000       2.411794        65.6282 
 596   0.0000       2.413757        65.6817 
 597   0.0000       2.427270        66.0494 
 598   0.0000       2.431536        66.1655 
 599   0.0000       2.435727        66.2795 
 600   0.0000       2.444187        66.5097 
 601   0.0000       2.463483        67.0348 
 602   0.0000       2.467605        67.1470 
 603   0.0000       2.477501        67.4162 
 604   0.0000       2.481056        67.5130 
 605   0.0000       2.498331        67.9830 
 606   0.0000       2.509203        68.2789 
 607   0.0000       2.521170        68.6045 
 608   0.0000       2.532984        68.9260 
 609   0.0000       2.538690        69.0813 
 610   0.0000       2.564095        69.7726 
 611   0.0000       2.574978        70.0687 
 612   0.0000       2.592832        70.5546 
 613   0.0000       2.604135        70.8621 
 614   0.0000       2.610664        71.0398 
 615   0.0000       2.625713        71.4493 
 616   0.0000       2.630845        71.5889 
 617   0.0000       2.645290        71.9820 
 618   0.0000       2.655170        72.2509 
 619   0.0000       2.658391        72.3385 
 620   0.0000       2.666585        72.5615 
 621   0.0000       2.679861        72.9227 
 622   0.0000       2.685330        73.0715 
 623   0.0000       2.693700        73.2993 
 624   0.0000       2.700472        73.4836 
 625   0.0000       2.709917        73.7406 
 626   0.0000       2.710489        73.7562 
 627   0.0000       2.723086        74.0989 
 628   0.0000       2.733850        74.3919 
 629   0.0000       2.735606        74.4396 
 630   0.0000       2.742046        74.6149 
 631   0.0000       2.747929        74.7749 
 632   0.0000       2.754924        74.9653 
 633   0.0000       2.762320        75.1665 
 634   0.0000       2.782912        75.7269 
 635   0.0000       2.788055        75.8668 
 636   0.0000       2.793834        76.0241 
 637   0.0000       2.814445        76.5850 
 638   0.0000       2.838631        77.2431 
 639   0.0000       2.847725        77.4905 
 640   0.0000       2.860231        77.8308 
 641   0.0000       2.881143        78.3999 
 642   0.0000       2.890552        78.6559 
 643   0.0000       2.895932        78.8023 
 644   0.0000       2.901810        78.9623 
 645   0.0000       2.927348        79.6572 
 646   0.0000       2.933157        79.8153 
 647   0.0000       2.942460        80.0684 
 648   0.0000       2.962228        80.6063 
 649   0.0000       2.968718        80.7829 
 650   0.0000       2.984783        81.2201 
 651   0.0000       2.991695        81.4082 
 652   0.0000       3.001172        81.6661 
 653   0.0000       3.027969        82.3952 
 654   0.0000       3.036414        82.6250 
 655   0.0000       3.050358        83.0045 
 656   0.0000       3.076899        83.7267 
 657   0.0000       3.091468        84.1231 
 658   0.0000       3.100109        84.3583 
 659   0.0000       3.102254        84.4166 
 660   0.0000       3.130500        85.1852 
 661   0.0000       3.145176        85.5846 
 662   0.0000       3.159074        85.9628 
 663   0.0000       3.169239        86.2394 
 664   0.0000       3.175414        86.4074 
 665   0.0000       3.191478        86.8445 
 666   0.0000       3.203769        87.1790 
 667   0.0000       3.206587        87.2557 
 668   0.0000       3.229222        87.8716 
 669   0.0000       3.236890        88.0803 
 670   0.0000       3.238486        88.1237 
 671   0.0000       3.250315        88.4456 
 672   0.0000       3.259413        88.6931 
 673   0.0000       3.263739        88.8108 
 674   0.0000       3.276496        89.1580 
 675   0.0000       3.284007        89.3624 
 676   0.0000       3.298715        89.7626 
 677   0.0000       3.308801        90.0371 
 678   0.0000       3.312790        90.1456 
 679   0.0000       3.326928        90.5303 
 680   0.0000       3.335176        90.7547 
 681   0.0000       3.339147        90.8628 
 682   0.0000       3.344624        91.0118 
 683   0.0000       3.358280        91.3834 
 684   0.0000       3.363928        91.5371 
 685   0.0000       3.372913        91.7816 
 686   0.0000       3.375735        91.8584 
 687   0.0000       3.402189        92.5783 
 688   0.0000       3.407216        92.7151 
 689   0.0000       3.410644        92.8084 
 690   0.0000       3.414737        92.9197 
 691   0.0000       3.434376        93.4541 
 692   0.0000       3.437981        93.5522 
 693   0.0000       3.445138        93.7470 
 694   0.0000       3.457660        94.0877 
 695   0.0000       3.468556        94.3842 
 696   0.0000       3.481072        94.7248 
 697   0.0000       3.484380        94.8148 
 698   0.0000       3.492783        95.0435 
 699   0.0000       3.499304        95.2209 
 700   0.0000       3.505289        95.3838 
 701   0.0000       3.509400        95.4956 
 702   0.0000       3.520866        95.8076 
 703   0.0000       3.523829        95.8883 
 704   0.0000       3.533424        96.1493 
 705   0.0000       3.543647        96.4275 
 706   0.0000       3.553468        96.6948 
 707   0.0000       3.561002        96.8998 
 708   0.0000       3.569557        97.1326 
 709   0.0000       3.584853        97.5488 
 710   0.0000       3.591321        97.7248 
 711   0.0000       3.598004        97.9067 
 712   0.0000       3.604706        98.0890 
 713   0.0000       3.617667        98.4417 
 714   0.0000       3.621169        98.5370 
 715   0.0000       3.632280        98.8394 
 716   0.0000       3.645907        99.2102 
 717   0.0000       3.652350        99.3855 
 718   0.0000       3.661853        99.6441 
 719   0.0000       3.669833        99.8612 
 720   0.0000       3.680427       100.1495 
 721   0.0000       3.684334       100.2558 
 722   0.0000       3.690140       100.4138 
 723   0.0000       3.703988       100.7906 
 724   0.0000       3.709976       100.9536 
 725   0.0000       3.718332       101.1810 
 726   0.0000       3.726314       101.3982 
 727   0.0000       3.732910       101.5776 
 728   0.0000       3.749330       102.0245 
 729   0.0000       3.752191       102.1023 
 730   0.0000       3.761733       102.3619 
 731   0.0000       3.770111       102.5899 
 732   0.0000       3.777894       102.8017 
 733   0.0000       3.779273       102.8393 
 734   0.0000       3.787367       103.0595 
 735   0.0000       3.794630       103.2571 
 736   0.0000       3.795924       103.2923 
 737   0.0000       3.807368       103.6037 
 738   0.0000       3.813088       103.7594 
 739   0.0000       3.821073       103.9767 
 740   0.0000       3.825952       104.1094 
 741   0.0000       3.830437       104.2315 
 742   0.0000       3.837430       104.4218 
 743   0.0000       3.846939       104.6805 
 744   0.0000       3.860248       105.0427 
 745   0.0000       3.862640       105.1078 
 746   0.0000       3.870844       105.3310 
 747   0.0000       3.880251       105.5870 
 748   0.0000       3.890343       105.8616 
 749   0.0000       3.896807       106.0375 
 750   0.0000       3.899352       106.1068 
 751   0.0000       3.903795       106.2276 
 752   0.0000       3.919936       106.6669 
 753   0.0000       3.923903       106.7748 
 754   0.0000       3.929504       106.9272 
 755   0.0000       3.936223       107.1101 
 756   0.0000       3.945490       107.3623 
 757   0.0000       3.949663       107.4758 
 758   0.0000       3.954068       107.5956 
 759   0.0000       3.964847       107.8890 
 760   0.0000       3.975888       108.1894 
 761   0.0000       3.980686       108.3200 
 762   0.0000       3.985880       108.4613 
 763   0.0000       3.996082       108.7389 
 764   0.0000       4.001406       108.8838 
 765   0.0000       4.005908       109.0063 
 766   0.0000       4.023189       109.4765 
 767   0.0000       4.024770       109.5196 
 768   0.0000       4.026956       109.5791 
 769   0.0000       4.033734       109.7635 
 770   0.0000       4.041748       109.9816 
 771   0.0000       4.051324       110.2421 
 772   0.0000       4.062757       110.5533 
 773   0.0000       4.063561       110.5751 
 774   0.0000       4.081455       111.0620 
 775   0.0000       4.083573       111.1197 
 776   0.0000       4.089876       111.2912 
 777   0.0000       4.094873       111.4272 
 778   0.0000       4.101930       111.6192 
 779   0.0000       4.108230       111.7906 
 780   0.0000       4.113818       111.9427 
 781   0.0000       4.124614       112.2365 
 782   0.0000       4.126814       112.2963 
 783   0.0000       4.148823       112.8952 
 784   0.0000       4.152398       112.9925 
 785   0.0000       4.160420       113.2108 
 786   0.0000       4.164995       113.3353 
 787   0.0000       4.181804       113.7927 
 788   0.0000       4.189213       113.9943 
 789   0.0000       4.196423       114.1905 
 790   0.0000       4.197992       114.2332 
 791   0.0000       4.212464       114.6270 
 792   0.0000       4.221881       114.8832 
 793   0.0000       4.232766       115.1794 
 794   0.0000       4.238955       115.3478 
 795   0.0000       4.244045       115.4863 
 796   0.0000       4.256281       115.8193 
 797   0.0000       4.262993       116.0019 
 798   0.0000       4.265121       116.0598 
 799   0.0000       4.277692       116.4019 
 800   0.0000       4.291135       116.7677 
 801   0.0000       4.305952       117.1709 
 802   0.0000       4.306307       117.1806 
 803   0.0000       4.311849       117.3314 
 804   0.0000       4.334927       117.9594 
 805   0.0000       4.339760       118.0909 
 806   0.0000       4.345565       118.2488 
 807   0.0000       4.349593       118.3584 
 808   0.0000       4.353135       118.4548 
 809   0.0000       4.370464       118.9264 
 810   0.0000       4.378308       119.1398 
 811   0.0000       4.379116       119.1618 
 812   0.0000       4.401705       119.7765 
 813   0.0000       4.405923       119.8913 
 814   0.0000       4.428327       120.5009 
 815   0.0000       4.436025       120.7104 
 816   0.0000       4.445571       120.9701 
 817   0.0000       4.451244       121.1245 
 818   0.0000       4.456055       121.2554 
 819   0.0000       4.458645       121.3259 
 820   0.0000       4.464210       121.4773 
 821   0.0000       4.480056       121.9085 
 822   0.0000       4.492382       122.2439 
 823   0.0000       4.507615       122.6585 
 824   0.0000       4.509331       122.7051 
 825   0.0000       4.522286       123.0577 
 826   0.0000       4.526198       123.1641 
 827   0.0000       4.545464       123.6884 
 828   0.0000       4.551629       123.8561 
 829   0.0000       4.556384       123.9855 
 830   0.0000       4.572475       124.4234 
 831   0.0000       4.585507       124.7780 
 832   0.0000       4.595003       125.0364 
 833   0.0000       4.600543       125.1871 
 834   0.0000       4.614539       125.5680 
 835   0.0000       4.630474       126.0016 
 836   0.0000       4.637052       126.1806 
 837   0.0000       4.661059       126.8339 
 838   0.0000       4.666450       126.9806 
 839   0.0000       4.670523       127.0914 
 840   0.0000       4.693609       127.7196 
 841   0.0000       4.701185       127.9257 
 842   0.0000       4.708722       128.1308 
 843   0.0000       4.716889       128.3531 
 844   0.0000       4.740838       129.0047 
 845   0.0000       4.744835       129.1135 
 846   0.0000       4.751575       129.2969 
 847   0.0000       4.767341       129.7259 
 848   0.0000       4.772828       129.8753 
 849   0.0000       4.779816       130.0654 
 850   0.0000       4.791158       130.3740 
 851   0.0000       4.797663       130.5510 
 852   0.0000       4.804886       130.7476 
 853   0.0000       4.816812       131.0721 
 854   0.0000       4.836414       131.6055 
 855   0.0000       4.845115       131.8423 
 856   0.0000       4.854386       132.0946 
 857   0.0000       4.871123       132.5500 
 858   0.0000       4.880427       132.8032 
 859   0.0000       4.886504       132.9685 
 860   0.0000       4.905604       133.4883 
 861   0.0000       4.917286       133.8062 
 862   0.0000       4.926741       134.0634 
 863   0.0000       4.938911       134.3946 
 864   0.0000       4.954272       134.8126 
 865   0.0000       4.962628       135.0400 
 866   0.0000       4.968364       135.1961 
 867   0.0000       4.985354       135.6584 
 868   0.0000       4.989625       135.7746 
 869   0.0000       4.996498       135.9616 
 870   0.0000       5.022012       136.6559 
 871   0.0000       5.023891       136.7070 
 872   0.0000       5.025484       136.7504 
 873   0.0000       5.044218       137.2602 
 874   0.0000       5.051252       137.4515 
 875   0.0000       5.067072       137.8820 
 876   0.0000       5.087005       138.4244 
 877   0.0000       5.092416       138.5717 
 878   0.0000       5.100673       138.7964 
 879   0.0000       5.116797       139.2351 
 880   0.0000       5.129753       139.5877 
 881   0.0000       5.145918       140.0275 
 882   0.0000       5.157435       140.3409 
 883   0.0000       5.179833       140.9504 
 884   0.0000       5.185584       141.1069 
 885   0.0000       5.196922       141.4154 
 886   0.0000       5.208072       141.7188 
 887   0.0000       5.212372       141.8359 
 888   0.0000       5.219478       142.0292 
 889   0.0000       5.235545       142.4664 
 890   0.0000       5.246774       142.7720 
 891   0.0000       5.260053       143.1333 
 892   0.0000       5.278344       143.6310 
 893   0.0000       5.290408       143.9593 
 894   0.0000       5.297885       144.1628 
 895   0.0000       5.317335       144.6920 
 896   0.0000       5.326125       144.9312 
 897   0.0000       5.337077       145.2293 
 898   0.0000       5.347239       145.5058 
 899   0.0000       5.360337       145.8622 
 900   0.0000       5.371640       146.1698 
 901   0.0000       5.385022       146.5339 
 902   0.0000       5.402339       147.0051 
 903   0.0000       5.418649       147.4489 
 904   0.0000       5.432116       147.8154 
 905   0.0000       5.447668       148.2386 
 906   0.0000       5.452838       148.3793 
 907   0.0000       5.473156       148.9321 
 908   0.0000       5.477532       149.0512 
 909   0.0000       5.491493       149.4311 
 910   0.0000       5.499869       149.6590 
 911   0.0000       5.504102       149.7742 
 912   0.0000       5.517473       150.1381 
 913   0.0000       5.533755       150.5811 
 914   0.0000       5.546590       150.9304 
 915   0.0000       5.557695       151.2326 
 916   0.0000       5.572095       151.6244 
 917   0.0000       5.579619       151.8291 
 918   0.0000       5.583774       151.9422 
 919   0.0000       5.585857       151.9989 
 920   0.0000       5.612433       152.7221 
 921   0.0000       5.635786       153.3575 
 922   0.0000       5.646303       153.6437 
 923   0.0000       5.653812       153.8480 
 924   0.0000       5.661552       154.0587 
 925   0.0000       5.672903       154.3675 
 926   0.0000       5.682957       154.6411 
 927   0.0000       5.705845       155.2639 
 928   0.0000       5.709197       155.3552 
 929   0.0000       5.715228       155.5193 
 930   0.0000       5.728954       155.8928 
 931   0.0000       5.743323       156.2838 
 932   0.0000       5.757121       156.6592 
 933   0.0000       5.775956       157.1718 
 934   0.0000       5.784189       157.3958 
 935   0.0000       5.804196       157.9402 
 936   0.0000       5.810074       158.1001 
 937   0.0000       5.814072       158.2089 
 938   0.0000       5.830543       158.6571 
 939   0.0000       5.841718       158.9612 
 940   0.0000       5.848051       159.1336 
 941   0.0000       5.892724       160.3492 
 942   0.0000       5.903864       160.6523 
 943   0.0000       5.936652       161.5445 
 944   0.0000       5.943340       161.7265 
 945   0.0000       5.962137       162.2380 
 946   0.0000       5.987580       162.9303 
 947   0.0000       6.052242       164.6899 
 948   0.0000       6.102969       166.0702 
 949   0.0000       6.121795       166.5825 
 950   0.0000       6.146646       167.2587 
 951   0.0000       6.175502       168.0440 
 952   0.0000       6.187584       168.3727 
 953   0.0000       6.195186       168.5796 
 954   0.0000       6.218207       169.2060 
 955   0.0000       6.236938       169.7157 
 956   0.0000       6.250308       170.0795 
 957   0.0000       6.259149       170.3201 
 958   0.0000       6.267488       170.5470 
 959   0.0000       6.294292       171.2764 
 960   0.0000       6.302414       171.4974 
 961   0.0000       6.309622       171.6935 
 962   0.0000       6.337120       172.4418 
 963   0.0000       6.349521       172.7792 
 964   0.0000       6.366215       173.2335 
 965   0.0000       6.384574       173.7331 
 966   0.0000       6.406229       174.3224 
 967   0.0000       6.431933       175.0218 
 968   0.0000       6.464580       175.9102 
 969   0.0000       6.504126       176.9863 
 970   0.0000       6.548499       178.1937 
 971   0.0000       6.697923       182.2598 
 972   0.0000       6.803538       185.1337 
 973   0.0000       6.858589       186.6317 
 974   0.0000       6.879073       187.1891 
 975   0.0000       6.917134       188.2248 
 976   0.0000       6.923090       188.3868 
 977   0.0000       6.943112       188.9317 
 978   0.0000       6.963443       189.4849 
 979   0.0000       6.994343       190.3257 
 980   0.0000       7.016479       190.9281 
 981   0.0000       7.036079       191.4614 
 982   0.0000       7.067763       192.3236 
 983   0.0000       7.077051       192.5763 
 984   0.0000       7.150389       194.5720 
 985   0.0000       7.229845       196.7341 
 986   0.0000       7.298606       198.6052 
 987   0.0000       7.386058       200.9849 
 988   0.0000       7.395639       201.2456 
 989   0.0000       7.489860       203.8095 
 990   0.0000       7.557680       205.6549 
 991   0.0000       7.611063       207.1076 
 992   0.0000       7.667770       208.6506 
 993   0.0000       7.775305       211.5768 
 994   0.0000       7.796380       212.1503 
 995   0.0000       7.903402       215.0625 
 996   0.0000       8.044813       218.9105 
 997   0.0000       8.140856       221.5240 
 998   0.0000       8.345795       227.1006 
 999   0.0000       9.445471       257.0243 
 1000   0.0000       9.457982       257.3648 
 1001   0.0000       9.471252       257.7259 
 1002   0.0000       9.477718       257.9018 
 1003   0.0000       9.485707       258.1192 
 1004   0.0000       9.518552       259.0130 
 1005   0.0000       9.758617       265.5455 
 1006   0.0000      10.109825       275.1023 
 1007   0.0000      10.125736       275.5353 
 1008   0.0000      10.150302       276.2038 
 1009   0.0000      10.229876       278.3691 
 1010   0.0000      10.235299       278.5167 
 1011   0.0000      10.261561       279.2313 
 1012   0.0000      10.405185       283.1395 
 1013   0.0000      10.432460       283.8817 
 1014   0.0000      10.560624       287.3692 
 1015   0.0000      16.093913       437.9376 
 1016   0.0000      17.481142       475.6861 
 1017   0.0000      18.128612       493.3046 
 1018   0.0000      18.442897       501.8567 
 1019   0.0000      18.705274       508.9964 
 1020   0.0000      19.050702       518.3959 
 1021   0.0000      19.082963       519.2738 
 1022   0.0000      19.558624       532.2172 
 1023   0.0000      20.389749       554.8333 
 1024   0.0000      21.838417       594.2535 

                 SPIN DOWN ORBITALS
  NO   OCC          E(Eh)            E(eV) 
   0   1.0000    -261.541169     -7116.8970 
   1   1.0000    -104.769269     -2850.9168 
   2   1.0000    -104.767122     -2850.8583 
   3   1.0000    -104.766233     -2850.8341 
   4   1.0000     -32.050535      -872.1394 
   5   1.0000     -27.528563      -749.0903 
   6   1.0000     -27.528451      -749.0872 
   7   1.0000     -27.528028      -749.0757 
   8   1.0000     -20.546024      -559.0857 
   9   1.0000     -11.377526      -309.5982 
  10   1.0000     -11.371320      -309.4293 
  11   1.0000     -11.298264      -307.4414 
  12   1.0000     -11.285116      -307.0836 
  13   1.0000     -11.273863      -306.7774 
  14   1.0000     -11.251751      -306.1757 
  15   1.0000     -11.251724      -306.1750 
  16   1.0000     -11.242857      -305.9337 
  17   1.0000     -10.495807      -285.6054 
  18   1.0000     -10.493619      -285.5459 
  19   1.0000     -10.492756      -285.5224 
  20   1.0000      -7.961705      -216.6490 
  21   1.0000      -7.961119      -216.6331 
  22   1.0000      -7.961050      -216.6312 
  23   1.0000      -7.959592      -216.5915 
  24   1.0000      -7.958902      -216.5727 
  25   1.0000      -7.958798      -216.5699 
  26   1.0000      -7.958678      -216.5666 
  27   1.0000      -7.958034      -216.5491 
  28   1.0000      -7.957948      -216.5468 
  29   1.0000      -4.125680      -112.2655 
  30   1.0000      -2.647483       -72.0417 
  31   1.0000      -2.647428       -72.0402 
  32   1.0000      -2.646595       -72.0175 
  33   1.0000      -1.374119       -37.3917 
  34   1.0000      -1.190342       -32.3908 
  35   1.0000      -1.078415       -29.3452 
  36   1.0000      -1.045655       -28.4537 
  37   1.0000      -1.027356       -27.9558 
  38   1.0000      -1.015940       -27.6451 
  39   1.0000      -1.014212       -27.5981 
  40   1.0000      -1.014067       -27.5942 
  41   1.0000      -0.975147       -26.5351 
  42   1.0000      -0.928825       -25.2746 
  43   1.0000      -0.801947       -21.8221 
  44   1.0000      -0.774236       -21.0680 
  45   1.0000      -0.705453       -19.1964 
  46   1.0000      -0.692433       -18.8421 
  47   1.0000      -0.669864       -18.2279 
  48   1.0000      -0.661587       -18.0027 
  49   1.0000      -0.651505       -17.7284 
  50   1.0000      -0.633127       -17.2283 
  51   1.0000      -0.605062       -16.4646 
  52   1.0000      -0.600059       -16.3284 
  53   1.0000      -0.590034       -16.0556 
  54   1.0000      -0.581526       -15.8241 
  55   1.0000      -0.576467       -15.6865 
  56   1.0000      -0.562829       -15.3154 
  57   1.0000      -0.558037       -15.1850 
  58   1.0000      -0.539177       -14.6718 
  59   1.0000      -0.535272       -14.5655 
  60   1.0000      -0.517389       -14.0789 
  61   1.0000      -0.498349       -13.5608 
  62   1.0000      -0.466381       -12.6909 
  63   1.0000      -0.460985       -12.5440 
  64   1.0000      -0.454009       -12.3542 
  65   1.0000      -0.431963       -11.7543 
  66   1.0000      -0.429560       -11.6889 
  67   1.0000      -0.427360       -11.6290 
  68   1.0000      -0.423567       -11.5258 
  69   1.0000      -0.406700       -11.0669 
  70   1.0000      -0.393407       -10.7051 
  71   1.0000      -0.392782       -10.6881 
  72   0.0000       0.003210         0.0874 
  73   0.0000       0.005231         0.1423 
  74   0.0000       0.017803         0.4844 
  75   0.0000       0.018827         0.5123 
  76   0.0000       0.027660         0.7527 
  77   0.0000       0.037805         1.0287 
  78   0.0000       0.038518         1.0481 
  79   0.0000       0.040840         1.1113 
  80   0.0000       0.043945         1.1958 
  81   0.0000       0.048420         1.3176 
  82   0.0000       0.056986         1.5507 
  83   0.0000       0.057902         1.5756 
  84   0.0000       0.060050         1.6340 
  85   0.0000       0.062299         1.6952 
  86   0.0000       0.064804         1.7634 
  87   0.0000       0.072943         1.9849 
  88   0.0000       0.074471         2.0265 
  89   0.0000       0.081830         2.2267 
  90   0.0000       0.085793         2.3345 
  91   0.0000       0.089156         2.4260 
  92   0.0000       0.091795         2.4979 
  93   0.0000       0.093078         2.5328 
  94   0.0000       0.096656         2.6301 
  95   0.0000       0.101601         2.7647 
  96   0.0000       0.104832         2.8526 
  97   0.0000       0.114177         3.1069 
  98   0.0000       0.114982         3.1288 
  99   0.0000       0.120236         3.2718 
 100   0.0000       0.122925         3.3450 
 101   0.0000       0.126273         3.4361 
 102   0.0000       0.129130         3.5138 
 103   0.0000       0.130720         3.5571 
 104   0.0000       0.131044         3.5659 
 105   0.0000       0.132911         3.6167 
 106   0.0000       0.134950         3.6722 
 107   0.0000       0.136472         3.7136 
 108   0.0000       0.139471         3.7952 
 109   0.0000       0.141291         3.8447 
 110   0.0000       0.142727         3.8838 
 111   0.0000       0.146310         3.9813 
 112   0.0000       0.148422         4.0388 
 113   0.0000       0.151910         4.1337 
 114   0.0000       0.153347         4.1728 
 115   0.0000       0.157227         4.2784 
 116   0.0000       0.158148         4.3034 
 117   0.0000       0.160538         4.3685 
 118   0.0000       0.162717         4.4278 
 119   0.0000       0.163663         4.4535 
 120   0.0000       0.164782         4.4840 
 121   0.0000       0.170037         4.6269 
 122   0.0000       0.176040         4.7903 
 123   0.0000       0.177858         4.8398 
 124   0.0000       0.179180         4.8757 
 125   0.0000       0.185024         5.0348 
 126   0.0000       0.189918         5.1679 
 127   0.0000       0.191815         5.2196 
 128   0.0000       0.195868         5.3298 
 129   0.0000       0.203919         5.5489 
 130   0.0000       0.204449         5.5633 
 131   0.0000       0.208929         5.6853 
 132   0.0000       0.217508         5.9187 
 133   0.0000       0.219241         5.9659 
 134   0.0000       0.219855         5.9826 
 135   0.0000       0.220686         6.0052 
 136   0.0000       0.224962         6.1215 
 137   0.0000       0.228198         6.2096 
 138   0.0000       0.229562         6.2467 
 139   0.0000       0.233359         6.3500 
 140   0.0000       0.237232         6.4554 
 141   0.0000       0.240878         6.5546 
 142   0.0000       0.244041         6.6407 
 143   0.0000       0.245098         6.6695 
 144   0.0000       0.249222         6.7817 
 145   0.0000       0.254707         6.9309 
 146   0.0000       0.258163         7.0250 
 147   0.0000       0.262406         7.1404 
 148   0.0000       0.264783         7.2051 
 149   0.0000       0.268678         7.3111 
 150   0.0000       0.275322         7.4919 
 151   0.0000       0.278943         7.5904 
 152   0.0000       0.283478         7.7138 
 153   0.0000       0.287216         7.8155 
 154   0.0000       0.291879         7.9424 
 155   0.0000       0.295029         8.0281 
 156   0.0000       0.296965         8.0808 
 157   0.0000       0.301223         8.1967 
 158   0.0000       0.303570         8.2606 
 159   0.0000       0.312901         8.5145 
 160   0.0000       0.313989         8.5441 
 161   0.0000       0.316986         8.6256 
 162   0.0000       0.318670         8.6715 
 163   0.0000       0.323708         8.8085 
 164   0.0000       0.328652         8.9431 
 165   0.0000       0.330643         8.9973 
 166   0.0000       0.334561         9.1039 
 167   0.0000       0.336061         9.1447 
 168   0.0000       0.341644         9.2966 
 169   0.0000       0.343832         9.3561 
 170   0.0000       0.347924         9.4675 
 171   0.0000       0.350956         9.5500 
 172   0.0000       0.354037         9.6338 
 173   0.0000       0.357014         9.7148 
 174   0.0000       0.361734         9.8433 
 175   0.0000       0.363513         9.8917 
 176   0.0000       0.368699        10.0328 
 177   0.0000       0.369426        10.0526 
 178   0.0000       0.373769        10.1708 
 179   0.0000       0.377858        10.2820 
 180   0.0000       0.383086        10.4243 
 181   0.0000       0.387514        10.5448 
 182   0.0000       0.390759        10.6331 
 183   0.0000       0.391215        10.6455 
 184   0.0000       0.398404        10.8411 
 185   0.0000       0.400462        10.8971 
 186   0.0000       0.402434        10.9508 
 187   0.0000       0.405027        11.0213 
 188   0.0000       0.409265        11.1367 
 189   0.0000       0.411990        11.2108 
 190   0.0000       0.413525        11.2526 
 191   0.0000       0.415568        11.3082 
 192   0.0000       0.419985        11.4284 
 193   0.0000       0.428227        11.6526 
 194   0.0000       0.430958        11.7270 
 195   0.0000       0.434786        11.8311 
 196   0.0000       0.438644        11.9361 
 197   0.0000       0.439668        11.9640 
 198   0.0000       0.443408        12.0657 
 199   0.0000       0.450328        12.2541 
 200   0.0000       0.452242        12.3061 
 201   0.0000       0.454263        12.3611 
 202   0.0000       0.457741        12.4558 
 203   0.0000       0.463167        12.6034 
 204   0.0000       0.465281        12.6609 
 205   0.0000       0.469987        12.7890 
 206   0.0000       0.472477        12.8568 
 207   0.0000       0.477046        12.9811 
 208   0.0000       0.479550        13.0492 
 209   0.0000       0.481872        13.1124 
 210   0.0000       0.486637        13.2421 
 211   0.0000       0.492150        13.3921 
 212   0.0000       0.492780        13.4092 
 213   0.0000       0.497629        13.5412 
 214   0.0000       0.500964        13.6319 
 215   0.0000       0.503878        13.7112 
 216   0.0000       0.505610        13.7584 
 217   0.0000       0.508281        13.8310 
 218   0.0000       0.512874        13.9560 
 219   0.0000       0.513953        13.9854 
 220   0.0000       0.517424        14.0798 
 221   0.0000       0.523557        14.2467 
 222   0.0000       0.527449        14.3526 
 223   0.0000       0.530309        14.4305 
 224   0.0000       0.531964        14.4755 
 225   0.0000       0.533202        14.5092 
 226   0.0000       0.538436        14.6516 
 227   0.0000       0.541352        14.7309 
 228   0.0000       0.541840        14.7442 
 229   0.0000       0.544154        14.8072 
 230   0.0000       0.549551        14.9540 
 231   0.0000       0.550661        14.9843 
 232   0.0000       0.554582        15.0909 
 233   0.0000       0.556855        15.1528 
 234   0.0000       0.562470        15.3056 
 235   0.0000       0.567128        15.4323 
 236   0.0000       0.573779        15.6133 
 237   0.0000       0.575602        15.6629 
 238   0.0000       0.577771        15.7219 
 239   0.0000       0.581641        15.8272 
 240   0.0000       0.584841        15.9143 
 241   0.0000       0.586989        15.9728 
 242   0.0000       0.591101        16.0847 
 243   0.0000       0.593126        16.1398 
 244   0.0000       0.600522        16.3410 
 245   0.0000       0.602176        16.3860 
 246   0.0000       0.607941        16.5429 
 247   0.0000       0.613116        16.6837 
 248   0.0000       0.614065        16.7096 
 249   0.0000       0.618355        16.8263 
 250   0.0000       0.622665        16.9436 
 251   0.0000       0.624825        17.0024 
 252   0.0000       0.627815        17.0837 
 253   0.0000       0.630767        17.1641 
 254   0.0000       0.633263        17.2320 
 255   0.0000       0.640608        17.4318 
 256   0.0000       0.649335        17.6693 
 257   0.0000       0.652486        17.7550 
 258   0.0000       0.656122        17.8540 
 259   0.0000       0.660901        17.9840 
 260   0.0000       0.664468        18.0811 
 261   0.0000       0.669327        18.2133 
 262   0.0000       0.676051        18.3963 
 263   0.0000       0.679080        18.4787 
 264   0.0000       0.682362        18.5680 
 265   0.0000       0.684883        18.6366 
 266   0.0000       0.691375        18.8133 
 267   0.0000       0.696948        18.9649 
 268   0.0000       0.698404        19.0045 
 269   0.0000       0.705561        19.1993 
[...]
  | sigma^2 in % of trace(Dij) retained ...   8.79e+00
  | sigma^2 in % of trace(Dip) retained ...   1.80e+01
  | sigma^2 in % of trace(Dpq) retained ...   1.39e-01
  | Av. % of trace(Di) retained         ...  99.998487690187
  | Av. % of trace(Dp) retained         ...  99.999998580013
  | sigma^2 in % of trace(Di) retained  ...   7.87e-07
  | sigma^2 in % of trace(Dp) retained  ...   1.08e-12
 Distributions of % trace(Dij) recovered:
  |       >= 99.9  ...   105 ( 21.0 % of all IJ-pairs)
  |   [80.0, 90.0) ...    35 (  7.0 % of all IJ-pairs)
  |   [90.0, 99.0) ...   265 ( 53.1 % of all IJ-pairs)
  |   [99.0, 99.9) ...    94 ( 18.8 % of all IJ-pairs)
 Distributions of % trace(Dip) recovered:
  |   [80.0, 90.0) ...    13 ( 11.0 % of all IP-pairs)
  |   [90.0, 99.0) ...    63 ( 53.4 % of all IP-pairs)
  |   [99.0, 99.9) ...    42 ( 35.6 % of all IP-pairs)
 Distributions of % trace(Dpq) recovered:
  |       >= 99.9  ...     5 ( 33.3 % of all PQ-pairs)
  |   [99.0, 99.9) ...    10 ( 66.7 % of all PQ-pairs)
 Distributions of % trace(Di) recovered :
  |       >= 99.9  ...    43 (100.0 % of all I-pairs )
 Distributions of % trace(Dp) recovered :
  |       >= 99.9  ...     5 (100.0 % of all P-pairs )

                       ===========================
                       1098 OF 1653 PAIRS ARE KEPT
                       ===========================

 Initial PAO correlation energy (all pairs)    ...  -2.6974888793 Eh
 Energy constituents in PAO basis (Eh):
  | Vijab(+0) ...  -2.2684494130
  | Viab (-1) ...  -0.1751716546
  | Vab  (-2) ...  -0.0573680917
  | Va   (-1) ...  -0.0000423763
  | Vija (+1) ...  -0.0725563276
  | Vij  (+2) ...  -0.0155031186
  | Via  (+0) ...  -0.1082385506
  | Vi   (+1) ...  -0.0001593470
 Initial PNO correlation energy                ...  -2.6631846550 Eh
 Energy constituents in PNO basis (Eh):
  | Vijab(+0) ...  -2.2500270288 (err=  0.0184223842)
  | Viab (-1) ...  -0.1609170901 (err=  0.0142545644)
  | Vab  (-2) ...  -0.0568972481 (err=  0.0004708436)
  | Va   (-1) ...  -0.0000243877 (err=  0.0000179886)
  | Vija (+1) ...  -0.0715629373 (err=  0.0009933903)
  | Vij  (+2) ...  -0.0154531123 (err=  0.0000500062)
  | Via  (+0) ...  -0.1081438217 (err=  0.0000947289)
  | Vi   (+1) ...  -0.0001590289 (err=  0.0000003180)
 Sum of total truncation errors ...   0.0343042243 Eh
  | Pair screening ...   0.0111791549 Eh
  | PNO truncation ...   0.0231250693 Eh

 UMP2 correlation energy (PAO) ...  -2.6926028896
  | alpha-alpha ...  -0.3876528533 (NP_aa=  896)
  | alpha-beta  ...  -1.9968880477 (NP_ab= 1628)
  | beta -beta  ...  -0.3080619886 (NP_bb=  699)
 UMP2 correlation energy (PNO) ...  -2.6579146647
  | alpha-alpha ...  -0.3756271900 (err=  0.0120256632, NP_aa=  584)
  | alpha-beta  ...  -1.9782042174 (err=  0.0186838303, NP_ab= 1073)
  | beta -beta  ...  -0.3040832573 (err=  0.0039787313, NP_bb=  456)
 Sum of total UMP2 truncation errors ...   0.0346882249 Eh
  | Pair screening ...   0.0111945422 Eh
  | PNO truncation ...   0.0234936827 Eh
 Timing for NEV-PNO construction (sec.)
  | Intermediate construction  ..           45.510
  | Amplitude construction     ..           61.572
  | Total time                 ..          107.083
 Making pair pair interaction lists ...      ok
 Total size for 2-ext PNO integrals ...     11.0 MB
Checking the number of SOMO/SOMO doubles PNOs ... 
 #Truncate: (72, 72)[160] -> [87] .. 
 #Truncate: (73, 73)[160] -> [87] .. 
 #Truncate: (74, 74)[163] -> [87] .. 
 #Truncate: (75, 75)[162] -> [87] .. 
 #Truncate: (76, 76)[164] -> [87] .. 

--------------------------------
LOCAL RI TRANSFORMATION (VABPAO)
--------------------------------

Number of PAOs:    1030
Basis functions:   1025 (343 shells)
Aux. functions:    2424 (644 shells)

Processing maps (0.0 sec)
Average map sizes:
   Aux shells -> PAOs           1030.0
   PAOs       -> AO shells       343.0

Calculating integrals (206.0 sec, 37370.165 MB)
Finished
-----------------------------
LOCAL RI TRANSFORMATION (IJV)
-----------------------------

Orbital window:      29 to 76
Basis functions:   1025 (343 shells)
Aux. functions:    2424 (644 shells)

Processing maps (0.0 sec)
Average map sizes:
   Aux shells -> MOs(i)           45.3
   Aux shells -> MOs(j)           48.0
   MOs        -> AO shells       339.7

Calculating integrals (23.8 sec, 40.366 MB)
Sorting integrals (0.3 sec, 40.339 MB)
Total time for the integral transformation: 24.1 sec


-------------------------------------
Pair Pair Term precalculation with     
RI-(ij|mn) and (im|jn) transformation  
ON THE FLY                             
-------------------------------------

   IBatch   1 (of   2)              ... done ( 1364.035 sec)
   IBatch   2 (of   2)              ... done (  830.338 sec)
Total EXT                           ...        2194.373 sec

---------------------
RI-PNO TRANSFORMATION
---------------------

Total Number of PNOs                   ... 34854
Total Number of IJ-PNOs                ... 30667
Total Number of IP-PNOs                ...  3228
Total Number of PQ-PNOs                ...   959
Total Number of IJ-pairs               ...   955
Total Number of PI-pairs               ...   118
Total Number of PQ-pairs               ...    25
Average number of PNOs per pair        ...    31
Maximal number of PNOs per pair        ...    87
>> Statistics for ij-pairs..
   #pairs with  1 -  5 PNOs   :    0
   #pairs with  6 - 10 PNOs   :    0
   #pairs with 11 - 15 PNOs   :   34
   #pairs with 16 - 20 PNOs   :  224
   #pairs with 21 - 25 PNOs   :  172
   #pairs with 26 - 30 PNOs   :  156
   #pairs with 31 - 35 PNOs   :   70
   #pairs with 36 - 40 PNOs   :   48
   #pairs with 41 - 45 PNOs   :   52
   #pairs with 46 - 50 PNOs   :   24
   #pairs with 51 - 55 PNOs   :   39
   #pairs with 56 - 60 PNOs   :   50
   #pairs with 61 - 65 PNOs   :   75
   #pairs with 66 - 70 PNOs   :    8
   #pairs with 71 - 75 PNOs   :    1
   #pairs with 76 - 80 PNOs   :    2
>> Statistics for ip-pairs..
   #pairs with  1 -  5 PNOs   :    0
   #pairs with  6 - 10 PNOs   :    2
   #pairs with 11 - 15 PNOs   :   15
   #pairs with 16 - 20 PNOs   :    4
   #pairs with 21 - 25 PNOs   :   27
   #pairs with 26 - 30 PNOs   :   10
   #pairs with 31 - 35 PNOs   :   48
   #pairs with 36 - 40 PNOs   :   12
   #pairs with 41 - 45 PNOs   :    0
   #pairs with 46 - 50 PNOs   :    0
>> Statistics for pq-pairs..
   #pairs with  1 -  5 PNOs   :    0
   #pairs with  6 - 10 PNOs   :    0
   #pairs with 11 - 15 PNOs   :    0
   #pairs with 16 - 20 PNOs   :    0
   #pairs with 21 - 25 PNOs   :   12
   #pairs with 26 - 30 PNOs   :    8
   #pairs with 31 - 35 PNOs   :    0
   #pairs with 36 - 40 PNOs   :    0
   #pairs with 41 - 45 PNOs   :    0
   #pairs with 46 - 50 PNOs   :    0
   #pairs with 86 - 90 PNOs   :    5

Generation of (ij|ab)[P] integrals            ... on
Generation of (ia|bc)[P],(ja|bc)[P] integrals ... on
Storage of 3 and 4 external integrals         ... on
Generation of ALL (ka|bc)[P] integrals        ... on
Keep RI integrals in memory                   ... off

Ibatch:  1 (of  1)
Starting 2-4 index PNO integral generation ... done

Timings:
Total PNO integral transformation time     ...       1987.627 sec
Size of the 3-external file                ...       294 MB
Size of the 4-external file                ...      2013 MB
Size of the IKJL file                      ...        18 MB
Size of the all 3-external file            ...      7074 MB
Size of the 1-external file                ...        22 MB

Size of the PAO/PNO coefficient matrices   ...     224.2 MB

Making pair/pair overlap matrices          ... done (  372.865 sec)
Size of the pair overlap file              ...    2474.0 MB
Total # unrestricted pairs ...       2113
  # of alpha-alpha pairs   ...        584
  # of alpha-beta pairs    ...       1073
  # of beta-beta pairs     ...        456
Constructing the guess amplitudes          ... done (    0.671 sec)

-------------------------
FINAL STARTUP INFORMATION
-------------------------

E(0)                                       ...  -3028.426984519
E(SL-UMP2 in NEV-PNO space)                ...     -2.693606905
Initial E(tot)                             ...  -3031.120591424
<T|T>                                      ...      0.536595653
Number of unrestricted pairs included      ... 2113
Total number of pairs                      ... 4095
----------------------------------------------------------
                     OPEN-SHELL COUPLED CLUSTER ITERATIONS
----------------------------------------------------------

Number of PNO amplitudes to be optimized        ...          2167884
Number of canonical amplitudes for strong pairs ...       1908468335
Untruncated number of canonical amplitudes      ...       3698645738

Iter       E(tot)           E(Corr)          Delta-E          Residual     Time
  0  -3031.127761864     -2.665085105      0.028521800      0.020889418 2013.88
                           *** Turning on DIIS ***
  1  -3031.238568891     -2.775892132     -0.110807027      0.009468782 2002.42
  2  -3031.302844986     -2.840168227     -0.064276095      0.008295339 1993.07
  3  -3031.323818325     -2.861141566     -0.020973339      0.003151118 2004.23
  4  -3031.330953339     -2.868276580     -0.007135014      0.002652320 1984.62
  5  -3031.334723716     -2.872046956     -0.003770377      0.001850477 1974.97
  6  -3031.336114296     -2.873437537     -0.001390580      0.000903823 1976.96
  7  -3031.336902519     -2.874225760     -0.000788223      0.000422263 1994.54
  8  -3031.337064596     -2.874387837     -0.000162077      0.000205822 2005.57
  9  -3031.337114200     -2.874437440     -0.000049604      0.000147641 2006.33
 10  -3031.337108377     -2.874431617      0.000005823      0.000106107 2019.19
 11  -3031.337120158     -2.874443399     -0.000011781      0.000070727 2011.31
 12  -3031.337126670     -2.874449910     -0.000006512      0.000034733 2007.18
 13  -3031.337129056     -2.874452297     -0.000002387      0.000017220 2031.98
 14  -3031.337129888     -2.874453129     -0.000000832      0.000008152 2020.27
               --- The CCSD iterations have converged ---

E(0)                                       ...  -3028.426984519
E(CORR)(strong-pairs)                      ...     -2.874453129
E(CORR)(weak-pairs)                        ...     -0.035692240
E(CORR)(corrected)                         ...     -2.910145369
E(TOT)                                     ...  -3031.337129888
Singles norm <S|S>**1/2                    ...      0.198088003 ( 0.070546377, 0.127541626)  
T1 diagnostic                              ...      0.020765265                              
<S**2>(linearized)                         ...      8.7507688 (ideal value:      8.7500000)

----------------------
LARGEST PNO AMPLITUDES
----------------------
  71a-> 77a  71b-> 77b       0.064343
  50b-> 73b  -1b-> -1b       0.054696
  51b-> 73b  -1b-> -1b       0.051607
  71a-> 78a  71b-> 78b       0.050957
  48b-> 72b  -1b-> -1b       0.049696
  29a-> 77a  -1a-> -1a       0.048267
  29b-> 77b  -1b-> -1b       0.046761
  48b-> 74b  -1b-> -1b       0.046308
  62a-> 77a  62b-> 77b       0.044955
  48b-> 75b  -1b-> -1b       0.044895
  71a-> 77a  -1a-> -1a       0.044667
  66a-> 77a  66b-> 77b       0.044439
  68a-> 77a  68b-> 77b       0.043807
  58a-> 77a  58b-> 77b       0.043030
  61a-> 77a  61b-> 77b       0.042751
  70a-> 77a  70b-> 77b       0.042729

Total # unrestricted pairs ...       1110
  # of alpha-alpha pairs   ...        312
  # of alpha-beta pairs    ...        555
  # of beta-beta pairs     ...        243

-------------------------------------------
DLPNO BASED TRIPLES CORRECTION
-------------------------------------------

Singles multiplier          ...  1.000000
Fragment selection                          .... not used
TCutTNO                     ... 1.000e-09
TCutMP2Pairs                ... 1.000e-05
TCutDOStrong                ... 2.000e-02
TCutMKNStrong               ... 1.000e-02
TCutDOWeak                  ... 4.000e-02
TCutMKNWeak                 ... 1.000e-01
NTCutTNO                    ... 1

Number of Triples that are to be computed         ...     32976

 . . . . . . . . .
10% done  
20% done  
30% done  
40% done  
50% done  
60% done  
70% done  
80% done  
90% done  
          Batch   1   done (  15368.292 sec)

Triples-Correction TCutTNO=   1.000e-09 (NWeakPairs = 0  1  2  3)  -0.118251750290   -0.001950267420    0.000000000000    0.000000000000
Triples-Correction  -0.120202017709

Triples timings:
Total time                      ... 15963.931 sec

Triples List generation         ...     0.000 sec
TNO generation                  ...   595.264 sec
Pair density generation         ...     0.094 sec
Look up tables                  ...     0.112 sec
Generating 3-index integrals    ...  9625.539 sec
Make 4-ind.int. from 3-ind.int  ...     3.837 sec
Projecting amplitudes (D + S)   ...  5442.698 sec
Sorting integrals for spin cases...    60.348 sec
Calculate W0/W1                 ...   189.688 sec
Energy contr. (sum over a,b,c)  ...    46.046 sec

Everything after 3-index        ...  5891.154 sec

Energy contribution AAA         ...    29.616 sec
Energy contribution AAB         ...   131.221 sec
Energy contribution ABB         ...   119.010 sec
Energy contribution BBB         ...    16.277 sec
prep                ...     3.350 sec
makeTTNO            ...  5386.025 sec
copyij              ...     0.133 sec
copyil              ...     4.259 sec
transposeij         ...     0.082 sec
newMatInDoubleProj  ...    54.922 sec
BlasInDoubleProj    ...  2953.964 sec
ProjSingles         ...    46.379 sec
ProjDoubles         ...  5396.319 sec
overall Doubles for projection      ... 2926622
used Doubles for projection         ... 2926622


Number of Triples   (0, 1, 2, 3 weak pairs; overall):  16626   10686       0       0  ( 27312)
Number of Atoms     (0, 1, 2, 3 weak pairs; overall):   19.3    15.1     0.0     0.0  (    29)
Number of PAOs      (0, 1, 2, 3 weak pairs; overall):  753.8   608.1     0.0     0.0  (  1025)
Number of AuxFcns   (0, 1, 2, 3 weak pairs; overall):  951.3   575.6     0.0     0.0  (  2424)
Number of TNOs (0, 1, 2, 3 weak pairs         ):   80.4    58.6     0.0     0.0
Aver. Number of NTNO, Atoms, PAOs, AuxFcns / Triples:  27312    71.8    17.7   696.8   804.3

Triples Correction (T)                     ...     -0.120202018
    alpha-alpha-alpha ... -0.003962674 (  3.3%)
    alpha-alpha-beta  ... -0.056411731 ( 46.9%)
    alpha-beta -beta  ... -0.055653887 ( 46.3%)
    beta -beta -beta  ... -0.004173726 (  3.5%)
Final correlation energy                   ...     -3.030347387
E(CCSD)                                    ...  -3031.337129888
E(CCSD(T))                                 ...  -3031.457331906

----------------------------
STATISTICS FOR PAIR-ENERGIES
----------------------------
Minimum, maximum and average ratios of UMP and CCSD pair-energies ... 0.53, 1.42, 1.02


------------------------------------------------------------------------------- 
                                     TIMINGS                                   
------------------------------------------------------------------------------- 


Total execution time                   ...    54429.716 sec

Localization of occupied MO's          ...       10.266 sec (  0.0%)
Fock Matrix Formation                  ...     1337.447 sec (  2.5%)
Differential overlap integrals         ...        1.451 sec (  0.0%)
Organizing maps                        ...        1.691 sec (  0.0%)
RI 3-index integral generations        ...      294.174 sec (  0.5%)
RI-PNO integral transformation         ...     5030.436 sec (  9.2%)
Initial Guess                          ...     1853.665 sec (  3.4%)
DIIS Solver                            ...       16.954 sec (  0.0%)
State Vector Update                    ...        0.729 sec (  0.0%)
Sigma-vector construction              ...    30046.529 sec ( 55.2%)
  <0|H|D>                              ...        0.030 sec (  0.0% of sigma)
  <D|H|D>(0-ext)                       ...     5471.953 sec ( 18.2% of sigma)
  <D|H|D>(2-ext Fock)                  ...        1.645 sec (  0.0% of sigma)
  <D|H|D>(2-ext)                       ...     4179.995 sec ( 13.9% of sigma)
  <D|H|D>(4-ext)                       ...      159.007 sec (  0.5% of sigma)
  <D|H|D>(4-ext-corr)                  ...      992.338 sec (  3.3% of sigma)
  CCSD doubles correction              ...      531.147 sec (  1.8% of sigma)
  <S|H|S>                              ...      890.781 sec (  3.0% of sigma)
  <S|H|D>(1-ext)                       ...      290.895 sec (  1.0% of sigma)
  <D|H|S>(1-ext)                       ...        1.026 sec (  0.0% of sigma)
  <S|H|D>(3-ext)                       ...       21.853 sec (  0.1% of sigma)
  CCSD singles correction              ...        0.004 sec (  0.0% of sigma)
  Fock-dressing                        ...     9178.533 sec ( 30.5% of sigma)
  Singles amplitudes                   ...      125.570 sec (  0.4% of sigma)
  (ik|jl)-dressing                     ...     6532.686 sec ( 21.7% of sigma)
  (ij|ab),(ia|jb)-dressing             ...     1642.035 sec (  5.5% of sigma)
  Pair energies                        ...        0.143 sec (  0.0% of sigma)
Total Time for computing (T)           ...    16171.153 sec ( 29.7% of ALL)


-------------------------   --------------------
FINAL SINGLE POINT ENERGY     -3031.457331905915
-------------------------   --------------------


                            ***************************************
                            *     ORCA property calculations      *
                            ***************************************

                                    ---------------------
                                    Active property flags
                                    ---------------------
   (+) Dipole Moment


------------------------------------------------------------------------------
                       ORCA ELECTRIC PROPERTIES CALCULATION
------------------------------------------------------------------------------

Dipole Moment Calculation                       ... on
Quadrupole Moment Calculation                   ... off
Polarizability Calculation                      ... off
GBWName                                         ... simple-grid-185-290-b3lyp_d3bj-631gd-gas-singlepoint-DLPNO_CCSD_T1-NormalPNO-augtz-gas.gbw
Electron density file                           ... simple-grid-185-290-b3lyp_d3bj-631gd-gas-singlepoint-DLPNO_CCSD_T1-NormalPNO-augtz-gas.scfp.tmp
The origin for moment calculation is the CENTER OF MASS  = ( 0.328757,  0.045088 -0.010612)

-------------
DIPOLE MOMENT
-------------
                                X             Y             Z
Electronic contribution:     43.29761       6.39394      -1.61967
Nuclear contribution   :    -48.98479      -6.71805       1.58115
                        -----------------------------------------
Total Dipole Moment    :     -5.68718      -0.32411      -0.03852
                        -----------------------------------------
Magnitude (a.u.)       :      5.69654
Magnitude (Debye)      :     14.47945



--------------------
Rotational spectrum 
--------------------
 
Rotational constants in cm-1:     0.020121     0.010088     0.009661 
Rotational constants in MHz :   603.218375   302.415952   289.620748 

 Dipole components along the rotational axes: 
x,y,z [a.u.] :    -5.687727     0.298898    -0.104653 
x,y,z [Debye]:   -14.457053     0.759738    -0.266008 

 

Timings for individual modules:

Sum of individual times         ...    75743.738 sec (=1262.396 min)
GTO integral calculation        ...       13.007 sec (=   0.217 min)   0.0 %
SCF iterations                  ...    21281.575 sec (= 354.693 min)  28.1 %
MDCI module                     ...    54449.156 sec (= 907.486 min)  71.9 %
                             ****ORCA TERMINATED NORMALLY****
TOTAL RUN TIME: 0 days 21 hours 2 minutes 26 seconds 801 msec
