
                                 *****************
                                 * O   R   C   A *
                                 *****************

           --- An Ab Initio, DFT and Semiempirical electronic structure package ---

                  #######################################################
                  #                        -***-                        #
                  #          Department of theory and spectroscopy      #
                  #               Directorship: Frank Neese             #
                  #        Max Planck Institute fuer Kohlenforschung    #
                  #                Kaiser Wilhelm Platz 1               #
                  #                 D-45470 Muelheim/Ruhr               #
                  #                      Germany                        #
                  #                                                     #
                  #                  All rights reserved                #
                  #                        -***-                        #
                  #######################################################


                         Program Version 4.1.2  - RELEASE  -


 With contributions from (in alphabetic order):
   Daniel Aravena         : Magnetic Properties
   Michael Atanasov       : Ab Initio Ligand Field Theory
   Alexander A. Auer      : GIAO ZORA
   Ute Becker             : Parallelization
   Giovanni Bistoni       : ED, Open-shell LED
   Martin Brehm           : Molecular dynamics
   Dmytro Bykov           : SCF Hessian
   Vijay G. Chilkuri      : MRCI spin determinant printing
   Dipayan Datta          : RHF DLPNO-CCSD density
   Achintya Kumar Dutta   : EOM-CC, STEOM-CC
   Dmitry Ganyushin       : Spin-Orbit,Spin-Spin,Magnetic field MRCI
   Miquel Garcia          : C-PCM Hessian
   Yang Guo               : DLPNO-NEVPT2, CIM, IAO-localization
   Andreas Hansen         : Spin unrestricted coupled pair/coupled cluster methods
   Benjamin Helmich-Paris : CASSCF linear response (MC-RPA)
   Lee Huntington         : MR-EOM, pCC
   Robert Izsak           : Overlap fitted RIJCOSX, COSX-SCS-MP3, EOM
   Christian Kollmar      : KDIIS, OOCD, Brueckner-CCSD(T), CCSD density
   Simone Kossmann        : Meta GGA functionals, TD-DFT gradient, OOMP2, MP2 Hessian
   Martin Krupicka        : AUTO-CI
   Lucas Lang             : DCDCAS
   Dagmar Lenk            : GEPOL surface, SMD
   Dimitrios Liakos       : Extrapolation schemes; parallel MDCI
   Dimitrios Manganas     : ROCIS; embedding schemes
   Dimitrios Pantazis     : SARC Basis sets
   Taras Petrenko         : DFT Hessian,TD-DFT gradient, ASA, ECA, R-Raman, ABS, FL, XAS/XES, NRVS
   Peter Pinski           : DLPNO-MP2, DLPNO-MP2 Gradient
   Christoph Reimann      : Effective Core Potentials
   Marius Retegan         : Local ZFS, SOC
   Christoph Riplinger    : Optimizer, TS searches, QM/MM, DLPNO-CCSD(T), (RO)-DLPNO pert. Triples
   Tobias Risthaus        : Range-separated hybrids, TD-DFT gradient, RPA, STAB
   Michael Roemelt        : Restricted open shell CIS
   Masaaki Saitow         : Open-shell DLPNO
   Barbara Sandhoefer     : DKH picture change effects
   Avijit Sen             : IP-ROCIS
   Kantharuban Sivalingam : CASSCF convergence, NEVPT2, FIC-MRCI
   Bernardo de Souza      : ESD, SOC TD-DFT
   Georgi Stoychev        : AutoAux, RI-MP2 NMR
   Willem Van den Heuvel  : Paramagnetic NMR
   Boris Wezisla          : Elementary symmetry handling
   Frank Wennmohs         : Technical directorship


 We gratefully acknowledge several colleagues who have allowed us to
 interface, adapt or use parts of their codes:
   Stefan Grimme, W. Hujo, H. Kruse,             : VdW corrections, initial TS optimization,
                  C. Bannwarth                     DFT functionals, gCP, sTDA/sTD-DF
   Ed Valeev                                     : LibInt (2-el integral package), F12 methods
   Garnet Chan, S. Sharma, J. Yang, R. Olivares  : DMRG
   Ulf Ekstrom                                   : XCFun DFT Library
   Mihaly Kallay                                 : mrcc  (arbitrary order and MRCC methods)
   Andreas Klamt, Michael Diedenhofen            : otool_cosmo (COSMO solvation model)
   Jiri Pittner, Ondrej Demel                    : Mk-CCSD
   Frank Weinhold                                : gennbo (NPA and NBO analysis)
   Christopher J. Cramer and Donald G. Truhlar   : smd solvation model
   Lars Goerigk                                  : TD-DFT with DH, B97 family of functionals
   V. Asgeirsson, H. Jonsson                     : NEB implementation
   FAccTs GmbH                                   : IRC, NEB, NEB-TS, Multilevel


 Your calculation uses the libint2 library for the computation of 2-el integrals
 For citations please refer to: http://libint.valeyev.net

 This ORCA versions uses:
   CBLAS   interface :  Fast vector & matrix operations
   LAPACKE interface :  Fast linear algebra routines
   SCALAPACK package :  Parallel linear algebra routines


----- Orbital basis set information -----
Your calculation utilizes the basis: aug-cc-pVTZ 
    H, B-Ne : Obtained from the ccRepo (grant-hill.group.shef.ac.uk/ccrepo) Feb. 2017
              R. A. Kendall, T. H. Dunning, Jr., R. J. Harrison, J. Chem. Phys. 96, 6796 (1992)
         He : Obtained from the ccRepo (grant-hill.group.shef.ac.uk/ccrepo) Feb. 2017
              D. E. Woon, T. H. Dunning, Jr., J. Chem. Phys. 100, 2975 (1994)
  Li-Be, Na : Obtained from the ccRepo (grant-hill.group.shef.ac.uk/ccrepo) Feb. 2017
              B. P. Prascher, D. E. Woon, K. A. Peterson, T. H. Dunning, Jr., A. K. Wilson, Theor. Chem. Acc. 128, 69 (2011)
         Mg : Obtained from the Peterson Research Group Website (tyr0.chem.wsu.edu/~kipeters) Feb. 2017
              B. P. Prascher, D. E. Woon, K. A. Peterson, T. H. Dunning, Jr., A. K. Wilson, Theor. Chem. Acc. 128, 69 (2011)
      Al-Ar : Obtained from the ccRepo (grant-hill.group.shef.ac.uk/ccrepo) Feb. 2017
              D. E. Woon, T. H. Dunning, Jr., J. Chem. Phys. 98, 1358 (1993)
      Sc-Zn : Obtained from the ccRepo (grant-hill.group.shef.ac.uk/ccrepo) Feb. 2017
              N. B. Balabanov, K. A. Peterson, J. Chem. Phys. 123, 064107 (2005)
              N. B. Balabanov, K. A. Peterson, J. Chem. Phys. 125, 074110 (2006)
      Ga-Kr : Obtained from the ccRepo (grant-hill.group.shef.ac.uk/ccrepo) Feb. 2017
              A. K. Wilson, D. E. Woon, K. A. Peterson, T. H. Dunning, Jr., J. Chem. Phys. 110, 7667 (1999)
     Ag, Au : Obtained from the Peterson Research Group Website (tyr0.chem.wsu.edu/~kipeters) Feb. 2017
              K. A. Peterson, C. Puzzarini, Theor. Chem. Acc. 114, 283 (2005)

----- AuxJ basis set information -----
Your calculation utilizes the AutoAux generation procedure.
  G. L. Stoychev, A. A. Auer, F. Neese, J. Chem. Theory Comput. 13, 554 (2017)

----- AuxC basis set information -----
Your calculation utilizes the auxiliary basis: aug-cc-pVTZ/C 
  H-He, B-F, Al-Ar, Ga-Kr : Obtained from the EMSL Basis Set Exchange (bse.pnl.gov) Feb. 2017
                            F. Weigend, A. Kohn, C. Hattig, J. Chem. Phys. 116, 3175 (2002)
                   Be, Mg : Obtained from the TURBOMOLE 7.0 basis set library
                            C. Haettig, Phys. Chem. Chem. Phys. 7, 59 (2005)
                       Ne : Obtained from the EMSL Basis Set Exchange (bse.pnl.gov) Feb. 2017
                            C. Haettig, Phys. Chem. Chem. Phys. 7, 59 (2005)
                            F. Weigend, A. Kohn, C. Hattig, J. Chem. Phys. 116, 3175 (2002)
                    Sc-Zn : Obtained from the EMSL Basis Set Exchange (bse.pnl.gov) Feb. 2017
                            J. G. Hill, J. A. Platts, J. Chem. Phys. 128, 044104 (2008)

----- AuxJK basis set information -----
Your calculation utilizes the AutoAux generation procedure.
  G. L. Stoychev, A. A. Auer, F. Neese, J. Chem. Theory Comput. 13, 554 (2017)

================================================================================
                                        WARNINGS
                       Please study these warnings very carefully!
================================================================================


WARNING: your system is open-shell and RHF/RKS was chosen
  ===> : WILL SWITCH to UHF/UKS


WARNING: MDCI localization with Augmented Hessian Foster-Boys
  ===> : Switching off randomization!

WARNING: Post HF methods need fully converged wavefunctions
  ===> : Setting SCFConvForced true
         You can overwrite this default with %scf ConvForced false 


INFO   : the flag for use of LIBINT has been found!

================================================================================
                                       INPUT FILE
================================================================================
NAME = simple-grid-290-285-b3lyp_d3bj-631gd-gas-singlepoint-DLPNO_CCSD_T1-NormalPNO-augtz-gas.inp
|  1> ! aug-cc-pVTZ aug-cc-pVTZ/C DLPNO-CCSD(T1) TightSCF NormalPNO UNO MiniPrint AutoAux
|  2> %pal nproc 10 end
|  3> %maxcore 20000
|  4> %mdci
|  5>      density none
|  6> end
|  7> 
|  8> * xyz 0 6
|  9>  O      0.20012000      0.42760800     -0.85713300
| 10>  C      0.92761900      1.41953600     -0.63928500
| 11>  C      3.18117800      0.00697700      0.51663200
| 12>  C      2.62538900     -0.94396200     -0.25762200
| 13>  C      3.00461200     -1.09309600     -1.70757800
| 14> Fe     -1.47571800     -0.17018700      0.02704200
| 15> Cl     -2.07620500     -1.94667200     -1.06831600
| 16>  C      1.67732700     -1.99807300      0.23884100
| 17> Cl     -2.71707900      1.60360300     -0.29530200
| 18> Cl     -1.06365200     -0.49840100      2.15450400
| 19>  H      3.91497200      0.66551500      0.04913100
| 20>  H      2.17680900     -2.97655500      0.22517300
| 21>  H      1.31298700     -1.82190900      1.25064000
| 22>  H      0.81264500     -2.09135600     -0.42892100
| 23>  H      3.46197000     -2.07642900     -1.87934800
| 24>  H      2.11529800     -1.05165300     -2.34991700
| 25>  H      3.71749000     -0.33004300     -2.03438900
| 26>  C      3.01315600      0.18654100      2.00022900
| 27>  H      3.85916200     -0.26105100      2.53990100
| 28>  H      2.99769800      1.24759400      2.27456800
| 29>  H      2.09858100     -0.27265300      2.38389200
| 30>  C      0.79960200      2.21823300      0.61779600
| 31>  H      1.67537000      2.84449600      0.79348400
| 32>  H     -0.07827600      2.86887300      0.48957200
| 33>  H      0.60408500      1.57656300      1.47806400
| 34>  C      1.75006300      1.96827700     -1.76197900
| 35>  H      1.22102600      2.85822700     -2.13345500
| 36>  H      2.73352000      2.29261800     -1.41630200
| 37>  H      1.83859900      1.25015900     -2.57541100
| 38> *
| 39> 
| 40> 
| 41>                          ****END OF INPUT****
================================================================================

                       ****************************
                       * Single Point Calculation *
                       ****************************

---------------------------------
CARTESIAN COORDINATES (ANGSTROEM)
---------------------------------
  O      0.200120    0.427608   -0.857133
  C      0.927619    1.419536   -0.639285
  C      3.181178    0.006977    0.516632
  C      2.625389   -0.943962   -0.257622
  C      3.004612   -1.093096   -1.707578
  Fe    -1.475718   -0.170187    0.027042
  Cl    -2.076205   -1.946672   -1.068316
  C      1.677327   -1.998073    0.238841
  Cl    -2.717079    1.603603   -0.295302
  Cl    -1.063652   -0.498401    2.154504
  H      3.914972    0.665515    0.049131
  H      2.176809   -2.976555    0.225173
  H      1.312987   -1.821909    1.250640
  H      0.812645   -2.091356   -0.428921
  H      3.461970   -2.076429   -1.879348
  H      2.115298   -1.051653   -2.349917
  H      3.717490   -0.330043   -2.034389
  C      3.013156    0.186541    2.000229
  H      3.859162   -0.261051    2.539901
  H      2.997698    1.247594    2.274568
  H      2.098581   -0.272653    2.383892
  C      0.799602    2.218233    0.617796
  H      1.675370    2.844496    0.793484
  H     -0.078276    2.868873    0.489572
  H      0.604085    1.576563    1.478064
  C      1.750063    1.968277   -1.761979
  H      1.221026    2.858227   -2.133455
  H      2.733520    2.292618   -1.416302
  H      1.838599    1.250159   -2.575411

----------------------------
CARTESIAN COORDINATES (A.U.)
----------------------------
  NO LB      ZA    FRAG     MASS         X           Y           Z
   0 O     8.0000    0    15.999    0.378172    0.808062   -1.619747
   1 C     6.0000    0    12.011    1.752946    2.682534   -1.208074
   2 C     6.0000    0    12.011    6.011555    0.013185    0.976293
   3 C     6.0000    0    12.011    4.961266   -1.783830   -0.486835
   4 C     6.0000    0    12.011    5.677894   -2.065652   -3.226855
   5 Fe   26.0000    0    55.850   -2.788703   -0.321607    0.051102
   6 Cl   17.0000    0    35.453   -3.923459   -3.678677   -2.018825
   7 C     6.0000    0    12.011    3.169689   -3.775811    0.451344
   8 Cl   17.0000    0    35.453   -5.134535    3.030370   -0.558040
   9 Cl   17.0000    0    35.453   -2.010011   -0.941841    4.071423
  10 H     1.0000    0     1.008    7.398225    1.257641    0.092844
  11 H     1.0000    0     1.008    4.113573   -5.624874    0.425515
  12 H     1.0000    0     1.008    2.481186   -3.442909    2.363367
  13 H     1.0000    0     1.008    1.535676   -3.952090   -0.810543
  14 H     1.0000    0     1.008    6.542175   -3.923882   -3.551453
  15 H     1.0000    0     1.008    3.997334   -1.987336   -4.440700
  16 H     1.0000    0     1.008    7.025038   -0.623691   -3.844438
  17 C     6.0000    0    12.011    5.694040    0.352511    3.779885
  18 H     1.0000    0     1.008    7.292759   -0.493315    4.799717
  19 H     1.0000    0     1.008    5.664828    2.357611    4.298311
  20 H     1.0000    0     1.008    3.965743   -0.515239    4.504903
  21 C     6.0000    0    12.011    1.511029    4.191853    1.167465
  22 H     1.0000    0     1.008    3.165990    5.375318    1.499467
  23 H     1.0000    0     1.008   -0.147920    5.421384    0.925157
  24 H     1.0000    0     1.008    1.141555    2.979272    2.793136
  25 C     6.0000    0    12.011    3.307140    3.719504   -3.329658
  26 H     1.0000    0     1.008    2.307405    5.401266   -4.031646
  27 H     1.0000    0     1.008    5.165604    4.332420   -2.676423
  28 H     1.0000    0     1.008    3.474449    2.362458   -4.866821



           ************************************************************
           *        Program running with 10 parallel MPI-processes    *
           *              working on a common directory               *
           ************************************************************


           ************************************************************
           *        Program running with 10 parallel MPI-processes    *
           *              working on a common directory               *
           ************************************************************

Diagonalization of the overlap matrix:
Smallest eigenvalue                        ... 8.712e-07
Time for diagonalization                   ...    0.357 sec
Threshold for overlap eigenvalues          ... 1.000e-08
Number of eigenvalues below threshold      ... 0
Time for construction of square roots      ...    0.307 sec
Total time needed                          ...    0.669 sec

-------------------
DFT GRID GENERATION
-------------------

General Integration Accuracy     IntAcc      ...  4.340
Radial Grid Type                 RadialGrid  ... Gauss-Chebyshev
Angular Grid (max. acc.)         AngularGrid ... Lebedev-110
Angular grid pruning method      GridPruning ... 3 (G Style)
Weight generation scheme         WeightScheme... Becke
Basis function cutoff            BFCut       ...    1.0000e-11
Integration weight cutoff        WCut        ...    1.0000e-14
Grids for H and He will be reduced by one unit

# of grid points (after initial pruning)     ...  36112 (   0.0 sec)
# of grid points (after weights+screening)   ...  32465 (   0.1 sec)
nearest neighbour list constructed           ...    0.0 sec
Grid point re-assignment to atoms done       ...    0.0 sec
Grid point division into batches done        ...    0.0 sec
Reduced shell lists constructed in    0.3 sec

Total number of grid points                  ...    32465
Total number of batches                      ...      522
Average number of points per batch           ...       62
Average number of grid points per atom       ...     1119
Average number of shells per batch           ...   284.54 (82.96%)
Average number of basis functions per batch  ...   843.17 (82.26%)
Average number of large shells per batch     ...   229.37 (80.61%)
Average number of large basis fcns per batch ...   680.63 (80.72%)
Maximum spatial batch extension              ...   3.24,  4.94,  5.17 au
Average spatial batch extension              ...   0.18,  0.19,  0.19 au

Time for grid setup =    0.384 sec

Loading Hartree-Fock densities                     ... done
Calculating cut-offs                               ... done
Setting up the integral package                    ... done
Initializing the effective Hamiltonian             ... done
Starting the Coulomb interaction                   ... done (   1.2 sec)
Reading the grid                                   ... done
Mapping shells                                     ... done
Starting the XC term evaluation                    ... done (   0.9 sec)
Transforming the Hamiltonian                       ... done (   0.2 sec)
Diagonalizing the Hamiltonian                      ... done (   0.4 sec)
Back transforming the eigenvectors                 ... done (   0.1 sec)
Now organizing SCF variables                       ... done
--------------
SCF ITERATIONS
--------------
ITER       Energy         Delta-E        Max-DP      RMS-DP      [F,P]     Damp
               ***  Starting incremental Fock matrix formation  ***
  0  -3027.5998189428   0.000000000000 0.14645750  0.00082792  0.2393919 0.7000
  1  -3027.8548864133  -0.255067470483 0.11161263  0.00065670  0.1560152 0.7000
                               ***Turning on DIIS***
  2  -3028.0253515588  -0.170465145493 0.07912293  0.00048779  0.1094730 0.7000
  3  -3029.6097312966  -1.584379737873 0.23761189  0.00125056  0.0816535 0.0000
  4  -3028.3178594962   1.291871800398 0.04114246  0.00021406  0.0195609 0.0000
  5  -3028.4425969813  -0.124737485052 0.03913997  0.00016796  0.0111358 0.0000
  6  -3028.4903457900  -0.047748808663 0.01944235  0.00006936  0.0053275 0.0000
  7  -3028.5042552735  -0.013909483557 0.00856412  0.00003185  0.0030165 0.0000
  8  -3028.4933715586   0.010883714913 0.00640162  0.00001840  0.0015830 0.0000
  9  -3028.4893320743   0.004039484303 0.00226843  0.00001044  0.0006797 0.0000
 10  -3028.4767975102   0.012534564058 0.00095784  0.00000333  0.0004202 0.0000
 11  -3028.4825935030  -0.005795992762 0.00028021  0.00000166  0.0000910 0.0000
 12  -3028.4805178476   0.002075655357 0.00020895  0.00000127  0.0000222 0.0000
 13  -3028.4804476786   0.000070169022 0.00026859  0.00000142  0.0000095 0.0000
 14  -3028.4804556140  -0.000007935374 0.00046791  0.00000170  0.0000063 0.0000
 15  -3028.4804150760   0.000040538018 0.00032819  0.00000138  0.0000041 0.0000
 16  -3028.4804154198  -0.000000343811 0.00055334  0.00000194  0.0000035 0.0000
 17  -3028.4804307713  -0.000015351512 0.00045046  0.00000159  0.0000023 0.0000
 18  -3028.4804127971   0.000017974236 0.00049463  0.00000244  0.0000017 0.0000
                            ***DIIS convergence achieved***

               *****************************************************
               *                     SUCCESS                       *
               *           SCF CONVERGED AFTER  19 CYCLES          *
               *****************************************************

Total Energy       :        -3028.48041832 Eh          -82409.14178 eV
  Last Energy change         ...   -5.5212e-06  Tolerance :   1.0000e-08
  Last MAX-Density change    ...    3.5244e-04  Tolerance :   1.0000e-07
             **** THE GBW FILE WAS UPDATED (simple-grid-290-285-b3lyp_d3bj-631gd-gas-singlepoint-DLPNO_CCSD_T1-NormalPNO-augtz-gas.gbw) ****
             **** DENSITY FILE WAS UPDATED (simple-grid-290-285-b3lyp_d3bj-631gd-gas-singlepoint-DLPNO_CCSD_T1-NormalPNO-augtz-gas.scfp.tmp) ****
             **** ENERGY FILE WAS UPDATED (simple-grid-290-285-b3lyp_d3bj-631gd-gas-singlepoint-DLPNO_CCSD_T1-NormalPNO-augtz-gas.en.tmp) ****
----------------------
UHF SPIN CONTAMINATION
----------------------

Expectation value of <S**2>     :     8.765114
Ideal value S*(S+1) for S=2.5   :     8.750000
Deviation                       :     0.015114

----------------
ORBITAL ENERGIES
----------------
                 SPIN UP ORBITALS
  NO   OCC          E(Eh)            E(eV) 
   0   1.0000    -261.579290     -7117.9344 
   1   1.0000    -104.795915     -2851.6418 
   2   1.0000    -104.793008     -2851.5627 
   3   1.0000    -104.791173     -2851.5128 
   4   1.0000     -32.246933      -877.4837 
   5   1.0000     -27.723484      -754.3944 
   6   1.0000     -27.722233      -754.3603 
   7   1.0000     -27.722043      -754.3551 
   8   1.0000     -20.627575      -561.3049 
   9   1.0000     -11.422476      -310.8214 
  10   1.0000     -11.279892      -306.9415 
  11   1.0000     -11.273882      -306.7779 
  12   1.0000     -11.258021      -306.3463 
  13   1.0000     -11.239037      -305.8298 
  14   1.0000     -11.237887      -305.7984 
  15   1.0000     -11.234688      -305.7114 
  16   1.0000     -11.225420      -305.4592 
  17   1.0000     -10.522650      -286.3359 
  18   1.0000     -10.519716      -286.2560 
  19   1.0000     -10.517828      -286.2046 
  20   1.0000      -7.989469      -217.4045 
  21   1.0000      -7.988741      -217.3847 
  22   1.0000      -7.988681      -217.3831 
  23   1.0000      -7.986612      -217.3268 
  24   1.0000      -7.985805      -217.3048 
  25   1.0000      -7.985751      -217.3033 
  26   1.0000      -7.984606      -217.2722 
  27   1.0000      -7.983957      -217.2545 
  28   1.0000      -7.983917      -217.2534 
  29   1.0000      -4.601671      -125.2178 
  30   1.0000      -3.214841       -87.4803 
  31   1.0000      -3.212994       -87.4300 
  32   1.0000      -3.212892       -87.4272 
  33   1.0000      -1.471683       -40.0465 
  34   1.0000      -1.119001       -30.4496 
  35   1.0000      -1.103951       -30.0400 
  36   1.0000      -1.069512       -29.1029 
  37   1.0000      -1.063725       -28.9454 
  38   1.0000      -1.061089       -28.8737 
  39   1.0000      -1.020791       -27.7771 
  40   1.0000      -1.008751       -27.4495 
  41   1.0000      -0.953560       -25.9477 
  42   1.0000      -0.945179       -25.7196 
  43   1.0000      -0.930501       -25.3202 
  44   1.0000      -0.930363       -25.3165 
  45   1.0000      -0.919391       -25.0179 
  46   1.0000      -0.918783       -25.0013 
  47   1.0000      -0.891185       -24.2504 
  48   1.0000      -0.817627       -22.2488 
  49   1.0000      -0.723661       -19.6918 
  50   1.0000      -0.716467       -19.4961 
  51   1.0000      -0.706550       -19.2262 
  52   1.0000      -0.685375       -18.6500 
  53   1.0000      -0.649695       -17.6791 
  54   1.0000      -0.621821       -16.9206 
  55   1.0000      -0.616296       -16.7703 
  56   1.0000      -0.603569       -16.4239 
  57   1.0000      -0.600005       -16.3270 
  58   1.0000      -0.586643       -15.9634 
  59   1.0000      -0.580156       -15.7868 
  60   1.0000      -0.561168       -15.2702 
  61   1.0000      -0.548077       -14.9139 
  62   1.0000      -0.547353       -14.8942 
  63   1.0000      -0.537369       -14.6226 
  64   1.0000      -0.535749       -14.5785 
  65   1.0000      -0.522498       -14.2179 
  66   1.0000      -0.506732       -13.7889 
  67   1.0000      -0.488064       -13.2809 
  68   1.0000      -0.479147       -13.0382 
  69   1.0000      -0.478331       -13.0161 
  70   1.0000      -0.449236       -12.2243 
  71   1.0000      -0.442740       -12.0476 
  72   1.0000      -0.440966       -11.9993 
  73   1.0000      -0.432389       -11.7659 
  74   1.0000      -0.431316       -11.7367 
  75   1.0000      -0.430153       -11.7051 
  76   1.0000      -0.354996        -9.6599 
  77   0.0000       0.012767         0.3474 
  78   0.0000       0.023966         0.6521 
  79   0.0000       0.024862         0.6765 
  80   0.0000       0.030915         0.8413 
  81   0.0000       0.039562         1.0765 
  82   0.0000       0.041517         1.1297 
  83   0.0000       0.042629         1.1600 
  84   0.0000       0.043000         1.1701 
  85   0.0000       0.044296         1.2054 
  86   0.0000       0.056269         1.5311 
  87   0.0000       0.057735         1.5711 
  88   0.0000       0.061796         1.6815 
  89   0.0000       0.064207         1.7472 
  90   0.0000       0.065301         1.7769 
  91   0.0000       0.069258         1.8846 
  92   0.0000       0.074090         2.0161 
  93   0.0000       0.077446         2.1074 
  94   0.0000       0.082344         2.2407 
  95   0.0000       0.090359         2.4588 
  96   0.0000       0.092263         2.5106 
  97   0.0000       0.094191         2.5631 
  98   0.0000       0.096058         2.6139 
  99   0.0000       0.102554         2.7906 
 100   0.0000       0.105993         2.8842 
 101   0.0000       0.108169         2.9434 
 102   0.0000       0.117800         3.2055 
 103   0.0000       0.120458         3.2778 
 104   0.0000       0.123791         3.3685 
 105   0.0000       0.123894         3.3713 
 106   0.0000       0.125323         3.4102 
 107   0.0000       0.127091         3.4583 
 108   0.0000       0.130604         3.5539 
 109   0.0000       0.132846         3.6149 
 110   0.0000       0.136048         3.7020 
 111   0.0000       0.137887         3.7521 
 112   0.0000       0.142805         3.8859 
 113   0.0000       0.144772         3.9395 
 114   0.0000       0.147742         4.0203 
 115   0.0000       0.151311         4.1174 
 116   0.0000       0.156374         4.2552 
 117   0.0000       0.161425         4.3926 
 118   0.0000       0.162974         4.4348 
 119   0.0000       0.163776         4.4566 
 120   0.0000       0.168379         4.5818 
 121   0.0000       0.169979         4.6254 
 122   0.0000       0.175039         4.7631 
 123   0.0000       0.179716         4.8903 
 124   0.0000       0.182879         4.9764 
 125   0.0000       0.186034         5.0622 
 126   0.0000       0.187558         5.1037 
 127   0.0000       0.191483         5.2105 
 128   0.0000       0.192310         5.2330 
 129   0.0000       0.196282         5.3411 
 130   0.0000       0.197154         5.3648 
 131   0.0000       0.200676         5.4607 
 132   0.0000       0.202594         5.5129 
 133   0.0000       0.206022         5.6061 
 134   0.0000       0.210407         5.7255 
 135   0.0000       0.214437         5.8351 
 136   0.0000       0.216406         5.8887 
 137   0.0000       0.223036         6.0691 
 138   0.0000       0.225183         6.1275 
 139   0.0000       0.230622         6.2755 
 140   0.0000       0.233038         6.3413 
 141   0.0000       0.234673         6.3858 
 142   0.0000       0.238667         6.4945 
 143   0.0000       0.239856         6.5268 
 144   0.0000       0.243160         6.6167 
 145   0.0000       0.246871         6.7177 
 146   0.0000       0.251361         6.8399 
 147   0.0000       0.253218         6.8904 
 148   0.0000       0.256479         6.9791 
 149   0.0000       0.258866         7.0441 
 150   0.0000       0.260692         7.0938 
 151   0.0000       0.267943         7.2911 
 152   0.0000       0.273122         7.4320 
 153   0.0000       0.276398         7.5212 
 154   0.0000       0.279710         7.6113 
 155   0.0000       0.285901         7.7798 
 156   0.0000       0.291267         7.9258 
 157   0.0000       0.293419         7.9844 
 158   0.0000       0.297256         8.0888 
 159   0.0000       0.305888         8.3236 
 160   0.0000       0.307787         8.3753 
 161   0.0000       0.308589         8.3971 
 162   0.0000       0.316388         8.6094 
 163   0.0000       0.318199         8.6586 
 164   0.0000       0.324700         8.8355 
 165   0.0000       0.329697         8.9715 
 166   0.0000       0.332241         9.0407 
 167   0.0000       0.335529         9.1302 
 168   0.0000       0.337869         9.1939 
 169   0.0000       0.340906         9.2765 
 170   0.0000       0.346543         9.4299 
 171   0.0000       0.351422         9.5627 
 172   0.0000       0.354297         9.6409 
 173   0.0000       0.358072         9.7436 
 174   0.0000       0.358291         9.7496 
 175   0.0000       0.362549         9.8655 
 176   0.0000       0.366739         9.9795 
 177   0.0000       0.371588        10.1114 
 178   0.0000       0.373999        10.1770 
 179   0.0000       0.375035        10.2052 
 180   0.0000       0.377302        10.2669 
 181   0.0000       0.378865        10.3094 
 182   0.0000       0.381927        10.3928 
 183   0.0000       0.384191        10.4544 
 184   0.0000       0.389245        10.5919 
 185   0.0000       0.394787        10.7427 
 186   0.0000       0.395893        10.7728 
 187   0.0000       0.398698        10.8491 
 188   0.0000       0.399180        10.8622 
 189   0.0000       0.404516        11.0074 
 190   0.0000       0.407785        11.0964 
 191   0.0000       0.409696        11.1484 
 192   0.0000       0.413530        11.2527 
 193   0.0000       0.417875        11.3709 
 194   0.0000       0.422278        11.4908 
 195   0.0000       0.432049        11.7566 
 196   0.0000       0.434545        11.8246 
 197   0.0000       0.436776        11.8853 
 198   0.0000       0.437883        11.9154 
 199   0.0000       0.444749        12.1022 
 200   0.0000       0.448331        12.1997 
 201   0.0000       0.452576        12.3152 
 202   0.0000       0.455557        12.3963 
 203   0.0000       0.457449        12.4478 
 204   0.0000       0.459552        12.5050 
 205   0.0000       0.462960        12.5978 
 206   0.0000       0.464316        12.6347 
 207   0.0000       0.471488        12.8299 
 208   0.0000       0.475455        12.9378 
 209   0.0000       0.479315        13.0428 
 210   0.0000       0.482319        13.1246 
 211   0.0000       0.487103        13.2547 
 212   0.0000       0.491165        13.3653 
 213   0.0000       0.495727        13.4894 
 214   0.0000       0.497981        13.5507 
 215   0.0000       0.499511        13.5924 
 216   0.0000       0.504121        13.7178 
 217   0.0000       0.507931        13.8215 
 218   0.0000       0.508994        13.8504 
 219   0.0000       0.513139        13.9632 
 220   0.0000       0.515632        14.0311 
 221   0.0000       0.518062        14.0972 
 222   0.0000       0.522136        14.2080 
 223   0.0000       0.523398        14.2424 
 224   0.0000       0.525733        14.3059 
 225   0.0000       0.528840        14.3905 
 226   0.0000       0.533378        14.5139 
 227   0.0000       0.535386        14.5686 
 228   0.0000       0.539136        14.6706 
 229   0.0000       0.542061        14.7502 
 230   0.0000       0.543990        14.8027 
 231   0.0000       0.548794        14.9335 
 232   0.0000       0.551554        15.0086 
 233   0.0000       0.556129        15.1330 
 234   0.0000       0.559671        15.2294 
 235   0.0000       0.566897        15.4260 
 236   0.0000       0.569854        15.5065 
 237   0.0000       0.571585        15.5536 
 238   0.0000       0.573897        15.6165 
 239   0.0000       0.577346        15.7104 
 240   0.0000       0.582751        15.8575 
 241   0.0000       0.584583        15.9073 
 242   0.0000       0.586643        15.9634 
 243   0.0000       0.592093        16.1117 
 244   0.0000       0.597934        16.2706 
 245   0.0000       0.599062        16.3013 
 246   0.0000       0.603520        16.4226 
 247   0.0000       0.609005        16.5719 
 248   0.0000       0.611629        16.6433 
 249   0.0000       0.613496        16.6941 
 250   0.0000       0.615435        16.7468 
 251   0.0000       0.623923        16.9778 
 252   0.0000       0.627198        17.0669 
 253   0.0000       0.630601        17.1595 
 254   0.0000       0.635571        17.2948 
 255   0.0000       0.637105        17.3365 
 256   0.0000       0.641581        17.4583 
 257   0.0000       0.649033        17.6611 
 258   0.0000       0.649979        17.6868 
 259   0.0000       0.655719        17.8430 
 260   0.0000       0.658115        17.9082 
 261   0.0000       0.659963        17.9585 
 262   0.0000       0.663943        18.0668 
 263   0.0000       0.668517        18.1913 
 264   0.0000       0.673325        18.3221 
 265   0.0000       0.675478        18.3807 
 266   0.0000       0.677953        18.4480 
 267   0.0000       0.686760        18.6877 
 268   0.0000       0.689276        18.7562 
 269   0.0000       0.694311        18.8932 
 270   0.0000       0.697401        18.9772 
 271   0.0000       0.701736        19.0952 
 272   0.0000       0.704082        19.1590 
 273   0.0000       0.708188        19.2708 
 274   0.0000       0.715468        19.4689 
 275   0.0000       0.719533        19.5795 
 276   0.0000       0.723014        19.6742 
 277   0.0000       0.728802        19.8317 
 278   0.0000       0.732631        19.9359 
 279   0.0000       0.734135        19.9768 
 280   0.0000       0.742596        20.2071 
 281   0.0000       0.747031        20.3277 
 282   0.0000       0.754172        20.5221 
 283   0.0000       0.760841        20.7035 
 284   0.0000       0.767994        20.8982 
 285   0.0000       0.770028        20.9535 
 286   0.0000       0.774705        21.0808 
 287   0.0000       0.775766        21.1097 
 288   0.0000       0.785381        21.3713 
 289   0.0000       0.800229        21.7753 
 290   0.0000       0.803951        21.8766 
 291   0.0000       0.812578        22.1114 
 292   0.0000       0.818522        22.2731 
 293   0.0000       0.822663        22.3858 
 294   0.0000       0.829373        22.5684 
 295   0.0000       0.832158        22.6442 
 296   0.0000       0.838110        22.8061 
 297   0.0000       0.842646        22.9296 
 298   0.0000       0.846951        23.0467 
 299   0.0000       0.854779        23.2597 
 300   0.0000       0.856471        23.3058 
 301   0.0000       0.863094        23.4860 
 302   0.0000       0.868597        23.6357 
 303   0.0000       0.873432        23.7673 
 304   0.0000       0.879495        23.9323 
 305   0.0000       0.881642        23.9907 
 306   0.0000       0.882660        24.0184 
 307   0.0000       0.888799        24.1854 
 308   0.0000       0.890137        24.2219 
 309   0.0000       0.903764        24.5927 
 310   0.0000       0.907073        24.6827 
 311   0.0000       0.908216        24.7138 
 312   0.0000       0.910579        24.7781 
 313   0.0000       0.914580        24.8870 
 314   0.0000       0.920355        25.0441 
 315   0.0000       0.921860        25.0851 
 316   0.0000       0.925507        25.1843 
 317   0.0000       0.928672        25.2704 
 318   0.0000       0.936427        25.4815 
 319   0.0000       0.939489        25.5648 
 320   0.0000       0.942409        25.6443 
 321   0.0000       0.946903        25.7665 
 322   0.0000       0.949170        25.8282 
 323   0.0000       0.951886        25.9021 
 324   0.0000       0.953963        25.9586 
 325   0.0000       0.955962        26.0130 
 326   0.0000       0.963578        26.2203 
 327   0.0000       0.965703        26.2781 
 328   0.0000       0.967592        26.3295 
 329   0.0000       0.970399        26.4059 
 330   0.0000       0.971201        26.4277 
 331   0.0000       0.978473        26.6256 
 332   0.0000       0.981366        26.7043 
 333   0.0000       0.985588        26.8192 
 334   0.0000       0.989680        26.9306 
 335   0.0000       0.995762        27.0961 
 336   0.0000       1.000008        27.2116 
 337   0.0000       1.005605        27.3639 
 338   0.0000       1.006294        27.3827 
 339   0.0000       1.009054        27.4578 
 340   0.0000       1.010639        27.5009 
 341   0.0000       1.016119        27.6500 
 342   0.0000       1.020864        27.7791 
 343   0.0000       1.025329        27.9006 
 344   0.0000       1.028809        27.9953 
 345   0.0000       1.032844        28.1051 
 346   0.0000       1.034891        28.1608 
 347   0.0000       1.036545        28.2058 
 348   0.0000       1.044212        28.4144 
 349   0.0000       1.047471        28.5031 
 350   0.0000       1.050337        28.5811 
 351   0.0000       1.051988        28.6260 
 352   0.0000       1.054527        28.6952 
 353   0.0000       1.056884        28.7593 
 354   0.0000       1.062812        28.9206 
 355   0.0000       1.065996        29.0072 
 356   0.0000       1.071274        29.1508 
 357   0.0000       1.074757        29.2456 
 358   0.0000       1.077931        29.3320 
 359   0.0000       1.079315        29.3696 
 360   0.0000       1.087478        29.5918 
 361   0.0000       1.088401        29.6169 
 362   0.0000       1.095833        29.8191 
 363   0.0000       1.100487        29.9458 
 364   0.0000       1.102347        29.9964 
 365   0.0000       1.106424        30.1073 
 366   0.0000       1.111512        30.2458 
 367   0.0000       1.118267        30.4296 
 368   0.0000       1.120423        30.4883 
 369   0.0000       1.125697        30.6318 
 370   0.0000       1.129332        30.7307 
 371   0.0000       1.134269        30.8650 
 372   0.0000       1.135562        30.9002 
 373   0.0000       1.141653        31.0660 
 374   0.0000       1.144001        31.1299 
 375   0.0000       1.147678        31.2299 
 376   0.0000       1.153464        31.3874 
 377   0.0000       1.161468        31.6051 
 378   0.0000       1.164614        31.6907 
 379   0.0000       1.168828        31.8054 
 380   0.0000       1.170666        31.8554 
 381   0.0000       1.172253        31.8986 
 382   0.0000       1.181299        32.1448 
 383   0.0000       1.183769        32.2120 
 384   0.0000       1.187847        32.3230 
 385   0.0000       1.191068        32.4106 
 386   0.0000       1.198347        32.6087 
 387   0.0000       1.202847        32.7311 
 388   0.0000       1.207076        32.8462 
 389   0.0000       1.210795        32.9474 
 390   0.0000       1.216123        33.0924 
 391   0.0000       1.224339        33.3160 
 392   0.0000       1.229521        33.4570 
 393   0.0000       1.230993        33.4970 
 394   0.0000       1.236730        33.6531 
 395   0.0000       1.244417        33.8623 
 396   0.0000       1.248032        33.9607 
 397   0.0000       1.254194        34.1284 
 398   0.0000       1.256262        34.1846 
 399   0.0000       1.262672        34.3591 
 400   0.0000       1.266725        34.4693 
 401   0.0000       1.268313        34.5126 
 402   0.0000       1.273608        34.6566 
 403   0.0000       1.276692        34.7406 
 404   0.0000       1.277756        34.7695 
 405   0.0000       1.287910        35.0458 
 406   0.0000       1.292445        35.1692 
 407   0.0000       1.295623        35.2557 
 408   0.0000       1.301209        35.4077 
 409   0.0000       1.305224        35.5170 
 410   0.0000       1.309626        35.6367 
 411   0.0000       1.310351        35.6565 
 412   0.0000       1.313903        35.7531 
 413   0.0000       1.323350        36.0102 
 414   0.0000       1.328008        36.1369 
 415   0.0000       1.337332        36.3906 
 416   0.0000       1.340982        36.4900 
 417   0.0000       1.343406        36.5559 
 418   0.0000       1.344089        36.5745 
 419   0.0000       1.355926        36.8966 
 420   0.0000       1.361946        37.0604 
 421   0.0000       1.366838        37.1936 
 422   0.0000       1.371322        37.3156 
 423   0.0000       1.377144        37.4740 
 424   0.0000       1.382898        37.6306 
 425   0.0000       1.383196        37.6387 
 426   0.0000       1.388997        37.7965 
 427   0.0000       1.392037        37.8792 
 428   0.0000       1.405139        38.2358 
 429   0.0000       1.409158        38.3451 
 430   0.0000       1.414575        38.4925 
 431   0.0000       1.418324        38.5945 
 432   0.0000       1.430078        38.9144 
 433   0.0000       1.432979        38.9933 
 434   0.0000       1.436599        39.0918 
 435   0.0000       1.442992        39.2658 
 436   0.0000       1.450697        39.4755 
 437   0.0000       1.454747        39.5857 
 438   0.0000       1.459112        39.7045 
 439   0.0000       1.461780        39.7770 
 440   0.0000       1.463380        39.8206 
 441   0.0000       1.466120        39.8952 
 442   0.0000       1.470407        40.0118 
 443   0.0000       1.479056        40.2471 
 444   0.0000       1.481586        40.3160 
 445   0.0000       1.485708        40.4282 
 446   0.0000       1.491393        40.5829 
 447   0.0000       1.497991        40.7624 
 448   0.0000       1.500737        40.8371 
 449   0.0000       1.506813        41.0025 
 450   0.0000       1.518966        41.3332 
 451   0.0000       1.522474        41.4286 
 452   0.0000       1.525751        41.5178 
 453   0.0000       1.533553        41.7301 
 454   0.0000       1.534992        41.7693 
 455   0.0000       1.539429        41.8900 
 456   0.0000       1.544152        42.0185 
 457   0.0000       1.552235        42.2385 
 458   0.0000       1.554775        42.3076 
 459   0.0000       1.565753        42.6063 
 460   0.0000       1.568239        42.6739 
 461   0.0000       1.574606        42.8472 
 462   0.0000       1.579692        42.9856 
 463   0.0000       1.583564        43.0910 
 464   0.0000       1.591494        43.3068 
 465   0.0000       1.601770        43.5864 
 466   0.0000       1.607351        43.7382 
 467   0.0000       1.608213        43.7617 
 468   0.0000       1.616369        43.9836 
 469   0.0000       1.621724        44.1293 
 470   0.0000       1.628072        44.3021 
 471   0.0000       1.632909        44.4337 
 472   0.0000       1.635756        44.5112 
 473   0.0000       1.646449        44.8021 
 474   0.0000       1.648419        44.8558 
 475   0.0000       1.650273        44.9062 
 476   0.0000       1.658966        45.1428 
 477   0.0000       1.659514        45.1577 
 478   0.0000       1.669887        45.4399 
 479   0.0000       1.675197        45.5844 
 480   0.0000       1.678573        45.6763 
 481   0.0000       1.682692        45.7884 
 482   0.0000       1.697975        46.2043 
 483   0.0000       1.700674        46.2777 
 484   0.0000       1.701081        46.2888 
 485   0.0000       1.705919        46.4204 
 486   0.0000       1.709382        46.5146 
 487   0.0000       1.718826        46.7716 
 488   0.0000       1.726770        46.9878 
 489   0.0000       1.728304        47.0295 
 490   0.0000       1.730090        47.0782 
 491   0.0000       1.738959        47.3195 
 492   0.0000       1.746515        47.5251 
 493   0.0000       1.748866        47.5891 
 494   0.0000       1.757248        47.8172 
 495   0.0000       1.760639        47.9094 
 496   0.0000       1.763714        47.9931 
 497   0.0000       1.767851        48.1057 
 498   0.0000       1.778825        48.4043 
 499   0.0000       1.786550        48.6145 
 500   0.0000       1.789059        48.6828 
 501   0.0000       1.791257        48.7426 
 502   0.0000       1.794384        48.8277 
 503   0.0000       1.802666        49.0530 
 504   0.0000       1.806024        49.1444 
 505   0.0000       1.812454        49.3194 
 506   0.0000       1.813121        49.3375 
 507   0.0000       1.818733        49.4902 
 508   0.0000       1.820236        49.5311 
 509   0.0000       1.824842        49.6565 
 510   0.0000       1.833924        49.9036 
 511   0.0000       1.835035        49.9339 
 512   0.0000       1.841323        50.1049 
 513   0.0000       1.844896        50.2022 
 514   0.0000       1.853313        50.4312 
 515   0.0000       1.857714        50.5510 
 516   0.0000       1.861144        50.6443 
 517   0.0000       1.866476        50.7894 
 518   0.0000       1.873204        50.9725 
 519   0.0000       1.882181        51.2168 
 520   0.0000       1.885709        51.3127 
 521   0.0000       1.892609        51.5005 
 522   0.0000       1.897894        51.6443 
 523   0.0000       1.904452        51.8228 
 524   0.0000       1.905051        51.8391 
 525   0.0000       1.914700        52.1016 
 526   0.0000       1.919047        52.2199 
 527   0.0000       1.926259        52.4162 
 528   0.0000       1.930545        52.5328 
 529   0.0000       1.934240        52.6334 
 530   0.0000       1.940017        52.7906 
 531   0.0000       1.942969        52.8709 
 532   0.0000       1.951585        53.1053 
 533   0.0000       1.961251        53.3683 
 534   0.0000       1.962159        53.3931 
 535   0.0000       1.967479        53.5378 
 536   0.0000       1.977922        53.8220 
 537   0.0000       1.978509        53.8380 
 538   0.0000       1.988296        54.1043 
 539   0.0000       1.991203        54.1834 
 540   0.0000       1.998137        54.3721 
 541   0.0000       2.001857        54.4733 
 542   0.0000       2.009723        54.6873 
 543   0.0000       2.015127        54.8344 
 544   0.0000       2.018012        54.9129 
 545   0.0000       2.031854        55.2896 
 546   0.0000       2.040721        55.5309 
 547   0.0000       2.045380        55.6576 
 548   0.0000       2.050469        55.7961 
 549   0.0000       2.055241        55.9259 
 550   0.0000       2.068377        56.2834 
 551   0.0000       2.071364        56.3647 
 552   0.0000       2.075740        56.4838 
 553   0.0000       2.080066        56.6015 
 554   0.0000       2.081973        56.6534 
 555   0.0000       2.096505        57.0488 
 556   0.0000       2.103095        57.2281 
 557   0.0000       2.106598        57.3235 
 558   0.0000       2.110749        57.4364 
 559   0.0000       2.123357        57.7795 
 560   0.0000       2.126910        57.8762 
 561   0.0000       2.132912        58.0395 
 562   0.0000       2.142010        58.2871 
 563   0.0000       2.150082        58.5067 
 564   0.0000       2.155620        58.6574 
 565   0.0000       2.168004        58.9944 
 566   0.0000       2.174501        59.1712 
 567   0.0000       2.181113        59.3511 
 568   0.0000       2.187276        59.5188 
 569   0.0000       2.190157        59.5972 
 570   0.0000       2.197336        59.7926 
 571   0.0000       2.205114        60.0042 
 572   0.0000       2.215006        60.2734 
 573   0.0000       2.222087        60.4661 
 574   0.0000       2.231436        60.7205 
 575   0.0000       2.234448        60.8024 
 576   0.0000       2.236812        60.8667 
 577   0.0000       2.243467        61.0479 
 578   0.0000       2.249859        61.2218 
 579   0.0000       2.262369        61.5622 
 580   0.0000       2.266255        61.6679 
 581   0.0000       2.274143        61.8826 
 582   0.0000       2.281853        62.0924 
 583   0.0000       2.292957        62.3945 
 584   0.0000       2.297890        62.5288 
 585   0.0000       2.302394        62.6513 
 586   0.0000       2.313379        62.9502 
 587   0.0000       2.322198        63.1902 
 588   0.0000       2.331739        63.4498 
 589   0.0000       2.341172        63.7065 
 590   0.0000       2.349578        63.9353 
 591   0.0000       2.353600        64.0447 
 592   0.0000       2.363166        64.3050 
 593   0.0000       2.368184        64.4416 
 594   0.0000       2.374457        64.6123 
 595   0.0000       2.387802        64.9754 
 596   0.0000       2.389183        65.0130 
 597   0.0000       2.392417        65.1010 
 598   0.0000       2.400547        65.3222 
 599   0.0000       2.405501        65.4570 
 600   0.0000       2.424172        65.9651 
 601   0.0000       2.430470        66.1364 
 602   0.0000       2.435648        66.2774 
 603   0.0000       2.440512        66.4097 
 604   0.0000       2.453254        66.7564 
 605   0.0000       2.461616        66.9840 
 606   0.0000       2.483151        67.5700 
 607   0.0000       2.486567        67.6629 
 608   0.0000       2.496221        67.9256 
 609   0.0000       2.502646        68.1005 
 610   0.0000       2.513167        68.3868 
 611   0.0000       2.515657        68.4545 
 612   0.0000       2.535361        68.9907 
 613   0.0000       2.555777        69.5462 
 614   0.0000       2.558391        69.6174 
 615   0.0000       2.565520        69.8114 
 616   0.0000       2.578794        70.1726 
 617   0.0000       2.597107        70.6709 
 618   0.0000       2.624980        71.4293 
 619   0.0000       2.633468        71.6603 
 620   0.0000       2.642351        71.9020 
 621   0.0000       2.653693        72.2106 
 622   0.0000       2.655949        72.2721 
 623   0.0000       2.673056        72.7375 
 624   0.0000       2.675883        72.8145 
 625   0.0000       2.684214        73.0412 
 626   0.0000       2.695430        73.3464 
 627   0.0000       2.699744        73.4638 
 628   0.0000       2.707078        73.6633 
 629   0.0000       2.707841        73.6841 
 630   0.0000       2.714938        73.8772 
 631   0.0000       2.732714        74.3609 
 632   0.0000       2.747231        74.7559 
 633   0.0000       2.750716        74.8508 
 634   0.0000       2.762054        75.1593 
 635   0.0000       2.766082        75.2689 
 636   0.0000       2.779458        75.6329 
 637   0.0000       2.781776        75.6960 
 638   0.0000       2.792642        75.9917 
 639   0.0000       2.804396        76.3115 
 640   0.0000       2.820397        76.7469 
 641   0.0000       2.836056        77.1730 
 642   0.0000       2.845765        77.4372 
 643   0.0000       2.858477        77.7831 
 644   0.0000       2.871454        78.1362 
 645   0.0000       2.884325        78.4865 
 646   0.0000       2.892846        78.7183 
 647   0.0000       2.893539        78.7372 
 648   0.0000       2.907840        79.1263 
 649   0.0000       2.925407        79.6044 
 650   0.0000       2.937277        79.9274 
 651   0.0000       2.953572        80.3708 
 652   0.0000       2.972862        80.8957 
 653   0.0000       2.978938        81.0610 
 654   0.0000       2.992930        81.4418 
 655   0.0000       3.003267        81.7230 
 656   0.0000       3.031919        82.5027 
 657   0.0000       3.046418        82.8972 
 658   0.0000       3.070494        83.5524 
 659   0.0000       3.076460        83.7147 
 660   0.0000       3.082997        83.8926 
 661   0.0000       3.096570        84.2620 
 662   0.0000       3.114231        84.7425 
 663   0.0000       3.122574        84.9696 
 664   0.0000       3.136239        85.3414 
 665   0.0000       3.148579        85.6772 
 666   0.0000       3.168262        86.2128 
 667   0.0000       3.180401        86.5431 
 668   0.0000       3.193687        86.9046 
 669   0.0000       3.197895        87.0191 
 670   0.0000       3.211466        87.3884 
 671   0.0000       3.213960        87.4563 
 672   0.0000       3.229759        87.8862 
 673   0.0000       3.244755        88.2943 
 674   0.0000       3.250381        88.4474 
 675   0.0000       3.253504        88.5324 
 676   0.0000       3.264738        88.8380 
 677   0.0000       3.268541        88.9415 
 678   0.0000       3.274755        89.1106 
 679   0.0000       3.292944        89.6056 
 680   0.0000       3.295454        89.6739 
 681   0.0000       3.311671        90.1151 
 682   0.0000       3.327295        90.5403 
 683   0.0000       3.332338        90.6775 
 684   0.0000       3.336935        90.8026 
 685   0.0000       3.354645        91.2845 
 686   0.0000       3.357942        91.3743 
 687   0.0000       3.371501        91.7432 
 688   0.0000       3.388979        92.2188 
 689   0.0000       3.399615        92.5082 
 690   0.0000       3.410379        92.8011 
 691   0.0000       3.412681        92.8638 
 692   0.0000       3.417759        93.0019 
 693   0.0000       3.437413        93.5368 
 694   0.0000       3.442416        93.6729 
 695   0.0000       3.451943        93.9321 
 696   0.0000       3.453507        93.9747 
 697   0.0000       3.455157        94.0196 
 698   0.0000       3.469219        94.4023 
 699   0.0000       3.477928        94.6392 
 700   0.0000       3.487389        94.8967 
 701   0.0000       3.493708        95.0686 
 702   0.0000       3.507923        95.4554 
 703   0.0000       3.512638        95.5837 
 704   0.0000       3.514680        95.6393 
 705   0.0000       3.524003        95.8930 
 706   0.0000       3.532259        96.1177 
 707   0.0000       3.541549        96.3704 
 708   0.0000       3.543731        96.4298 
 709   0.0000       3.555826        96.7589 
 710   0.0000       3.565407        97.0196 
 711   0.0000       3.575834        97.3034 
 712   0.0000       3.586826        97.6025 
 713   0.0000       3.588850        97.6576 
 714   0.0000       3.601506        98.0020 
 715   0.0000       3.606602        98.1406 
 716   0.0000       3.619386        98.4885 
 717   0.0000       3.631393        98.8152 
 718   0.0000       3.644268        99.1656 
 719   0.0000       3.646061        99.2144 
 720   0.0000       3.659825        99.5889 
 721   0.0000       3.665545        99.7446 
 722   0.0000       3.673172        99.9521 
 723   0.0000       3.677254       100.0632 
 724   0.0000       3.687386       100.3389 
 725   0.0000       3.693398       100.5025 
 726   0.0000       3.700745       100.7024 
 727   0.0000       3.706688       100.8641 
 728   0.0000       3.708856       100.9231 
 729   0.0000       3.710675       100.9726 
 730   0.0000       3.714297       101.0712 
 731   0.0000       3.719010       101.1994 
 732   0.0000       3.734407       101.6184 
 733   0.0000       3.738308       101.7245 
 734   0.0000       3.757663       102.2512 
 735   0.0000       3.763122       102.3997 
 736   0.0000       3.765325       102.4597 
 737   0.0000       3.769173       102.5644 
 738   0.0000       3.774287       102.7036 
 739   0.0000       3.779498       102.8454 
 740   0.0000       3.792156       103.1898 
 741   0.0000       3.794450       103.2522 
 742   0.0000       3.801197       103.4358 
 743   0.0000       3.810485       103.6886 
 744   0.0000       3.823495       104.0426 
 745   0.0000       3.841234       104.5253 
 746   0.0000       3.844870       104.6242 
 747   0.0000       3.851861       104.8145 
 748   0.0000       3.859673       105.0270 
 749   0.0000       3.865620       105.1889 
 750   0.0000       3.870406       105.3191 
 751   0.0000       3.878862       105.5492 
 752   0.0000       3.887203       105.7762 
 753   0.0000       3.892726       105.9264 
 754   0.0000       3.904591       106.2493 
 755   0.0000       3.906840       106.3105 
 756   0.0000       3.920475       106.6815 
 757   0.0000       3.930374       106.9509 
 758   0.0000       3.933974       107.0489 
 759   0.0000       3.937685       107.1498 
 760   0.0000       3.941953       107.2660 
 761   0.0000       3.946485       107.3893 
 762   0.0000       3.953176       107.5714 
 763   0.0000       3.955991       107.6480 
 764   0.0000       3.963085       107.8410 
 765   0.0000       3.976000       108.1925 
 766   0.0000       3.984668       108.4283 
 767   0.0000       3.987129       108.4953 
 768   0.0000       3.994338       108.6915 
 769   0.0000       4.003628       108.9443 
 770   0.0000       4.010896       109.1420 
 771   0.0000       4.018943       109.3610 
 772   0.0000       4.024668       109.5168 
 773   0.0000       4.034141       109.7746 
 774   0.0000       4.035657       109.8158 
 775   0.0000       4.048351       110.1612 
 776   0.0000       4.053850       110.3109 
 777   0.0000       4.063761       110.5805 
 778   0.0000       4.073620       110.8488 
 779   0.0000       4.083082       111.1063 
 780   0.0000       4.086650       111.2034 
 781   0.0000       4.092848       111.3721 
 782   0.0000       4.096990       111.4848 
 783   0.0000       4.105604       111.7192 
 784   0.0000       4.121884       112.1622 
 785   0.0000       4.128392       112.3393 
 786   0.0000       4.131196       112.4155 
 787   0.0000       4.137981       112.6002 
 788   0.0000       4.147492       112.8590 
 789   0.0000       4.157720       113.1373 
 790   0.0000       4.168301       113.4252 
 791   0.0000       4.173174       113.5578 
 792   0.0000       4.178205       113.6947 
 793   0.0000       4.187928       113.9593 
 794   0.0000       4.193666       114.1154 
 795   0.0000       4.202448       114.3544 
 796   0.0000       4.207488       114.4916 
 797   0.0000       4.213556       114.6567 
 798   0.0000       4.215814       114.7181 
 799   0.0000       4.220585       114.8480 
 800   0.0000       4.237566       115.3100 
 801   0.0000       4.249771       115.6421 
 802   0.0000       4.253774       115.7511 
 803   0.0000       4.266825       116.1062 
 804   0.0000       4.277350       116.3926 
 805   0.0000       4.284795       116.5952 
 806   0.0000       4.294295       116.8537 
 807   0.0000       4.294521       116.8599 
 808   0.0000       4.311132       117.3119 
 809   0.0000       4.315894       117.4414 
 810   0.0000       4.330324       117.8341 
 811   0.0000       4.351247       118.4035 
 812   0.0000       4.355695       118.5245 
 813   0.0000       4.360118       118.6448 
 814   0.0000       4.373572       119.0109 
 815   0.0000       4.381730       119.2329 
 816   0.0000       4.393082       119.5418 
 817   0.0000       4.406788       119.9148 
 818   0.0000       4.416669       120.1837 
 819   0.0000       4.426319       120.4463 
 820   0.0000       4.432074       120.6029 
 821   0.0000       4.441174       120.8505 
 822   0.0000       4.449481       121.0765 
 823   0.0000       4.456254       121.2608 
 824   0.0000       4.470770       121.6558 
 825   0.0000       4.479200       121.8852 
 826   0.0000       4.491228       122.2125 
 827   0.0000       4.501061       122.4801 
 828   0.0000       4.511167       122.7551 
 829   0.0000       4.516373       122.8968 
 830   0.0000       4.525399       123.1424 
 831   0.0000       4.534687       123.3951 
 832   0.0000       4.537831       123.4807 
 833   0.0000       4.543076       123.6234 
 834   0.0000       4.559970       124.0831 
 835   0.0000       4.561749       124.1315 
 836   0.0000       4.578287       124.5815 
 837   0.0000       4.589368       124.8831 
 838   0.0000       4.601593       125.2157 
 839   0.0000       4.611968       125.4980 
 840   0.0000       4.626063       125.8816 
 841   0.0000       4.636930       126.1773 
 842   0.0000       4.649213       126.5115 
 843   0.0000       4.655908       126.6937 
 844   0.0000       4.665487       126.9544 
 845   0.0000       4.673294       127.1668 
 846   0.0000       4.686179       127.5174 
 847   0.0000       4.692686       127.6945 
 848   0.0000       4.709681       128.1569 
 849   0.0000       4.715137       128.3054 
 850   0.0000       4.727514       128.6422 
 851   0.0000       4.744652       129.1086 
 852   0.0000       4.746523       129.1595 
 853   0.0000       4.774388       129.9177 
 854   0.0000       4.787152       130.2650 
 855   0.0000       4.799118       130.5906 
 856   0.0000       4.801320       130.6505 
 857   0.0000       4.820125       131.1623 
 858   0.0000       4.825462       131.3075 
 859   0.0000       4.829873       131.4275 
 860   0.0000       4.842404       131.7685 
 861   0.0000       4.863724       132.3487 
 862   0.0000       4.869523       132.5065 
 863   0.0000       4.886955       132.9808 
 864   0.0000       4.891664       133.1089 
 865   0.0000       4.898039       133.2824 
 866   0.0000       4.910501       133.6215 
 867   0.0000       4.928436       134.1096 
 868   0.0000       4.933524       134.2480 
 869   0.0000       4.946311       134.5960 
 870   0.0000       4.959518       134.9554 
 871   0.0000       4.965646       135.1221 
 872   0.0000       4.981680       135.5584 
 873   0.0000       4.994617       135.9104 
 874   0.0000       5.002822       136.1337 
 875   0.0000       5.018653       136.5645 
 876   0.0000       5.020636       136.6185 
 877   0.0000       5.031827       136.9230 
 878   0.0000       5.035561       137.0246 
 879   0.0000       5.050801       137.4393 
 880   0.0000       5.073178       138.0482 
 881   0.0000       5.091615       138.5499 
 882   0.0000       5.093346       138.5970 
 883   0.0000       5.109865       139.0465 
 884   0.0000       5.127056       139.5143 
 885   0.0000       5.132350       139.6583 
 886   0.0000       5.148542       140.0989 
 887   0.0000       5.164891       140.5438 
 888   0.0000       5.169302       140.6639 
 889   0.0000       5.186876       141.1421 
 890   0.0000       5.191079       141.2564 
 891   0.0000       5.213360       141.8627 
 892   0.0000       5.219735       142.0362 
 893   0.0000       5.232506       142.3837 
 894   0.0000       5.239214       142.5663 
 895   0.0000       5.259953       143.1306 
 896   0.0000       5.262911       143.2111 
 897   0.0000       5.279275       143.6564 
 898   0.0000       5.301888       144.2717 
 899   0.0000       5.312439       144.5588 
 900   0.0000       5.318527       144.7245 
 901   0.0000       5.334964       145.1718 
 902   0.0000       5.345715       145.4643 
 903   0.0000       5.350644       145.5984 
 904   0.0000       5.366645       146.0338 
 905   0.0000       5.377190       146.3208 
 906   0.0000       5.398156       146.8913 
 907   0.0000       5.417866       147.4276 
 908   0.0000       5.422305       147.5484 
 909   0.0000       5.428390       147.7140 
 910   0.0000       5.449056       148.2764 
 911   0.0000       5.456878       148.4892 
 912   0.0000       5.460693       148.5930 
 913   0.0000       5.487572       149.3244 
 914   0.0000       5.491655       149.4355 
 915   0.0000       5.498594       149.6244 
 916   0.0000       5.523103       150.2913 
 917   0.0000       5.528530       150.4390 
 918   0.0000       5.542869       150.8291 
 919   0.0000       5.552338       151.0868 
 920   0.0000       5.560112       151.2983 
 921   0.0000       5.580841       151.8624 
 922   0.0000       5.594608       152.2370 
 923   0.0000       5.613094       152.7401 
 924   0.0000       5.616950       152.8450 
 925   0.0000       5.622192       152.9876 
 926   0.0000       5.632532       153.2690 
 927   0.0000       5.643337       153.5630 
 928   0.0000       5.654781       153.8744 
 929   0.0000       5.667784       154.2282 
 930   0.0000       5.680288       154.5685 
 931   0.0000       5.700558       155.1201 
 932   0.0000       5.706271       155.2755 
 933   0.0000       5.716299       155.5484 
 934   0.0000       5.734573       156.0457 
 935   0.0000       5.741643       156.2380 
 936   0.0000       5.747586       156.3998 
 937   0.0000       5.762840       156.8148 
 938   0.0000       5.784784       157.4120 
 939   0.0000       5.790715       157.5734 
 940   0.0000       5.818682       158.3344 
 941   0.0000       5.863582       159.5562 
 942   0.0000       5.874442       159.8517 
 943   0.0000       5.893794       160.3783 
 944   0.0000       5.942435       161.7019 
 945   0.0000       5.962073       162.2363 
 946   0.0000       6.046056       164.5216 
 947   0.0000       6.075112       165.3122 
 948   0.0000       6.083132       165.5304 
 949   0.0000       6.103374       166.0813 
 950   0.0000       6.138540       167.0382 
 951   0.0000       6.158569       167.5832 
 952   0.0000       6.161763       167.6701 
 953   0.0000       6.177442       168.0967 
 954   0.0000       6.197436       168.6408 
 955   0.0000       6.216727       169.1657 
 956   0.0000       6.227255       169.4522 
 957   0.0000       6.237813       169.7395 
 958   0.0000       6.252060       170.1272 
 959   0.0000       6.274654       170.7420 
 960   0.0000       6.289135       171.1361 
 961   0.0000       6.296711       171.3422 
 962   0.0000       6.319663       171.9668 
 963   0.0000       6.332496       172.3160 
 964   0.0000       6.344215       172.6349 
 965   0.0000       6.349284       172.7728 
 966   0.0000       6.388403       173.8373 
 967   0.0000       6.409202       174.4033 
 968   0.0000       6.460257       175.7925 
 969   0.0000       6.540582       177.9783 
 970   0.0000       6.599942       179.5936 
 971   0.0000       6.635490       180.5609 
 972   0.0000       6.783493       184.5882 
 973   0.0000       6.816082       185.4750 
 974   0.0000       6.834305       185.9709 
 975   0.0000       6.865199       186.8116 
 976   0.0000       6.896307       187.6581 
 977   0.0000       6.913786       188.1337 
 978   0.0000       6.936869       188.7618 
 979   0.0000       6.960902       189.4158 
 980   0.0000       6.986830       190.1213 
 981   0.0000       6.994017       190.3169 
 982   0.0000       7.029929       191.2941 
 983   0.0000       7.044637       191.6943 
 984   0.0000       7.071686       192.4303 
 985   0.0000       7.089054       192.9030 
 986   0.0000       7.226459       196.6419 
 987   0.0000       7.247535       197.2155 
 988   0.0000       7.321168       199.2191 
 989   0.0000       7.340743       199.7518 
 990   0.0000       7.494988       203.9490 
 991   0.0000       7.568796       205.9574 
 992   0.0000       7.587011       206.4531 
 993   0.0000       7.674657       208.8380 
 994   0.0000       7.729479       210.3298 
 995   0.0000       7.816057       212.6857 
 996   0.0000       7.887491       214.6295 
 997   0.0000       7.971667       216.9201 
 998   0.0000       8.222738       223.7521 
 999   0.0000       9.393529       255.6109 
 1000   0.0000       9.398260       255.7397 
 1001   0.0000       9.428616       256.5657 
 1002   0.0000       9.443581       256.9729 
 1003   0.0000       9.448478       257.1062 
 1004   0.0000       9.474187       257.8057 
 1005   0.0000       9.619168       261.7509 
 1006   0.0000      10.071975       274.0724 
 1007   0.0000      10.081464       274.3306 
 1008   0.0000      10.093499       274.6581 
 1009   0.0000      10.191565       277.3266 
 1010   0.0000      10.202842       277.6334 
 1011   0.0000      10.233582       278.4699 
 1012   0.0000      10.295156       280.1454 
 1013   0.0000      10.336801       281.2787 
 1014   0.0000      10.374477       282.3039 
 1015   0.0000      10.543645       286.9072 
 1016   0.0000      16.365910       445.3390 
 1017   0.0000      17.416035       473.9144 
 1018   0.0000      18.034899       490.7546 
 1019   0.0000      18.295743       497.8525 
 1020   0.0000      18.502727       503.4848 
 1021   0.0000      18.620212       506.6817 
 1022   0.0000      20.393792       554.9433 
 1023   0.0000      21.337654       580.6271 
 1024   0.0000      21.608499       587.9971 

                 SPIN DOWN ORBITALS
  NO   OCC          E(Eh)            E(eV) 
   0   1.0000    -261.575703     -7117.8368 
   1   1.0000    -104.794409     -2851.6008 
   2   1.0000    -104.791442     -2851.5201 
   3   1.0000    -104.789591     -2851.4697 
   4   1.0000     -32.084970      -873.0764 
   5   1.0000     -27.562931      -750.0255 
   6   1.0000     -27.562785      -750.0215 
   7   1.0000     -27.562716      -750.0196 
   8   1.0000     -20.624280      -561.2152 
   9   1.0000     -11.422406      -310.8195 
  10   1.0000     -11.279790      -306.9387 
  11   1.0000     -11.273878      -306.7778 
  12   1.0000     -11.258073      -306.3477 
  13   1.0000     -11.238968      -305.8279 
  14   1.0000     -11.237879      -305.7982 
  15   1.0000     -11.234694      -305.7116 
  16   1.0000     -11.225427      -305.4594 
  17   1.0000     -10.521044      -286.2921 
  18   1.0000     -10.518044      -286.2105 
  19   1.0000     -10.516149      -286.1590 
  20   1.0000      -7.986976      -217.3367 
  21   1.0000      -7.986197      -217.3155 
  22   1.0000      -7.986160      -217.3144 
  23   1.0000      -7.983905      -217.2531 
  24   1.0000      -7.983243      -217.2351 
  25   1.0000      -7.983147      -217.2325 
  26   1.0000      -7.982148      -217.2053 
  27   1.0000      -7.981217      -217.1800 
  28   1.0000      -7.981138      -217.1778 
  29   1.0000      -4.159664      -113.1902 
  30   1.0000      -2.681205       -72.9593 
  31   1.0000      -2.681139       -72.9575 
  32   1.0000      -2.680743       -72.9467 
  33   1.0000      -1.463681       -39.8288 
  34   1.0000      -1.118705       -30.4415 
  35   1.0000      -1.101818       -29.9820 
  36   1.0000      -1.053708       -28.6729 
  37   1.0000      -1.041071       -28.3290 
  38   1.0000      -1.038085       -28.2477 
  39   1.0000      -1.019805       -27.7503 
  40   1.0000      -1.008545       -27.4439 
  41   1.0000      -0.953372       -25.9426 
  42   1.0000      -0.891262       -24.2525 
  43   1.0000      -0.829610       -22.5748 
  44   1.0000      -0.723775       -19.6949 
  45   1.0000      -0.717946       -19.5363 
  46   1.0000      -0.705823       -19.2064 
  47   1.0000      -0.684836       -18.6353 
  48   1.0000      -0.649653       -17.6779 
  49   1.0000      -0.621242       -16.9049 
  50   1.0000      -0.616210       -16.7679 
  51   1.0000      -0.603441       -16.4205 
  52   1.0000      -0.599925       -16.3248 
  53   1.0000      -0.586374       -15.9560 
  54   1.0000      -0.578843       -15.7511 
  55   1.0000      -0.560220       -15.2444 
  56   1.0000      -0.547322       -14.8934 
  57   1.0000      -0.545351       -14.8398 
  58   1.0000      -0.535888       -14.5822 
  59   1.0000      -0.526982       -14.3399 
  60   1.0000      -0.522148       -14.2084 
  61   1.0000      -0.508443       -13.8354 
  62   1.0000      -0.488617       -13.2959 
  63   1.0000      -0.486705       -13.2439 
  64   1.0000      -0.485104       -13.2004 
  65   1.0000      -0.456063       -12.4101 
  66   1.0000      -0.453150       -12.3308 
  67   1.0000      -0.450000       -12.2451 
  68   1.0000      -0.433388       -11.7931 
  69   1.0000      -0.431709       -11.7474 
  70   1.0000      -0.415332       -11.3017 
  71   1.0000      -0.354629        -9.6500 
  72   0.0000       0.012751         0.3470 
  73   0.0000       0.023942         0.6515 
  74   0.0000       0.024821         0.6754 
  75   0.0000       0.030861         0.8398 
  76   0.0000       0.039483         1.0744 
  77   0.0000       0.041332         1.1247 
  78   0.0000       0.042623         1.1598 
  79   0.0000       0.042957         1.1689 
  80   0.0000       0.044120         1.2006 
  81   0.0000       0.054388         1.4800 
  82   0.0000       0.056508         1.5377 
  83   0.0000       0.061505         1.6736 
  84   0.0000       0.062767         1.7080 
  85   0.0000       0.064607         1.7580 
  86   0.0000       0.065267         1.7760 
  87   0.0000       0.071645         1.9495 
  88   0.0000       0.077271         2.1026 
  89   0.0000       0.081933         2.2295 
  90   0.0000       0.089424         2.4334 
  91   0.0000       0.091486         2.4895 
  92   0.0000       0.093604         2.5471 
  93   0.0000       0.094284         2.5656 
  94   0.0000       0.099511         2.7078 
  95   0.0000       0.102567         2.7910 
  96   0.0000       0.103742         2.8230 
  97   0.0000       0.104548         2.8449 
  98   0.0000       0.105425         2.8687 
  99   0.0000       0.107938         2.9372 
 100   0.0000       0.110738         3.0133 
 101   0.0000       0.115587         3.1453 
 102   0.0000       0.119490         3.2515 
 103   0.0000       0.122032         3.3207 
 104   0.0000       0.124322         3.3830 
 105   0.0000       0.125797         3.4231 
 106   0.0000       0.126472         3.4415 
 107   0.0000       0.129108         3.5132 
 108   0.0000       0.131874         3.5885 
 109   0.0000       0.133460         3.6316 
 110   0.0000       0.137268         3.7353 
 111   0.0000       0.138873         3.7789 
 112   0.0000       0.144385         3.9289 
 113   0.0000       0.145780         3.9669 
 114   0.0000       0.149820         4.0768 
 115   0.0000       0.152109         4.1391 
 116   0.0000       0.156909         4.2697 
 117   0.0000       0.162323         4.4170 
 118   0.0000       0.163326         4.4443 
 119   0.0000       0.166168         4.5217 
 120   0.0000       0.169922         4.6238 
 121   0.0000       0.171850         4.6763 
 122   0.0000       0.176553         4.8043 
 123   0.0000       0.180297         4.9061 
 124   0.0000       0.183846         5.0027 
 125   0.0000       0.187158         5.0928 
 126   0.0000       0.188391         5.1264 
 127   0.0000       0.192743         5.2448 
 128   0.0000       0.196408         5.3445 
 129   0.0000       0.198087         5.3902 
 130   0.0000       0.199300         5.4232 
 131   0.0000       0.202225         5.5028 
 132   0.0000       0.204217         5.5570 
 133   0.0000       0.208957         5.6860 
 134   0.0000       0.215527         5.8648 
 135   0.0000       0.217286         5.9127 
 136   0.0000       0.221622         6.0307 
 137   0.0000       0.225557         6.1377 
 138   0.0000       0.228360         6.2140 
 139   0.0000       0.233281         6.3479 
 140   0.0000       0.236647         6.4395 
 141   0.0000       0.240937         6.5562 
 142   0.0000       0.241625         6.5750 
 143   0.0000       0.246842         6.7169 
 144   0.0000       0.248925         6.7736 
 145   0.0000       0.252727         6.8770 
 146   0.0000       0.255291         6.9468 
 147   0.0000       0.257844         7.0163 
 148   0.0000       0.259714         7.0672 
 149   0.0000       0.264777         7.2049 
 150   0.0000       0.269397         7.3307 
 151   0.0000       0.273503         7.4424 
 152   0.0000       0.277706         7.5568 
 153   0.0000       0.282342         7.6829 
 154   0.0000       0.285353         7.7648 
 155   0.0000       0.289816         7.8863 
 156   0.0000       0.295494         8.0408 
 157   0.0000       0.297669         8.1000 
 158   0.0000       0.300550         8.1784 
 159   0.0000       0.307927         8.3791 
 160   0.0000       0.310465         8.4482 
 161   0.0000       0.316954         8.6248 
 162   0.0000       0.320430         8.7193 
 163   0.0000       0.321485         8.7480 
 164   0.0000       0.329604         8.9690 
 165   0.0000       0.334012         9.0889 
 166   0.0000       0.335560         9.1311 
 167   0.0000       0.338778         9.2186 
 168   0.0000       0.341687         9.2978 
 169   0.0000       0.344664         9.3788 
 170   0.0000       0.350174         9.5287 
 171   0.0000       0.353313         9.6141 
 172   0.0000       0.358607         9.7582 
 173   0.0000       0.359999         9.7961 
 174   0.0000       0.361863         9.8468 
 175   0.0000       0.363737         9.8978 
 176   0.0000       0.368723        10.0335 
 177   0.0000       0.375105        10.2071 
 178   0.0000       0.377615        10.2754 
 179   0.0000       0.380211        10.3461 
 180   0.0000       0.383593        10.4381 
 181   0.0000       0.384985        10.4760 
 182   0.0000       0.388070        10.5599 
 183   0.0000       0.392273        10.6743 
 184   0.0000       0.394123        10.7246 
 185   0.0000       0.397638        10.8203 
 186   0.0000       0.398252        10.8370 
 187   0.0000       0.400337        10.8937 
 188   0.0000       0.403712        10.9856 
 189   0.0000       0.407773        11.0961 
 190   0.0000       0.408902        11.1268 
 191   0.0000       0.414747        11.2858 
 192   0.0000       0.416932        11.3453 
 193   0.0000       0.421632        11.4732 
 194   0.0000       0.426142        11.5959 
 195   0.0000       0.433469        11.7953 
 196   0.0000       0.436701        11.8832 
 197   0.0000       0.443087        12.0570 
 198   0.0000       0.445780        12.1303 
 199   0.0000       0.449582        12.2337 
 200   0.0000       0.452249        12.3063 
 201   0.0000       0.456314        12.4169 
 202   0.0000       0.459169        12.4946 
 203   0.0000       0.460745        12.5375 
 204   0.0000       0.461581        12.5603 
 205   0.0000       0.466565        12.6959 
 206   0.0000       0.473657        12.8889 
 207   0.0000       0.475590        12.9415 
 208   0.0000       0.479714        13.0537 
 209   0.0000       0.480833        13.0841 
 210   0.0000       0.487819        13.2742 
 211   0.0000       0.492412        13.3992 
 212   0.0000       0.494555        13.4575 
 213   0.0000       0.498126        13.5547 
 214   0.0000       0.500614        13.6224 
 215   0.0000       0.504249        13.7213 
 216   0.0000       0.508217        13.8293 
 217   0.0000       0.511959        13.9311 
 218   0.0000       0.512302        13.9405 
 219   0.0000       0.518583        14.1114 
 220   0.0000       0.519577        14.1384 
 221   0.0000       0.521245        14.1838 
 222   0.0000       0.524061        14.2604 
 223   0.0000       0.525501        14.2996 
 224   0.0000       0.529436        14.4067 
 225   0.0000       0.531489        14.4625 
 226   0.0000       0.534691        14.5497 
 227   0.0000       0.538855        14.6630 
 228   0.0000       0.541302        14.7296 
 229   0.0000       0.544705        14.8222 
 230   0.0000       0.545701        14.8493 
 231   0.0000       0.550822        14.9886 
 232   0.0000       0.552732        15.0406 
 233   0.0000       0.559191        15.2164 
 234   0.0000       0.560602        15.2547 
 235   0.0000       0.568734        15.4760 
 236   0.0000       0.571040        15.5388 
 237   0.0000       0.572640        15.5823 
 238   0.0000       0.575615        15.6633 
 239   0.0000       0.579683        15.7740 
 240   0.0000       0.584663        15.9095 
 241   0.0000       0.586909        15.9706 
 242   0.0000       0.587883        15.9971 
 243   0.0000       0.593958        16.1624 
 244   0.0000       0.599272        16.3070 
 245   0.0000       0.602853        16.4045 
 246   0.0000       0.605201        16.4684 
 247   0.0000       0.609799        16.5935 
 248   0.0000       0.614543        16.7226 
 249   0.0000       0.615883        16.7590 
 250   0.0000       0.619436        16.8557 
 251   0.0000       0.626094        17.0369 
 252   0.0000       0.629382        17.1263 
 253   0.0000       0.632489        17.2109 
 254   0.0000       0.637828        17.3562 
 255   0.0000       0.642621        17.4866 
 256   0.0000       0.644845        17.5471 
 257   0.0000       0.650423        17.6989 
 258   0.0000       0.652799        17.7636 
 259   0.0000       0.657010        17.8781 
 260   0.0000       0.660776        17.9806 
 261   0.0000       0.663828        18.0637 
 262   0.0000       0.667705        18.1692 
 263   0.0000       0.672013        18.2864 
 264   0.0000       0.675600        18.3840 
 265   0.0000       0.678208        18.4550 
 266   0.0000       0.681756        18.5515 
 267   0.0000       0.689201        18.7541 
 268   0.0000       0.691772        18.8241 
 269   0.0000       0.696426        18.9507 
 270   0.0000       0.699240        19.0273 
 271   0.0000       0.704680        19.1753 
 272   0.0000       0.710154        19.3243 
 273   0.0000       0.712781        19.3957 
 274   0.0000       0.720612        19.6089 
 275   0.0000       0.723961        19.7000 
 276   0.0000       0.724661        19.7190 
 277   0.0000       0.734818        19.9954 
 278   0.0000       0.735774        20.0214 
 279   0.0000       0.739888        20.1334 
 280   0.0000       0.746426        20.3113 
 281   0.0000       0.749227        20.3875 
 282   0.0000       0.757522        20.6132 
 283   0.0000       0.762893        20.7594 
[...]
  | sigma^2 in % of trace(Dip) retained ...   1.70e+01
  | sigma^2 in % of trace(Dpq) retained ...   1.39e-01
  | Av. % of trace(Di) retained         ...  99.998595370426
  | Av. % of trace(Dp) retained         ...  99.999998011012
  | sigma^2 in % of trace(Di) retained  ...   6.58e-07
  | sigma^2 in % of trace(Dp) retained  ...   3.22e-12
 Distributions of % trace(Dij) recovered:
  |       >= 99.9  ...   105 ( 22.3 % of all IJ-pairs)
  |   [80.0, 90.0) ...    20 (  4.2 % of all IJ-pairs)
  |   [90.0, 99.0) ...   264 ( 56.1 % of all IJ-pairs)
  |   [99.0, 99.9) ...    82 ( 17.4 % of all IJ-pairs)
 Distributions of % trace(Dip) recovered:
  |   [80.0, 90.0) ...    12 ( 10.6 % of all IP-pairs)
  |   [90.0, 99.0) ...    54 ( 47.8 % of all IP-pairs)
  |   [99.0, 99.9) ...    47 ( 41.6 % of all IP-pairs)
 Distributions of % trace(Dpq) recovered:
  |       >= 99.9  ...     5 ( 33.3 % of all PQ-pairs)
  |   [99.0, 99.9) ...    10 ( 66.7 % of all PQ-pairs)
 Distributions of % trace(Di) recovered :
  |       >= 99.9  ...    43 (100.0 % of all I-pairs )
 Distributions of % trace(Dp) recovered :
  |       >= 99.9  ...     5 (100.0 % of all P-pairs )

                       ===========================
                       1037 OF 1671 PAIRS ARE KEPT
                       ===========================

 Initial PAO correlation energy (all pairs)    ...  -2.6789306858 Eh
 Energy constituents in PAO basis (Eh):
  | Vijab(+0) ...  -2.2516595432
  | Viab (-1) ...  -0.1740181454
  | Vab  (-2) ...  -0.0573223296
  | Va   (-1) ...  -0.0000461592
  | Vija (+1) ...  -0.0714361923
  | Vij  (+2) ...  -0.0155637608
  | Via  (+0) ...  -0.1087182737
  | Vi   (+1) ...  -0.0001662817
 Initial PNO correlation energy                ...  -2.6450317190 Eh
 Energy constituents in PNO basis (Eh):
  | Vijab(+0) ...  -2.2331794152 (err=  0.0184801280)
  | Viab (-1) ...  -0.1601279225 (err=  0.0138902229)
  | Vab  (-2) ...  -0.0568646935 (err=  0.0004576361)
  | Va   (-1) ...  -0.0000267287 (err=  0.0000194305)
  | Vija (+1) ...  -0.0705388912 (err=  0.0008973011)
  | Vij  (+2) ...  -0.0155170091 (err=  0.0000467516)
  | Via  (+0) ...  -0.1086112024 (err=  0.0001070713)
  | Vi   (+1) ...  -0.0001658564 (err=  0.0000004254)
 Sum of total truncation errors ...   0.0338989669 Eh
  | Pair screening ...   0.0119281900 Eh
  | PNO truncation ...   0.0219707768 Eh

 UMP2 correlation energy (PAO) ...  -2.6737766332
  | alpha-alpha ...  -0.3829627245 (NP_aa=  898)
  | alpha-beta  ...  -1.9873167935 (NP_ab= 1646)
  | beta -beta  ...  -0.3034971151 (NP_bb=  715)
 UMP2 correlation energy (PNO) ...  -2.6395207575
  | alpha-alpha ...  -0.3709906177 (err=  0.0119721068, NP_aa=  551)
  | alpha-beta  ...  -1.9691021291 (err=  0.0182146644, NP_ab= 1012)
  | beta -beta  ...  -0.2994280106 (err=  0.0040691045, NP_bb=  428)
 Sum of total UMP2 truncation errors ...   0.0342558757 Eh
  | Pair screening ...   0.0119334045 Eh
  | PNO truncation ...   0.0223224712 Eh
 Timing for NEV-PNO construction (sec.)
  | Intermediate construction  ..           42.343
  | Amplitude construction     ..           59.354
  | Total time                 ..          101.697
 Making pair pair interaction lists ...      ok
 Total size for 2-ext PNO integrals ...     10.4 MB
Checking the number of SOMO/SOMO doubles PNOs ... 
 #Truncate: (72, 72)[170] -> [85] .. 
 #Truncate: (73, 73)[173] -> [85] .. 
 #Truncate: (74, 74)[173] -> [85] .. 
 #Truncate: (75, 75)[171] -> [85] .. 
 #Truncate: (76, 76)[173] -> [85] .. 

--------------------------------
LOCAL RI TRANSFORMATION (VABPAO)
--------------------------------

Number of PAOs:    1030
Basis functions:   1025 (343 shells)
Aux. functions:    2424 (644 shells)

Processing maps (0.0 sec)
Average map sizes:
   Aux shells -> PAOs           1030.0
   PAOs       -> AO shells       343.0

Calculating integrals (211.6 sec, 37370.165 MB)
Finished
-----------------------------
LOCAL RI TRANSFORMATION (IJV)
-----------------------------

Orbital window:      29 to 76
Basis functions:   1025 (343 shells)
Aux. functions:    2424 (644 shells)

Processing maps (0.0 sec)
Average map sizes:
   Aux shells -> MOs(i)           46.3
   Aux shells -> MOs(j)           48.0
   MOs        -> AO shells       341.1

Calculating integrals (22.9 sec, 41.243 MB)
Sorting integrals (0.4 sec, 41.216 MB)
Total time for the integral transformation: 23.4 sec


-------------------------------------
Pair Pair Term precalculation with     
RI-(ij|mn) and (im|jn) transformation  
ON THE FLY                             
-------------------------------------

   IBatch   1 (of   2)              ... done ( 1443.203 sec)
   IBatch   2 (of   2)              ... done (  499.528 sec)
Total EXT                           ...        1942.732 sec

---------------------
RI-PNO TRANSFORMATION
---------------------

Total Number of PNOs                   ... 32349
Total Number of IJ-PNOs                ... 28271
Total Number of IP-PNOs                ...  3125
Total Number of PQ-PNOs                ...   953
Total Number of IJ-pairs               ...   899
Total Number of PI-pairs               ...   113
Total Number of PQ-pairs               ...    25
Average number of PNOs per pair        ...    31
Maximal number of PNOs per pair        ...    85
>> Statistics for ij-pairs..
   #pairs with  1 -  5 PNOs   :    0
   #pairs with  6 - 10 PNOs   :    0
   #pairs with 11 - 15 PNOs   :   96
   #pairs with 16 - 20 PNOs   :  170
   #pairs with 21 - 25 PNOs   :  174
   #pairs with 26 - 30 PNOs   :  114
   #pairs with 31 - 35 PNOs   :   60
   #pairs with 36 - 40 PNOs   :   54
   #pairs with 41 - 45 PNOs   :   44
   #pairs with 46 - 50 PNOs   :   20
   #pairs with 51 - 55 PNOs   :   35
   #pairs with 56 - 60 PNOs   :   52
   #pairs with 61 - 65 PNOs   :   75
   #pairs with 66 - 70 PNOs   :    3
   #pairs with 76 - 80 PNOs   :    2
>> Statistics for ip-pairs..
   #pairs with  1 -  5 PNOs   :    0
   #pairs with  6 - 10 PNOs   :    2
   #pairs with 11 - 15 PNOs   :   11
   #pairs with 16 - 20 PNOs   :   12
   #pairs with 21 - 25 PNOs   :   20
   #pairs with 26 - 30 PNOs   :    8
   #pairs with 31 - 35 PNOs   :   47
   #pairs with 36 - 40 PNOs   :   11
   #pairs with 41 - 45 PNOs   :    2
   #pairs with 46 - 50 PNOs   :    0
>> Statistics for pq-pairs..
   #pairs with  1 -  5 PNOs   :    0
   #pairs with  6 - 10 PNOs   :    0
   #pairs with 11 - 15 PNOs   :    0
   #pairs with 16 - 20 PNOs   :    0
   #pairs with 21 - 25 PNOs   :   10
   #pairs with 26 - 30 PNOs   :   10
   #pairs with 31 - 35 PNOs   :    0
   #pairs with 36 - 40 PNOs   :    0
   #pairs with 41 - 45 PNOs   :    0
   #pairs with 46 - 50 PNOs   :    0
   #pairs with 81 - 85 PNOs   :    5

Generation of (ij|ab)[P] integrals            ... on
Generation of (ia|bc)[P],(ja|bc)[P] integrals ... on
Storage of 3 and 4 external integrals         ... on
Generation of ALL (ka|bc)[P] integrals        ... on
Keep RI integrals in memory                   ... off

Ibatch:  1 (of  1)
Starting 2-4 index PNO integral generation ... done

Timings:
Total PNO integral transformation time     ...       1852.370 sec
Size of the 3-external file                ...       276 MB
Size of the 4-external file                ...      1885 MB
Size of the IKJL file                      ...        16 MB
Size of the all 3-external file            ...      6638 MB
Size of the 1-external file                ...        20 MB

Size of the PAO/PNO coefficient matrices   ...     203.7 MB

Making pair/pair overlap matrices          ... done (  321.544 sec)
Size of the pair overlap file              ...    2224.0 MB
Total # unrestricted pairs ...       1991
  # of alpha-alpha pairs   ...        551
  # of alpha-beta pairs    ...       1012
  # of beta-beta pairs     ...        428
Constructing the guess amplitudes          ... done (    0.550 sec)

-------------------------
FINAL STARTUP INFORMATION
-------------------------

E(0)                                       ...  -3028.472280772
E(SL-UMP2 in NEV-PNO space)                ...     -2.674714176
Initial E(tot)                             ...  -3031.146994948
<T|T>                                      ...      0.531968651
Number of unrestricted pairs included      ... 1991
Total number of pairs                      ... 4095
----------------------------------------------------------
                     OPEN-SHELL COUPLED CLUSTER ITERATIONS
----------------------------------------------------------

Number of PNO amplitudes to be optimized        ...          1999213
Number of canonical amplitudes for strong pairs ...       1798271167
Untruncated number of canonical amplitudes      ...       3698645738

Iter       E(tot)           E(Corr)          Delta-E          Residual     Time
  0  -3031.154253986     -2.646779795      0.027934381      0.021150619 1586.60
                           *** Turning on DIIS ***
  1  -3031.271120201     -2.763646010     -0.116866215      0.011108551 1592.71
  2  -3031.336199259     -2.828725068     -0.065079058      0.008463961 1609.50
  3  -3031.358419478     -2.850945287     -0.022220219      0.003415921 1596.39
  4  -3031.366211334     -2.858737143     -0.007791856      0.002655294 1599.19
  5  -3031.370513104     -2.863038913     -0.004301770      0.001500619 1596.90
  6  -3031.372100560     -2.864626369     -0.001587456      0.000753852 1632.76
  7  -3031.372757956     -2.865283766     -0.000657396      0.000471639 1661.55
  8  -3031.372906000     -2.865431809     -0.000148043      0.000214428 1661.88
  9  -3031.372965780     -2.865491589     -0.000059780      0.000144438 1618.61
 10  -3031.372969016     -2.865494825     -0.000003236      0.000079433 1585.14
 11  -3031.372981868     -2.865507677     -0.000012852      0.000064316 1590.34
 12  -3031.372986755     -2.865512564     -0.000004887      0.000038518 1581.48
 13  -3031.372988899     -2.865514708     -0.000002144      0.000017494 1600.74
 14  -3031.372990516     -2.865516325     -0.000001617      0.000011911 1626.83
 15  -3031.372989713     -2.865515523      0.000000802      0.000005190 1405.36
               --- The CCSD iterations have converged ---

E(0)                                       ...  -3028.472280772
E(CORR)(strong-pairs)                      ...     -2.865515523
E(CORR)(weak-pairs)                        ...     -0.035193419
E(CORR)(corrected)                         ...     -2.900708942
E(TOT)                                     ...  -3031.372989713
Singles norm <S|S>**1/2                    ...      0.196668804 ( 0.064601734, 0.132067071)  
T1 diagnostic                              ...      0.020616493                              
<S**2>(linearized)                         ...      8.7508692 (ideal value:      8.7500000)

----------------------
LARGEST PNO AMPLITUDES
----------------------
  49b-> 72b  -1b-> -1b       0.055173
  52b-> 73b  -1b-> -1b       0.054740
  51b-> 73b  -1b-> -1b       0.053079
  46a-> 77a  46b-> 77b       0.050740
  47a-> 77a  47b-> 77b       0.047862
  44a-> 77a  44b-> 77b       0.047337
  49b-> 76b  -1b-> -1b       0.047152
  49b-> 75b  -1b-> -1b       0.046477
  42b-> 74b  -1b-> -1b       0.045964
  56a-> 77a  56b-> 77b       0.045523
  35b-> 72b  -1b-> -1b       0.044980
  38b-> 74b  -1b-> -1b       0.044493
  43a-> 77a  43b-> 77b       0.044264
  55a-> 77a  55b-> 77b       0.044031
  70a-> 77a  70b-> 77b       0.043552
  62a-> 77a  62b-> 77b       0.043541

Total # unrestricted pairs ...       1268
  # of alpha-alpha pairs   ...        347
  # of alpha-beta pairs    ...        634
  # of beta-beta pairs     ...        287

-------------------------------------------
DLPNO BASED TRIPLES CORRECTION
-------------------------------------------

Singles multiplier          ...  1.000000
Fragment selection                          .... not used
TCutTNO                     ... 1.000e-09
TCutMP2Pairs                ... 1.000e-05
TCutDOStrong                ... 2.000e-02
TCutMKNStrong               ... 1.000e-02
TCutDOWeak                  ... 4.000e-02
TCutMKNWeak                 ... 1.000e-01
NTCutTNO                    ... 1

Number of Triples that are to be computed         ...     30556

 . . . . . . . . .
10% done  
20% done  
30% done  
40% done  
50% done  
60% done  
70% done  
80% done  
90% done  
          Batch   1   done (  12773.259 sec)

Triples-Correction TCutTNO=   1.000e-09 (NWeakPairs = 0  1  2  3)  -0.115865122631   -0.001706366817    0.000000000000    0.000000000000
Triples-Correction  -0.117571489448

Triples timings:
Total time                      ... 13321.680 sec

Triples List generation         ...     0.000 sec
TNO generation                  ...   548.176 sec
Pair density generation         ...     0.088 sec
Look up tables                  ...     0.106 sec
Generating 3-index integrals    ...  7804.082 sec
Make 4-ind.int. from 3-ind.int  ...     3.151 sec
Projecting amplitudes (D + S)   ...  4746.756 sec
Sorting integrals for spin cases...    44.886 sec
Calculate W0/W1                 ...   141.926 sec
Energy contr. (sum over a,b,c)  ...    32.332 sec

Everything after 3-index        ...  5081.784 sec

Energy contribution AAA         ...    21.178 sec
Energy contribution AAB         ...    97.677 sec
Energy contribution ABB         ...    88.607 sec
Energy contribution BBB         ...    11.717 sec
prep                ...     2.841 sec
makeTTNO            ...  4697.598 sec
copyij              ...     0.117 sec
copyil              ...     3.629 sec
transposeij         ...     0.070 sec
newMatInDoubleProj  ...    46.261 sec
BlasInDoubleProj    ...  2575.378 sec
ProjSingles         ...    40.379 sec
ProjDoubles         ...  4706.376 sec
overall Doubles for projection      ... 2705110
used Doubles for projection         ... 2705110


Number of Triples   (0, 1, 2, 3 weak pairs; overall):  14182   11073       0       0  ( 25255)
Number of Atoms     (0, 1, 2, 3 weak pairs; overall):   18.6    13.5     0.0     0.0  (    29)
Number of PAOs      (0, 1, 2, 3 weak pairs; overall):  736.6   547.1     0.0     0.0  (  1025)
Number of AuxFcns   (0, 1, 2, 3 weak pairs; overall):  857.4   571.6     0.0     0.0  (  2424)
Number of TNOs (0, 1, 2, 3 weak pairs         ):   77.8    55.5     0.0     0.0
Aver. Number of NTNO, Atoms, PAOs, AuxFcns / Triples:  25255    68.0    16.4   653.5   732.1

Triples Correction (T)                     ...     -0.117571489
    alpha-alpha-alpha ... -0.003726956 (  3.2%)
    alpha-alpha-beta  ... -0.055236593 ( 47.0%)
    alpha-beta -beta  ... -0.054602284 ( 46.4%)
    beta -beta -beta  ... -0.004005657 (  3.4%)
Final correlation energy                   ...     -3.018280431
E(CCSD)                                    ...  -3031.372989713
E(CCSD(T))                                 ...  -3031.490561203

----------------------------
STATISTICS FOR PAIR-ENERGIES
----------------------------
Minimum, maximum and average ratios of UMP and CCSD pair-energies ... 0.45, 1.46, 1.02


------------------------------------------------------------------------------- 
                                     TIMINGS                                   
------------------------------------------------------------------------------- 


Total execution time                   ...    46382.455 sec

Localization of occupied MO's          ...       10.482 sec (  0.0%)
Fock Matrix Formation                  ...     1321.173 sec (  2.8%)
Differential overlap integrals         ...        1.474 sec (  0.0%)
Organizing maps                        ...        1.645 sec (  0.0%)
RI 3-index integral generations        ...      306.670 sec (  0.7%)
RI-PNO integral transformation         ...     4294.804 sec (  9.3%)
Initial Guess                          ...     1857.754 sec (  4.0%)
DIIS Solver                            ...       17.729 sec (  0.0%)
State Vector Update                    ...        0.785 sec (  0.0%)
Sigma-vector construction              ...    25545.972 sec ( 55.1%)
  <0|H|D>                              ...        0.032 sec (  0.0% of sigma)
  <D|H|D>(0-ext)                       ...     4270.448 sec ( 16.7% of sigma)
  <D|H|D>(2-ext Fock)                  ...        1.752 sec (  0.0% of sigma)
  <D|H|D>(2-ext)                       ...     3622.839 sec ( 14.2% of sigma)
  <D|H|D>(4-ext)                       ...      188.438 sec (  0.7% of sigma)
  <D|H|D>(4-ext-corr)                  ...     1164.365 sec (  4.6% of sigma)
  CCSD doubles correction              ...      396.921 sec (  1.6% of sigma)
  <S|H|S>                              ...      731.798 sec (  2.9% of sigma)
  <S|H|D>(1-ext)                       ...      286.906 sec (  1.1% of sigma)
  <D|H|S>(1-ext)                       ...        1.020 sec (  0.0% of sigma)
  <S|H|D>(3-ext)                       ...       22.868 sec (  0.1% of sigma)
  CCSD singles correction              ...        0.005 sec (  0.0% of sigma)
  Fock-dressing                        ...     6857.566 sec ( 26.8% of sigma)
  Singles amplitudes                   ...      115.238 sec (  0.5% of sigma)
  (ik|jl)-dressing                     ...     6281.920 sec ( 24.6% of sigma)
  (ij|ab),(ia|jb)-dressing             ...     1316.474 sec (  5.2% of sigma)
  Pair energies                        ...        0.145 sec (  0.0% of sigma)
Total Time for computing (T)           ...    13389.120 sec ( 28.9% of ALL)


-------------------------   --------------------
FINAL SINGLE POINT ENERGY     -3031.490561202927
-------------------------   --------------------


                            ***************************************
                            *     ORCA property calculations      *
                            ***************************************

                                    ---------------------
                                    Active property flags
                                    ---------------------
   (+) Dipole Moment


------------------------------------------------------------------------------
                       ORCA ELECTRIC PROPERTIES CALCULATION
------------------------------------------------------------------------------

Dipole Moment Calculation                       ... on
Quadrupole Moment Calculation                   ... off
Polarizability Calculation                      ... off
GBWName                                         ... simple-grid-290-285-b3lyp_d3bj-631gd-gas-singlepoint-DLPNO_CCSD_T1-NormalPNO-augtz-gas.gbw
Electron density file                           ... simple-grid-290-285-b3lyp_d3bj-631gd-gas-singlepoint-DLPNO_CCSD_T1-NormalPNO-augtz-gas.scfp.tmp
The origin for moment calculation is the CENTER OF MASS  = (-0.313571, -0.042577  0.016695)

-------------
DIPOLE MOMENT
-------------
                                X             Y             Z
Electronic contribution:    -43.63797      -4.73287       1.88538
Nuclear contribution   :     46.72200       6.34400      -2.48762
                        -----------------------------------------
Total Dipole Moment    :      3.08403       1.61113      -0.60224
                        -----------------------------------------
Magnitude (a.u.)       :      3.53124
Magnitude (Debye)      :      8.97571



--------------------
Rotational spectrum 
--------------------
 
Rotational constants in cm-1:     0.018652     0.010669     0.010051 
Rotational constants in MHz :   559.174893   319.854999   301.328981 

 Dipole components along the rotational axes: 
x,y,z [a.u.] :     3.077276    -1.609898    -0.638970 
x,y,z [Debye]:     7.821813    -4.092036    -1.624133 

 

Timings for individual modules:

Sum of individual times         ...    64089.003 sec (=1068.150 min)
GTO integral calculation        ...       12.904 sec (=   0.215 min)   0.0 %
SCF iterations                  ...    17676.513 sec (= 294.609 min)  27.6 %
MDCI module                     ...    46399.586 sec (= 773.326 min)  72.4 %
                             ****ORCA TERMINATED NORMALLY****
TOTAL RUN TIME: 0 days 17 hours 48 minutes 11 seconds 965 msec
