
                                 *****************
                                 * O   R   C   A *
                                 *****************

           --- An Ab Initio, DFT and Semiempirical electronic structure package ---

                  #######################################################
                  #                        -***-                        #
                  #          Department of theory and spectroscopy      #
                  #               Directorship: Frank Neese             #
                  #        Max Planck Institute fuer Kohlenforschung    #
                  #                Kaiser Wilhelm Platz 1               #
                  #                 D-45470 Muelheim/Ruhr               #
                  #                      Germany                        #
                  #                                                     #
                  #                  All rights reserved                #
                  #                        -***-                        #
                  #######################################################


                         Program Version 4.1.2  - RELEASE  -


 With contributions from (in alphabetic order):
   Daniel Aravena         : Magnetic Properties
   Michael Atanasov       : Ab Initio Ligand Field Theory
   Alexander A. Auer      : GIAO ZORA
   Ute Becker             : Parallelization
   Giovanni Bistoni       : ED, Open-shell LED
   Martin Brehm           : Molecular dynamics
   Dmytro Bykov           : SCF Hessian
   Vijay G. Chilkuri      : MRCI spin determinant printing
   Dipayan Datta          : RHF DLPNO-CCSD density
   Achintya Kumar Dutta   : EOM-CC, STEOM-CC
   Dmitry Ganyushin       : Spin-Orbit,Spin-Spin,Magnetic field MRCI
   Miquel Garcia          : C-PCM Hessian
   Yang Guo               : DLPNO-NEVPT2, CIM, IAO-localization
   Andreas Hansen         : Spin unrestricted coupled pair/coupled cluster methods
   Benjamin Helmich-Paris : CASSCF linear response (MC-RPA)
   Lee Huntington         : MR-EOM, pCC
   Robert Izsak           : Overlap fitted RIJCOSX, COSX-SCS-MP3, EOM
   Christian Kollmar      : KDIIS, OOCD, Brueckner-CCSD(T), CCSD density
   Simone Kossmann        : Meta GGA functionals, TD-DFT gradient, OOMP2, MP2 Hessian
   Martin Krupicka        : AUTO-CI
   Lucas Lang             : DCDCAS
   Dagmar Lenk            : GEPOL surface, SMD
   Dimitrios Liakos       : Extrapolation schemes; parallel MDCI
   Dimitrios Manganas     : ROCIS; embedding schemes
   Dimitrios Pantazis     : SARC Basis sets
   Taras Petrenko         : DFT Hessian,TD-DFT gradient, ASA, ECA, R-Raman, ABS, FL, XAS/XES, NRVS
   Peter Pinski           : DLPNO-MP2, DLPNO-MP2 Gradient
   Christoph Reimann      : Effective Core Potentials
   Marius Retegan         : Local ZFS, SOC
   Christoph Riplinger    : Optimizer, TS searches, QM/MM, DLPNO-CCSD(T), (RO)-DLPNO pert. Triples
   Tobias Risthaus        : Range-separated hybrids, TD-DFT gradient, RPA, STAB
   Michael Roemelt        : Restricted open shell CIS
   Masaaki Saitow         : Open-shell DLPNO
   Barbara Sandhoefer     : DKH picture change effects
   Avijit Sen             : IP-ROCIS
   Kantharuban Sivalingam : CASSCF convergence, NEVPT2, FIC-MRCI
   Bernardo de Souza      : ESD, SOC TD-DFT
   Georgi Stoychev        : AutoAux, RI-MP2 NMR
   Willem Van den Heuvel  : Paramagnetic NMR
   Boris Wezisla          : Elementary symmetry handling
   Frank Wennmohs         : Technical directorship


 We gratefully acknowledge several colleagues who have allowed us to
 interface, adapt or use parts of their codes:
   Stefan Grimme, W. Hujo, H. Kruse,             : VdW corrections, initial TS optimization,
                  C. Bannwarth                     DFT functionals, gCP, sTDA/sTD-DF
   Ed Valeev                                     : LibInt (2-el integral package), F12 methods
   Garnet Chan, S. Sharma, J. Yang, R. Olivares  : DMRG
   Ulf Ekstrom                                   : XCFun DFT Library
   Mihaly Kallay                                 : mrcc  (arbitrary order and MRCC methods)
   Andreas Klamt, Michael Diedenhofen            : otool_cosmo (COSMO solvation model)
   Jiri Pittner, Ondrej Demel                    : Mk-CCSD
   Frank Weinhold                                : gennbo (NPA and NBO analysis)
   Christopher J. Cramer and Donald G. Truhlar   : smd solvation model
   Lars Goerigk                                  : TD-DFT with DH, B97 family of functionals
   V. Asgeirsson, H. Jonsson                     : NEB implementation
   FAccTs GmbH                                   : IRC, NEB, NEB-TS, Multilevel


 Your calculation uses the libint2 library for the computation of 2-el integrals
 For citations please refer to: http://libint.valeyev.net

 This ORCA versions uses:
   CBLAS   interface :  Fast vector & matrix operations
   LAPACKE interface :  Fast linear algebra routines
   SCALAPACK package :  Parallel linear algebra routines


----- Orbital basis set information -----
Your calculation utilizes the basis: aug-cc-pVTZ 
    H, B-Ne : Obtained from the ccRepo (grant-hill.group.shef.ac.uk/ccrepo) Feb. 2017
              R. A. Kendall, T. H. Dunning, Jr., R. J. Harrison, J. Chem. Phys. 96, 6796 (1992)
         He : Obtained from the ccRepo (grant-hill.group.shef.ac.uk/ccrepo) Feb. 2017
              D. E. Woon, T. H. Dunning, Jr., J. Chem. Phys. 100, 2975 (1994)
  Li-Be, Na : Obtained from the ccRepo (grant-hill.group.shef.ac.uk/ccrepo) Feb. 2017
              B. P. Prascher, D. E. Woon, K. A. Peterson, T. H. Dunning, Jr., A. K. Wilson, Theor. Chem. Acc. 128, 69 (2011)
         Mg : Obtained from the Peterson Research Group Website (tyr0.chem.wsu.edu/~kipeters) Feb. 2017
              B. P. Prascher, D. E. Woon, K. A. Peterson, T. H. Dunning, Jr., A. K. Wilson, Theor. Chem. Acc. 128, 69 (2011)
      Al-Ar : Obtained from the ccRepo (grant-hill.group.shef.ac.uk/ccrepo) Feb. 2017
              D. E. Woon, T. H. Dunning, Jr., J. Chem. Phys. 98, 1358 (1993)
      Sc-Zn : Obtained from the ccRepo (grant-hill.group.shef.ac.uk/ccrepo) Feb. 2017
              N. B. Balabanov, K. A. Peterson, J. Chem. Phys. 123, 064107 (2005)
              N. B. Balabanov, K. A. Peterson, J. Chem. Phys. 125, 074110 (2006)
      Ga-Kr : Obtained from the ccRepo (grant-hill.group.shef.ac.uk/ccrepo) Feb. 2017
              A. K. Wilson, D. E. Woon, K. A. Peterson, T. H. Dunning, Jr., J. Chem. Phys. 110, 7667 (1999)
     Ag, Au : Obtained from the Peterson Research Group Website (tyr0.chem.wsu.edu/~kipeters) Feb. 2017
              K. A. Peterson, C. Puzzarini, Theor. Chem. Acc. 114, 283 (2005)

----- AuxJ basis set information -----
Your calculation utilizes the AutoAux generation procedure.
  G. L. Stoychev, A. A. Auer, F. Neese, J. Chem. Theory Comput. 13, 554 (2017)

----- AuxC basis set information -----
Your calculation utilizes the auxiliary basis: aug-cc-pVTZ/C 
  H-He, B-F, Al-Ar, Ga-Kr : Obtained from the EMSL Basis Set Exchange (bse.pnl.gov) Feb. 2017
                            F. Weigend, A. Kohn, C. Hattig, J. Chem. Phys. 116, 3175 (2002)
                   Be, Mg : Obtained from the TURBOMOLE 7.0 basis set library
                            C. Haettig, Phys. Chem. Chem. Phys. 7, 59 (2005)
                       Ne : Obtained from the EMSL Basis Set Exchange (bse.pnl.gov) Feb. 2017
                            C. Haettig, Phys. Chem. Chem. Phys. 7, 59 (2005)
                            F. Weigend, A. Kohn, C. Hattig, J. Chem. Phys. 116, 3175 (2002)
                    Sc-Zn : Obtained from the EMSL Basis Set Exchange (bse.pnl.gov) Feb. 2017
                            J. G. Hill, J. A. Platts, J. Chem. Phys. 128, 044104 (2008)

----- AuxJK basis set information -----
Your calculation utilizes the AutoAux generation procedure.
  G. L. Stoychev, A. A. Auer, F. Neese, J. Chem. Theory Comput. 13, 554 (2017)

================================================================================
                                        WARNINGS
                       Please study these warnings very carefully!
================================================================================


WARNING: your system is open-shell and RHF/RKS was chosen
  ===> : WILL SWITCH to UHF/UKS


WARNING: MDCI localization with Augmented Hessian Foster-Boys
  ===> : Switching off randomization!

WARNING: Post HF methods need fully converged wavefunctions
  ===> : Setting SCFConvForced true
         You can overwrite this default with %scf ConvForced false 


INFO   : the flag for use of LIBINT has been found!

================================================================================
                                       INPUT FILE
================================================================================
NAME = simple-grid-235-285-b3lyp_d3bj-631gd-gas-singlepoint-DLPNO_CCSD_T1-NormalPNO-augtz-gas.inp
|  1> ! aug-cc-pVTZ aug-cc-pVTZ/C DLPNO-CCSD(T1) TightSCF NormalPNO UNO MiniPrint AutoAux
|  2> %pal nproc 10 end
|  3> %maxcore 20000
|  4> %mdci
|  5>      density none
|  6> end
|  7> 
|  8> * xyz 0 6
|  9>  O     -0.22964700     -0.30058100     -0.81520800
| 10>  C     -1.09001400     -1.21692200     -0.63333000
| 11>  C     -2.86134100     -0.27436700      0.58998400
| 12>  C     -2.70596400      0.90117700     -0.07617000
| 13>  C     -3.38777300      1.16448500     -1.38633700
| 14> Fe      1.47824600      0.15953900     -0.01937900
| 15> Cl      2.01467100      2.04544400     -0.97634400
| 16>  C     -1.80089400      1.99414100      0.39448000
| 17> Cl      2.71763600     -1.57015100     -0.53559500
| 18> Cl      1.17427000      0.35063600      2.15271200
| 19>  H     -3.58624200     -0.97639700      0.18021000
| 20>  H     -2.32863500      2.95580600      0.39339200
| 21>  H     -1.38175100      1.82281400      1.38538900
| 22>  H     -0.96589800      2.09997500     -0.31322300
| 23>  H     -4.01943900      2.05766000     -1.29505500
| 24>  H     -2.65345100      1.38726400     -2.17216100
| 25>  H     -4.02124900      0.33451100     -1.70821500
| 26>  C     -2.52273000     -0.47650500      2.04932900
| 27>  H     -3.25310400      0.05895300      2.66943000
| 28>  H     -2.58099500     -1.53065600      2.32956400
| 29>  H     -1.53046900     -0.10924800      2.31872700
| 30>  C     -0.82238100     -2.27671100      0.40089100
| 31>  H     -1.69755600     -2.89498800      0.60459600
| 32>  H     -0.03999100     -2.91310900     -0.03765400
| 33>  H     -0.42032100     -1.86095200      1.32423100
| 34>  C     -1.87881500     -1.63648000     -1.84757200
| 35>  H     -1.22710700     -2.33014300     -2.39711800
| 36>  H     -2.79805200     -2.16685300     -1.59504200
| 37>  H     -2.08529900     -0.79171300     -2.50234400
| 38> *
| 39> 
| 40> 
| 41>                          ****END OF INPUT****
================================================================================

                       ****************************
                       * Single Point Calculation *
                       ****************************

---------------------------------
CARTESIAN COORDINATES (ANGSTROEM)
---------------------------------
  O     -0.229647   -0.300581   -0.815208
  C     -1.090014   -1.216922   -0.633330
  C     -2.861341   -0.274367    0.589984
  C     -2.705964    0.901177   -0.076170
  C     -3.387773    1.164485   -1.386337
  Fe     1.478246    0.159539   -0.019379
  Cl     2.014671    2.045444   -0.976344
  C     -1.800894    1.994141    0.394480
  Cl     2.717636   -1.570151   -0.535595
  Cl     1.174270    0.350636    2.152712
  H     -3.586242   -0.976397    0.180210
  H     -2.328635    2.955806    0.393392
  H     -1.381751    1.822814    1.385389
  H     -0.965898    2.099975   -0.313223
  H     -4.019439    2.057660   -1.295055
  H     -2.653451    1.387264   -2.172161
  H     -4.021249    0.334511   -1.708215
  C     -2.522730   -0.476505    2.049329
  H     -3.253104    0.058953    2.669430
  H     -2.580995   -1.530656    2.329564
  H     -1.530469   -0.109248    2.318727
  C     -0.822381   -2.276711    0.400891
  H     -1.697556   -2.894988    0.604596
  H     -0.039991   -2.913109   -0.037654
  H     -0.420321   -1.860952    1.324231
  C     -1.878815   -1.636480   -1.847572
  H     -1.227107   -2.330143   -2.397118
  H     -2.798052   -2.166853   -1.595042
  H     -2.085299   -0.791713   -2.502344

----------------------------
CARTESIAN COORDINATES (A.U.)
----------------------------
  NO LB      ZA    FRAG     MASS         X           Y           Z
   0 O     8.0000    0    15.999   -0.433970   -0.568016   -1.540520
   1 C     6.0000    0    12.011   -2.059828   -2.299649   -1.196820
   2 C     6.0000    0    12.011   -5.407151   -0.518478    1.114908
   3 C     6.0000    0    12.011   -5.113531    1.702978   -0.143940
   4 C     6.0000    0    12.011   -6.401963    2.200558   -2.619797
   5 Fe   26.0000    0    55.850    2.793480    0.301485   -0.036621
   6 Cl   17.0000    0    35.453    3.807176    3.865329   -1.845023
   7 C     6.0000    0    12.011   -3.403196    3.768380    0.745459
   8 Cl   17.0000    0    35.453    5.135588   -2.967155   -1.012128
   9 Cl   17.0000    0    35.453    2.219049    0.662606    4.068036
  10 H     1.0000    0     1.008   -6.777015   -1.845123    0.340548
  11 H     1.0000    0     1.008   -4.400482    5.585664    0.743403
  12 H     1.0000    0     1.008   -2.611131    3.444619    2.618006
  13 H     1.0000    0     1.008   -1.825283    3.968378   -0.591906
  14 H     1.0000    0     1.008   -7.595639    3.888414   -2.447299
  15 H     1.0000    0     1.008   -5.014296    2.621549   -4.104789
  16 H     1.0000    0     1.008   -7.599059    0.632134   -3.228059
  17 C     6.0000    0    12.011   -4.767269   -0.900464    3.872671
  18 H     1.0000    0     1.008   -6.147476    0.111405    5.044492
  19 H     1.0000    0     1.008   -4.877374   -2.892521    4.402238
  20 H     1.0000    0     1.008   -2.892167   -0.206449    4.381759
  21 C     6.0000    0    12.011   -1.554075   -4.302360    0.757574
  22 H     1.0000    0     1.008   -3.207916   -5.470734    1.142521
  23 H     1.0000    0     1.008   -0.075572   -5.504978   -0.071156
  24 H     1.0000    0     1.008   -0.794292   -3.516690    2.502434
  25 C     6.0000    0    12.011   -3.550446   -3.092499   -3.491405
  26 H     1.0000    0     1.008   -2.318896   -4.403332   -4.529897
  27 H     1.0000    0     1.008   -5.287552   -4.094759   -3.014193
  28 H     1.0000    0     1.008   -3.940644   -1.496121   -4.728745



           ************************************************************
           *        Program running with 10 parallel MPI-processes    *
           *              working on a common directory               *
           ************************************************************


           ************************************************************
           *        Program running with 10 parallel MPI-processes    *
           *              working on a common directory               *
           ************************************************************

Diagonalization of the overlap matrix:
Smallest eigenvalue                        ... 8.646e-07
Time for diagonalization                   ...    0.336 sec
Threshold for overlap eigenvalues          ... 1.000e-08
Number of eigenvalues below threshold      ... 0
Time for construction of square roots      ...    0.274 sec
Total time needed                          ...    0.615 sec

-------------------
DFT GRID GENERATION
-------------------

General Integration Accuracy     IntAcc      ...  4.340
Radial Grid Type                 RadialGrid  ... Gauss-Chebyshev
Angular Grid (max. acc.)         AngularGrid ... Lebedev-110
Angular grid pruning method      GridPruning ... 3 (G Style)
Weight generation scheme         WeightScheme... Becke
Basis function cutoff            BFCut       ...    1.0000e-11
Integration weight cutoff        WCut        ...    1.0000e-14
Grids for H and He will be reduced by one unit

# of grid points (after initial pruning)     ...  36112 (   0.0 sec)
# of grid points (after weights+screening)   ...  32398 (   0.1 sec)
nearest neighbour list constructed           ...    0.0 sec
Grid point re-assignment to atoms done       ...    0.0 sec
Grid point division into batches done        ...    0.0 sec
Reduced shell lists constructed in    0.3 sec

Total number of grid points                  ...    32398
Total number of batches                      ...      525
Average number of points per batch           ...       61
Average number of grid points per atom       ...     1117
Average number of shells per batch           ...   288.13 (84.00%)
Average number of basis functions per batch  ...   854.80 (83.39%)
Average number of large shells per batch     ...   234.46 (81.37%)
Average number of large basis fcns per batch ...   696.83 (81.52%)
Maximum spatial batch extension              ...   5.09,  4.93,  7.49 au
Average spatial batch extension              ...   0.18,  0.18,  0.18 au

Time for grid setup =    0.378 sec

Loading Hartree-Fock densities                     ... done
Calculating cut-offs                               ... done
Setting up the integral package                    ... done
Initializing the effective Hamiltonian             ... done
Starting the Coulomb interaction                   ... done (   1.1 sec)
Reading the grid                                   ... done
Mapping shells                                     ... done
Starting the XC term evaluation                    ... done (   0.9 sec)
Transforming the Hamiltonian                       ... done (   0.2 sec)
Diagonalizing the Hamiltonian                      ... done (   0.4 sec)
Back transforming the eigenvectors                 ... done (   0.1 sec)
Now organizing SCF variables                       ... done
--------------
SCF ITERATIONS
--------------
ITER       Energy         Delta-E        Max-DP      RMS-DP      [F,P]     Damp
               ***  Starting incremental Fock matrix formation  ***
  0  -3027.5864182515   0.000000000000 0.20793843  0.00102669  0.2561255 0.7000
  1  -3027.8372007357  -0.250782484169 0.15308785  0.00080126  0.1546401 0.7000
                               ***Turning on DIIS***
  2  -3028.0054683570  -0.168267621279 0.10667621  0.00058913  0.1094833 0.7000
  3  -3029.6019947948  -1.596526437812 0.24919712  0.00147611  0.0819077 0.0000
  4  -3028.3045262070   1.297468587760 0.04431077  0.00021522  0.0199419 0.0000
  5  -3028.4225027045  -0.117976497428 0.03975418  0.00017232  0.0110955 0.0000
  6  -3028.4680061420  -0.045503437510 0.02022297  0.00007017  0.0052267 0.0000
  7  -3028.4813296672  -0.013323525207 0.00882325  0.00003260  0.0033256 0.0000
  8  -3028.4704602895   0.010869377686 0.00621421  0.00001866  0.0015381 0.0000
  9  -3028.4660968547   0.004363434779 0.00235560  0.00001097  0.0007181 0.0000
 10  -3028.4540523164   0.012044538307 0.00091450  0.00000316  0.0003985 0.0000
 11  -3028.4594615220  -0.005409205577 0.00026491  0.00000169  0.0000735 0.0000
 12  -3028.4574923057   0.001969216284 0.00023598  0.00000122  0.0000225 0.0000
 13  -3028.4575267310  -0.000034425329 0.00070295  0.00000192  0.0000080 0.0000
 14  -3028.4575545417  -0.000027810650 0.00041432  0.00000179  0.0000048 0.0000
 15  -3028.4574986117   0.000055929953 0.00071207  0.00000188  0.0000027 0.0000
 16  -3028.4575119397  -0.000013327974 0.00052785  0.00000204  0.0000022 0.0000
 17  -3028.4575281872  -0.000016247524 0.00043239  0.00000152  0.0000014 0.0000
 18  -3028.4575119170   0.000016270228 0.00103184  0.00000307  0.0000011 0.0000
                            ***DIIS convergence achieved***

               *****************************************************
               *                     SUCCESS                       *
               *           SCF CONVERGED AFTER  19 CYCLES          *
               *****************************************************

Total Energy       :        -3028.45751676 Eh          -82408.51860 eV
  Last Energy change         ...   -4.8385e-06  Tolerance :   1.0000e-08
  Last MAX-Density change    ...    8.0779e-04  Tolerance :   1.0000e-07
             **** THE GBW FILE WAS UPDATED (simple-grid-235-285-b3lyp_d3bj-631gd-gas-singlepoint-DLPNO_CCSD_T1-NormalPNO-augtz-gas.gbw) ****
             **** DENSITY FILE WAS UPDATED (simple-grid-235-285-b3lyp_d3bj-631gd-gas-singlepoint-DLPNO_CCSD_T1-NormalPNO-augtz-gas.scfp.tmp) ****
             **** ENERGY FILE WAS UPDATED (simple-grid-235-285-b3lyp_d3bj-631gd-gas-singlepoint-DLPNO_CCSD_T1-NormalPNO-augtz-gas.en.tmp) ****
----------------------
UHF SPIN CONTAMINATION
----------------------

Expectation value of <S**2>     :     8.764758
Ideal value S*(S+1) for S=2.5   :     8.750000
Deviation                       :     0.014758

----------------
ORBITAL ENERGIES
----------------
                 SPIN UP ORBITALS
  NO   OCC          E(Eh)            E(eV) 
   0   1.0000    -261.568619     -7117.6440 
   1   1.0000    -104.789510     -2851.4675 
   2   1.0000    -104.785656     -2851.3627 
   3   1.0000    -104.783663     -2851.3084 
   4   1.0000     -32.236411      -877.1973 
   5   1.0000     -27.712757      -754.1024 
   6   1.0000     -27.711835      -754.0774 
   7   1.0000     -27.711638      -754.0720 
   8   1.0000     -20.603356      -560.6458 
   9   1.0000     -11.416811      -310.6672 
  10   1.0000     -11.290769      -307.2374 
  11   1.0000     -11.272755      -306.7473 
  12   1.0000     -11.268033      -306.6188 
  13   1.0000     -11.254897      -306.2613 
  14   1.0000     -11.254632      -306.2541 
  15   1.0000     -11.239574      -305.8444 
  16   1.0000     -11.238730      -305.8214 
  17   1.0000     -10.516214      -286.1607 
  18   1.0000     -10.512330      -286.0550 
  19   1.0000     -10.510286      -285.9994 
  20   1.0000      -7.983061      -217.2301 
  21   1.0000      -7.982273      -217.2087 
  22   1.0000      -7.982240      -217.2078 
  23   1.0000      -7.979190      -217.1248 
  24   1.0000      -7.978431      -217.1041 
  25   1.0000      -7.978376      -217.1026 
  26   1.0000      -7.977091      -217.0677 
  27   1.0000      -7.976411      -217.0492 
  28   1.0000      -7.976347      -217.0474 
  29   1.0000      -4.591468      -124.9402 
  30   1.0000      -3.204528       -87.1996 
  31   1.0000      -3.203006       -87.1582 
  32   1.0000      -3.202808       -87.1528 
  33   1.0000      -1.446720       -39.3673 
  34   1.0000      -1.141308       -31.0566 
  35   1.0000      -1.094364       -29.7792 
  36   1.0000      -1.061792       -28.8928 
  37   1.0000      -1.055870       -28.7317 
  38   1.0000      -1.052653       -28.6442 
  39   1.0000      -1.027226       -27.9523 
  40   1.0000      -1.004481       -27.3333 
  41   1.0000      -0.970193       -26.4003 
  42   1.0000      -0.936902       -25.4944 
  43   1.0000      -0.920548       -25.0494 
  44   1.0000      -0.920428       -25.0461 
  45   1.0000      -0.910374       -24.7725 
  46   1.0000      -0.909547       -24.7500 
  47   1.0000      -0.905240       -24.6328 
  48   1.0000      -0.806085       -21.9347 
  49   1.0000      -0.742020       -20.1914 
  50   1.0000      -0.701930       -19.1005 
  51   1.0000      -0.692553       -18.8453 
  52   1.0000      -0.682714       -18.5776 
  53   1.0000      -0.664458       -18.0808 
  54   1.0000      -0.631067       -17.1722 
  55   1.0000      -0.621864       -16.9218 
  56   1.0000      -0.605604       -16.4793 
  57   1.0000      -0.596903       -16.2426 
  58   1.0000      -0.583429       -15.8759 
  59   1.0000      -0.575790       -15.6680 
  60   1.0000      -0.561954       -15.2916 
  61   1.0000      -0.559649       -15.2288 
  62   1.0000      -0.549842       -14.9620 
  63   1.0000      -0.545040       -14.8313 
  64   1.0000      -0.535128       -14.5616 
  65   1.0000      -0.529523       -14.4090 
  66   1.0000      -0.504699       -13.7336 
  67   1.0000      -0.495310       -13.4781 
  68   1.0000      -0.472840       -12.8666 
  69   1.0000      -0.470131       -12.7929 
  70   1.0000      -0.441597       -12.0165 
  71   1.0000      -0.436312       -11.8727 
  72   1.0000      -0.434268       -11.8170 
  73   1.0000      -0.425821       -11.5872 
  74   1.0000      -0.424486       -11.5509 
  75   1.0000      -0.423227       -11.5166 
  76   1.0000      -0.367868       -10.0102 
  77   0.0000       0.011907         0.3240 
  78   0.0000       0.022264         0.6058 
  79   0.0000       0.023477         0.6388 
  80   0.0000       0.029841         0.8120 
  81   0.0000       0.038493         1.0474 
  82   0.0000       0.040401         1.0994 
  83   0.0000       0.042295         1.1509 
  84   0.0000       0.044056         1.1988 
  85   0.0000       0.044564         1.2127 
  86   0.0000       0.053226         1.4483 
  87   0.0000       0.057061         1.5527 
  88   0.0000       0.061208         1.6656 
  89   0.0000       0.062606         1.7036 
  90   0.0000       0.063238         1.7208 
  91   0.0000       0.065092         1.7713 
  92   0.0000       0.071894         1.9563 
  93   0.0000       0.077204         2.1008 
  94   0.0000       0.082616         2.2481 
  95   0.0000       0.089665         2.4399 
  96   0.0000       0.091181         2.4812 
  97   0.0000       0.093946         2.5564 
  98   0.0000       0.099139         2.6977 
  99   0.0000       0.100558         2.7363 
 100   0.0000       0.104197         2.8353 
 101   0.0000       0.107312         2.9201 
 102   0.0000       0.116225         3.1627 
 103   0.0000       0.121315         3.3012 
 104   0.0000       0.122881         3.3438 
 105   0.0000       0.123672         3.3653 
 106   0.0000       0.125934         3.4268 
 107   0.0000       0.128223         3.4891 
 108   0.0000       0.130661         3.5555 
 109   0.0000       0.133390         3.6297 
 110   0.0000       0.133641         3.6366 
 111   0.0000       0.137956         3.7540 
 112   0.0000       0.144415         3.9297 
 113   0.0000       0.145349         3.9552 
 114   0.0000       0.151068         4.1108 
 115   0.0000       0.152076         4.1382 
 116   0.0000       0.156444         4.2571 
 117   0.0000       0.160479         4.3668 
 118   0.0000       0.161646         4.3986 
 119   0.0000       0.166870         4.5408 
 120   0.0000       0.168822         4.5939 
 121   0.0000       0.171836         4.6759 
 122   0.0000       0.173188         4.7127 
 123   0.0000       0.178049         4.8450 
 124   0.0000       0.182135         4.9561 
 125   0.0000       0.185046         5.0354 
 126   0.0000       0.186469         5.0741 
 127   0.0000       0.189967         5.1693 
 128   0.0000       0.194300         5.2872 
 129   0.0000       0.198178         5.3927 
 130   0.0000       0.199509         5.4289 
 131   0.0000       0.200302         5.4505 
 132   0.0000       0.205443         5.5904 
 133   0.0000       0.208014         5.6604 
 134   0.0000       0.212948         5.7946 
 135   0.0000       0.218771         5.9531 
 136   0.0000       0.219468         5.9720 
 137   0.0000       0.223899         6.0926 
 138   0.0000       0.227757         6.1976 
 139   0.0000       0.232125         6.3164 
 140   0.0000       0.233950         6.3661 
 141   0.0000       0.236169         6.4265 
 142   0.0000       0.238909         6.5010 
 143   0.0000       0.240410         6.5419 
 144   0.0000       0.242361         6.5950 
 145   0.0000       0.245964         6.6930 
 146   0.0000       0.252683         6.8758 
 147   0.0000       0.256602         6.9825 
 148   0.0000       0.258110         7.0235 
 149   0.0000       0.260948         7.1008 
 150   0.0000       0.264151         7.1879 
 151   0.0000       0.269248         7.3266 
 152   0.0000       0.277007         7.5377 
 153   0.0000       0.280691         7.6380 
 154   0.0000       0.283532         7.7153 
 155   0.0000       0.284695         7.7469 
 156   0.0000       0.289003         7.8642 
 157   0.0000       0.291083         7.9208 
 158   0.0000       0.294888         8.0243 
 159   0.0000       0.304169         8.2768 
 160   0.0000       0.309210         8.4140 
 161   0.0000       0.310810         8.4576 
 162   0.0000       0.318758         8.6738 
 163   0.0000       0.319974         8.7069 
 164   0.0000       0.324019         8.8170 
 165   0.0000       0.325688         8.8624 
 166   0.0000       0.333546         9.0762 
 167   0.0000       0.334615         9.1053 
 168   0.0000       0.340818         9.2741 
 169   0.0000       0.341583         9.2949 
 170   0.0000       0.343659         9.3514 
 171   0.0000       0.351101         9.5539 
 172   0.0000       0.354826         9.6553 
 173   0.0000       0.358303         9.7499 
 174   0.0000       0.360215         9.8019 
 175   0.0000       0.367256         9.9935 
 176   0.0000       0.369815        10.0632 
 177   0.0000       0.372481        10.1357 
 178   0.0000       0.374161        10.1814 
 179   0.0000       0.376994        10.2585 
 180   0.0000       0.382110        10.3977 
 181   0.0000       0.383916        10.4469 
 182   0.0000       0.385018        10.4769 
 183   0.0000       0.385568        10.4918 
 184   0.0000       0.387305        10.5391 
 185   0.0000       0.388713        10.5774 
 186   0.0000       0.395486        10.7617 
 187   0.0000       0.398805        10.8520 
 188   0.0000       0.402421        10.9504 
 189   0.0000       0.403566        10.9816 
 190   0.0000       0.413847        11.2613 
 191   0.0000       0.414214        11.2713 
 192   0.0000       0.420675        11.4472 
 193   0.0000       0.423289        11.5183 
 194   0.0000       0.427879        11.6432 
 195   0.0000       0.432270        11.7627 
 196   0.0000       0.436977        11.8907 
 197   0.0000       0.440576        11.9887 
 198   0.0000       0.445028        12.1098 
 199   0.0000       0.445633        12.1263 
 200   0.0000       0.448705        12.2099 
 201   0.0000       0.451164        12.2768 
 202   0.0000       0.452750        12.3200 
 203   0.0000       0.458979        12.4895 
 204   0.0000       0.461102        12.5472 
 205   0.0000       0.465289        12.6612 
 206   0.0000       0.470638        12.8067 
 207   0.0000       0.472098        12.8465 
 208   0.0000       0.479297        13.0423 
 209   0.0000       0.480464        13.0741 
 210   0.0000       0.484197        13.1757 
 211   0.0000       0.488948        13.3050 
 212   0.0000       0.489185        13.3114 
 213   0.0000       0.494243        13.4490 
 214   0.0000       0.498674        13.5696 
 215   0.0000       0.500227        13.6119 
 216   0.0000       0.503152        13.6915 
 217   0.0000       0.507258        13.8032 
 218   0.0000       0.511973        13.9315 
 219   0.0000       0.513604        13.9759 
 220   0.0000       0.515493        14.0273 
 221   0.0000       0.517760        14.0890 
 222   0.0000       0.523471        14.2444 
 223   0.0000       0.524437        14.2706 
 224   0.0000       0.526374        14.3234 
 225   0.0000       0.529679        14.4133 
 226   0.0000       0.532088        14.4789 
 227   0.0000       0.535703        14.5772 
 228   0.0000       0.539790        14.6884 
 229   0.0000       0.541799        14.7431 
 230   0.0000       0.544713        14.8224 
 231   0.0000       0.551787        15.0149 
 232   0.0000       0.555404        15.1133 
 233   0.0000       0.556045        15.1308 
 234   0.0000       0.562862        15.3163 
 235   0.0000       0.565039        15.3755 
 236   0.0000       0.570372        15.5206 
 237   0.0000       0.573436        15.6040 
 238   0.0000       0.578345        15.7376 
 239   0.0000       0.583555        15.8793 
 240   0.0000       0.586081        15.9481 
 241   0.0000       0.586491        15.9592 
 242   0.0000       0.589903        16.0521 
 243   0.0000       0.593615        16.1531 
 244   0.0000       0.598263        16.2796 
 245   0.0000       0.600911        16.3516 
 246   0.0000       0.603522        16.4227 
 247   0.0000       0.611738        16.6462 
 248   0.0000       0.612249        16.6601 
 249   0.0000       0.616885        16.7863 
 250   0.0000       0.621884        16.9223 
 251   0.0000       0.626079        17.0365 
 252   0.0000       0.627839        17.0844 
 253   0.0000       0.632496        17.2111 
 254   0.0000       0.638533        17.3754 
 255   0.0000       0.642549        17.4846 
 256   0.0000       0.646229        17.5848 
 257   0.0000       0.650449        17.6996 
 258   0.0000       0.652131        17.7454 
 259   0.0000       0.658910        17.9298 
 260   0.0000       0.660068        17.9614 
 261   0.0000       0.664415        18.0796 
 262   0.0000       0.668282        18.1849 
 263   0.0000       0.671846        18.2819 
 264   0.0000       0.672925        18.3112 
 265   0.0000       0.681194        18.5362 
 266   0.0000       0.686306        18.6753 
 267   0.0000       0.691087        18.8054 
 268   0.0000       0.695428        18.9235 
 269   0.0000       0.698632        19.0107 
 270   0.0000       0.702451        19.1147 
 271   0.0000       0.711540        19.3620 
 272   0.0000       0.713465        19.4144 
 273   0.0000       0.717255        19.5175 
 274   0.0000       0.720496        19.6057 
 275   0.0000       0.725578        19.7440 
 276   0.0000       0.727786        19.8041 
 277   0.0000       0.731472        19.9044 
 278   0.0000       0.738022        20.0826 
 279   0.0000       0.739838        20.1320 
 280   0.0000       0.743940        20.2436 
 281   0.0000       0.746768        20.3206 
 282   0.0000       0.757598        20.6153 
 283   0.0000       0.766353        20.8535 
 284   0.0000       0.772852        21.0304 
 285   0.0000       0.774940        21.0872 
 286   0.0000       0.781353        21.2617 
 287   0.0000       0.786969        21.4145 
 288   0.0000       0.795288        21.6409 
 289   0.0000       0.800024        21.7698 
 290   0.0000       0.810556        22.0563 
 291   0.0000       0.817832        22.2543 
 292   0.0000       0.819530        22.3006 
 293   0.0000       0.827355        22.5135 
 294   0.0000       0.828992        22.5580 
 295   0.0000       0.836879        22.7726 
 296   0.0000       0.840220        22.8636 
 297   0.0000       0.844221        22.9724 
 298   0.0000       0.850174        23.1344 
 299   0.0000       0.853729        23.2312 
 300   0.0000       0.864495        23.5241 
 301   0.0000       0.865593        23.5540 
 302   0.0000       0.870726        23.6937 
 303   0.0000       0.874263        23.7899 
 304   0.0000       0.875887        23.8341 
 305   0.0000       0.880120        23.9493 
 306   0.0000       0.888469        24.1765 
 307   0.0000       0.890948        24.2439 
 308   0.0000       0.903653        24.5897 
 309   0.0000       0.904987        24.6259 
 310   0.0000       0.909605        24.7516 
 311   0.0000       0.917107        24.9558 
 312   0.0000       0.920542        25.0492 
 313   0.0000       0.922236        25.0953 
 314   0.0000       0.925371        25.1806 
 315   0.0000       0.929633        25.2966 
 316   0.0000       0.930306        25.3149 
 317   0.0000       0.936735        25.4899 
 318   0.0000       0.938590        25.5403 
 319   0.0000       0.939878        25.5754 
 320   0.0000       0.941418        25.6173 
 321   0.0000       0.948542        25.8111 
 322   0.0000       0.950967        25.8771 
 323   0.0000       0.957164        26.0458 
 324   0.0000       0.961961        26.1763 
 325   0.0000       0.964259        26.2388 
 326   0.0000       0.967589        26.3294 
 327   0.0000       0.971041        26.4234 
 328   0.0000       0.977596        26.6017 
 329   0.0000       0.979639        26.6573 
 330   0.0000       0.982080        26.7238 
 331   0.0000       0.985399        26.8141 
 332   0.0000       0.986810        26.8525 
 333   0.0000       0.992630        27.0108 
 334   0.0000       0.999309        27.1926 
 335   0.0000       1.000856        27.2347 
 336   0.0000       1.002897        27.2902 
 337   0.0000       1.009866        27.4798 
 338   0.0000       1.011068        27.5126 
 339   0.0000       1.017492        27.6874 
 340   0.0000       1.018041        27.7023 
 341   0.0000       1.021859        27.8062 
 342   0.0000       1.025635        27.9090 
 343   0.0000       1.027580        27.9619 
 344   0.0000       1.031576        28.0706 
 345   0.0000       1.035621        28.1807 
 346   0.0000       1.037785        28.2396 
 347   0.0000       1.042663        28.3723 
 348   0.0000       1.045281        28.4435 
 349   0.0000       1.052479        28.6394 
 350   0.0000       1.054655        28.6986 
 351   0.0000       1.056112        28.7383 
 352   0.0000       1.061609        28.8879 
 353   0.0000       1.065822        29.0025 
 354   0.0000       1.074195        29.2303 
 355   0.0000       1.076745        29.2997 
 356   0.0000       1.078227        29.3401 
 357   0.0000       1.081216        29.4214 
 358   0.0000       1.086075        29.5536 
 359   0.0000       1.088595        29.6222 
 360   0.0000       1.091085        29.6899 
 361   0.0000       1.096535        29.8382 
 362   0.0000       1.100008        29.9328 
 363   0.0000       1.102697        30.0059 
 364   0.0000       1.108292        30.1582 
 365   0.0000       1.114370        30.3235 
 366   0.0000       1.114812        30.3356 
 367   0.0000       1.119752        30.4700 
 368   0.0000       1.125596        30.6290 
 369   0.0000       1.127750        30.6876 
 370   0.0000       1.130341        30.7581 
 371   0.0000       1.138443        30.9786 
 372   0.0000       1.140745        31.0413 
 373   0.0000       1.145158        31.1613 
 374   0.0000       1.150308        31.3015 
 375   0.0000       1.161771        31.6134 
 376   0.0000       1.162865        31.6432 
 377   0.0000       1.169255        31.8170 
 378   0.0000       1.171374        31.8747 
 379   0.0000       1.174878        31.9701 
 380   0.0000       1.178354        32.0646 
 381   0.0000       1.188472        32.3400 
 382   0.0000       1.189955        32.3803 
 383   0.0000       1.193312        32.4717 
 384   0.0000       1.196276        32.5523 
 385   0.0000       1.201599        32.6972 
 386   0.0000       1.204481        32.7756 
 387   0.0000       1.214860        33.0580 
 388   0.0000       1.217889        33.1404 
 389   0.0000       1.226776        33.3823 
 390   0.0000       1.227231        33.3946 
 391   0.0000       1.232250        33.5312 
 392   0.0000       1.236243        33.6399 
 393   0.0000       1.237555        33.6756 
 394   0.0000       1.243376        33.8340 
 395   0.0000       1.249243        33.9936 
 396   0.0000       1.255088        34.1527 
 397   0.0000       1.257252        34.2116 
 398   0.0000       1.263595        34.3842 
 399   0.0000       1.268187        34.5091 
 400   0.0000       1.272346        34.6223 
 401   0.0000       1.275225        34.7006 
 402   0.0000       1.279019        34.8039 
 403   0.0000       1.289169        35.0801 
 404   0.0000       1.296593        35.2821 
 405   0.0000       1.298954        35.3463 
 406   0.0000       1.303978        35.4831 
 407   0.0000       1.310391        35.6575 
 408   0.0000       1.314958        35.7818 
 409   0.0000       1.319151        35.8959 
 410   0.0000       1.320644        35.9366 
 411   0.0000       1.323832        36.0233 
 412   0.0000       1.328617        36.1535 
 413   0.0000       1.333234        36.2791 
 414   0.0000       1.342638        36.5350 
 415   0.0000       1.347775        36.6748 
 416   0.0000       1.350100        36.7381 
 417   0.0000       1.354767        36.8651 
 418   0.0000       1.361696        37.0536 
 419   0.0000       1.364985        37.1431 
 420   0.0000       1.374233        37.3948 
 421   0.0000       1.376293        37.4508 
 422   0.0000       1.383561        37.6486 
 423   0.0000       1.390250        37.8306 
 424   0.0000       1.394830        37.9553 
 425   0.0000       1.402827        38.1729 
 426   0.0000       1.407866        38.3100 
 427   0.0000       1.413148        38.4537 
 428   0.0000       1.415653        38.5219 
 429   0.0000       1.419033        38.6138 
 430   0.0000       1.424446        38.7611 
 431   0.0000       1.430831        38.9349 
 432   0.0000       1.432590        38.9828 
 433   0.0000       1.441261        39.2187 
 434   0.0000       1.444984        39.3200 
 435   0.0000       1.449654        39.4471 
 436   0.0000       1.458673        39.6925 
 437   0.0000       1.464346        39.8469 
 438   0.0000       1.472238        40.0616 
 439   0.0000       1.477761        40.2119 
 440   0.0000       1.482516        40.3413 
 441   0.0000       1.487677        40.4818 
 442   0.0000       1.489221        40.5238 
 443   0.0000       1.495298        40.6891 
 444   0.0000       1.501978        40.8709 
 445   0.0000       1.507811        41.0296 
 446   0.0000       1.512512        41.1576 
 447   0.0000       1.515169        41.2298 
 448   0.0000       1.518943        41.3325 
 449   0.0000       1.527798        41.5735 
 450   0.0000       1.528118        41.5822 
 451   0.0000       1.535047        41.7708 
 452   0.0000       1.541015        41.9331 
 453   0.0000       1.543231        41.9935 
 454   0.0000       1.548004        42.1233 
 455   0.0000       1.555538        42.3283 
 456   0.0000       1.563800        42.5532 
 457   0.0000       1.570905        42.7465 
 458   0.0000       1.574845        42.8537 
 459   0.0000       1.577923        42.9375 
 460   0.0000       1.582476        43.0614 
 461   0.0000       1.587121        43.1878 
 462   0.0000       1.592197        43.3259 
 463   0.0000       1.601298        43.5735 
 464   0.0000       1.609310        43.7916 
 465   0.0000       1.613660        43.9099 
 466   0.0000       1.615487        43.9596 
 467   0.0000       1.621412        44.1209 
 468   0.0000       1.625235        44.2249 
 469   0.0000       1.628889        44.3243 
 470   0.0000       1.634083        44.4656 
 471   0.0000       1.642260        44.6882 
 472   0.0000       1.643805        44.7302 
 473   0.0000       1.650368        44.9088 
 474   0.0000       1.655263        45.0420 
 475   0.0000       1.663083        45.2548 
 476   0.0000       1.669492        45.4292 
 477   0.0000       1.672904        45.5220 
 478   0.0000       1.679681        45.7064 
 479   0.0000       1.681740        45.7625 
 480   0.0000       1.691543        46.0292 
 481   0.0000       1.695897        46.1477 
 482   0.0000       1.700000        46.2593 
 483   0.0000       1.702521        46.3280 
 484   0.0000       1.711422        46.5702 
 485   0.0000       1.716735        46.7147 
 486   0.0000       1.719376        46.7866 
 487   0.0000       1.727366        47.0040 
 488   0.0000       1.733080        47.1595 
 489   0.0000       1.740446        47.3599 
 490   0.0000       1.746863        47.5346 
 491   0.0000       1.749167        47.5973 
 492   0.0000       1.755234        47.7624 
 493   0.0000       1.759777        47.8860 
 494   0.0000       1.764492        48.0143 
 495   0.0000       1.767484        48.0957 
 496   0.0000       1.770684        48.1828 
 497   0.0000       1.774007        48.2732 
 498   0.0000       1.782033        48.4916 
 499   0.0000       1.784966        48.5714 
 500   0.0000       1.798480        48.9391 
 501   0.0000       1.801097        49.0103 
 502   0.0000       1.806065        49.1455 
 503   0.0000       1.808720        49.2178 
 504   0.0000       1.811721        49.2994 
 505   0.0000       1.818250        49.4771 
 506   0.0000       1.829816        49.7918 
 507   0.0000       1.830836        49.8196 
 508   0.0000       1.837021        49.9879 
 509   0.0000       1.845507        50.2188 
 510   0.0000       1.846979        50.2588 
 511   0.0000       1.854408        50.4610 
 512   0.0000       1.862061        50.6693 
 513   0.0000       1.864648        50.7396 
 514   0.0000       1.868102        50.8336 
 515   0.0000       1.876297        51.0566 
 516   0.0000       1.880499        51.1710 
 517   0.0000       1.883210        51.2448 
 518   0.0000       1.890365        51.4394 
 519   0.0000       1.894406        51.5494 
 520   0.0000       1.899668        51.6926 
 521   0.0000       1.901457        51.7413 
 522   0.0000       1.907189        51.8973 
 523   0.0000       1.910632        51.9909 
 524   0.0000       1.915195        52.1151 
 525   0.0000       1.919312        52.2271 
 526   0.0000       1.924413        52.3659 
 527   0.0000       1.935988        52.6809 
 528   0.0000       1.938931        52.7610 
 529   0.0000       1.939894        52.7872 
 530   0.0000       1.946716        52.9728 
 531   0.0000       1.950994        53.0893 
 532   0.0000       1.960735        53.3543 
 533   0.0000       1.962220        53.3947 
 534   0.0000       1.968661        53.5700 
 535   0.0000       1.979748        53.8717 
 536   0.0000       1.981971        53.9322 
 537   0.0000       1.990109        54.1536 
 538   0.0000       1.996151        54.3180 
 539   0.0000       2.000960        54.4489 
 540   0.0000       2.012318        54.7580 
 541   0.0000       2.020257        54.9740 
 542   0.0000       2.027545        55.1723 
 543   0.0000       2.031722        55.2860 
 544   0.0000       2.040253        55.5181 
 545   0.0000       2.045397        55.6581 
 546   0.0000       2.050222        55.7894 
 547   0.0000       2.051991        55.8375 
 548   0.0000       2.055834        55.9421 
 549   0.0000       2.067634        56.2632 
 550   0.0000       2.081669        56.6451 
 551   0.0000       2.087372        56.8003 
 552   0.0000       2.088431        56.8291 
 553   0.0000       2.098531        57.1039 
 554   0.0000       2.108494        57.3751 
 555   0.0000       2.116627        57.5963 
 556   0.0000       2.121895        57.7397 
 557   0.0000       2.125915        57.8491 
 558   0.0000       2.131566        58.0028 
 559   0.0000       2.133560        58.0571 
 560   0.0000       2.143039        58.3150 
 561   0.0000       2.150790        58.5260 
 562   0.0000       2.156384        58.6782 
 563   0.0000       2.167058        58.9687 
 564   0.0000       2.172025        59.1038 
 565   0.0000       2.187630        59.5284 
 566   0.0000       2.193314        59.6831 
 567   0.0000       2.198203        59.8161 
 568   0.0000       2.203601        59.9630 
 569   0.0000       2.211902        60.1889 
 570   0.0000       2.213885        60.2429 
 571   0.0000       2.218208        60.3605 
 572   0.0000       2.227727        60.6195 
 573   0.0000       2.236056        60.8462 
 574   0.0000       2.240646        60.9711 
 575   0.0000       2.245518        61.1036 
 576   0.0000       2.257766        61.4369 
 577   0.0000       2.260580        61.5135 
 578   0.0000       2.272287        61.8321 
 579   0.0000       2.282042        62.0975 
 580   0.0000       2.284634        62.1681 
 581   0.0000       2.292920        62.3935 
 582   0.0000       2.304650        62.7127 
 583   0.0000       2.312172        62.9174 
 584   0.0000       2.321305        63.1659 
 585   0.0000       2.326550        63.3086 
 586   0.0000       2.335242        63.5452 
 587   0.0000       2.342390        63.7397 
 588   0.0000       2.350433        63.9585 
 589   0.0000       2.351695        63.9929 
 590   0.0000       2.361925        64.2712 
 591   0.0000       2.372154        64.5496 
 592   0.0000       2.378959        64.7348 
 593   0.0000       2.380466        64.7758 
 594   0.0000       2.395586        65.1872 
 595   0.0000       2.398804        65.2748 
 596   0.0000       2.403635        65.4062 
 597   0.0000       2.414819        65.7106 
 598   0.0000       2.417919        65.7949 
 599   0.0000       2.427265        66.0492 
 600   0.0000       2.434520        66.2467 
 601   0.0000       2.444290        66.5125 
 602   0.0000       2.447098        66.5889 
 603   0.0000       2.460184        66.9450 
 604   0.0000       2.468850        67.1808 
 605   0.0000       2.475377        67.3584 
 606   0.0000       2.485579        67.6360 
 607   0.0000       2.505696        68.1835 
 608   0.0000       2.510257        68.3076 
 609   0.0000       2.521050        68.6013 
 610   0.0000       2.536203        69.0136 
 611   0.0000       2.540816        69.1391 
 612   0.0000       2.554122        69.5012 
 613   0.0000       2.580300        70.2135 
 614   0.0000       2.588716        70.4425 
 615   0.0000       2.593620        70.5760 
 616   0.0000       2.610145        71.0257 
 617   0.0000       2.618555        71.2545 
 618   0.0000       2.634855        71.6981 
 619   0.0000       2.643819        71.9420 
 620   0.0000       2.651819        72.1597 
 621   0.0000       2.659102        72.3578 
 622   0.0000       2.669185        72.6322 
 623   0.0000       2.674595        72.7794 
 624   0.0000       2.678707        72.8913 
 625   0.0000       2.686448        73.1020 
 626   0.0000       2.693425        73.2918 
 627   0.0000       2.706746        73.6543 
 628   0.0000       2.717763        73.9541 
 629   0.0000       2.724761        74.1445 
 630   0.0000       2.732589        74.3575 
 631   0.0000       2.748535        74.7915 
 632   0.0000       2.762242        75.1644 
 633   0.0000       2.767829        75.3165 
 634   0.0000       2.780730        75.6675 
 635   0.0000       2.783046        75.7305 
 636   0.0000       2.796981        76.1097 
 637   0.0000       2.807314        76.3909 
 638   0.0000       2.817959        76.6806 
 639   0.0000       2.821241        76.7699 
 640   0.0000       2.846207        77.4492 
 641   0.0000       2.850569        77.5679 
 642   0.0000       2.856131        77.7193 
 643   0.0000       2.870661        78.1147 
 644   0.0000       2.881284        78.4037 
 645   0.0000       2.893663        78.7406 
 646   0.0000       2.902511        78.9814 
 647   0.0000       2.919077        79.4321 
 648   0.0000       2.938519        79.9612 
 649   0.0000       2.950497        80.2871 
 650   0.0000       2.953807        80.3772 
 651   0.0000       2.964299        80.6627 
 652   0.0000       2.978281        81.0431 
 653   0.0000       2.993119        81.4469 
 654   0.0000       3.018998        82.1511 
 655   0.0000       3.038057        82.6697 
 656   0.0000       3.047005        82.9132 
 657   0.0000       3.069864        83.5353 
 658   0.0000       3.080706        83.8303 
 659   0.0000       3.086225        83.9805 
 660   0.0000       3.110153        84.6316 
 661   0.0000       3.117502        84.8316 
 662   0.0000       3.130261        85.1787 
 663   0.0000       3.154216        85.8306 
 664   0.0000       3.163474        86.0825 
 665   0.0000       3.182929        86.6119 
 666   0.0000       3.195184        86.9454 
 667   0.0000       3.199927        87.0744 
 668   0.0000       3.211676        87.3941 
 669   0.0000       3.216576        87.5275 
 670   0.0000       3.227844        87.8341 
 671   0.0000       3.229128        87.8691 
 672   0.0000       3.239826        88.1601 
 673   0.0000       3.253038        88.5197 
 674   0.0000       3.255565        88.5884 
 675   0.0000       3.269925        88.9792 
 676   0.0000       3.278082        89.2012 
 677   0.0000       3.284876        89.3860 
 678   0.0000       3.291375        89.5629 
 679   0.0000       3.306290        89.9687 
 680   0.0000       3.324145        90.4546 
 681   0.0000       3.326627        90.5221 
 682   0.0000       3.333194        90.7008 
 683   0.0000       3.335994        90.7770 
 684   0.0000       3.348007        91.1039 
 685   0.0000       3.355219        91.3001 
 686   0.0000       3.361530        91.4719 
 687   0.0000       3.392169        92.3056 
 688   0.0000       3.396651        92.4276 
 689   0.0000       3.410076        92.7929 
 690   0.0000       3.415261        92.9340 
 691   0.0000       3.429444        93.3199 
 692   0.0000       3.442074        93.6636 
 693   0.0000       3.452374        93.9439 
 694   0.0000       3.459114        94.1273 
 695   0.0000       3.466445        94.3268 
 696   0.0000       3.475436        94.5714 
 697   0.0000       3.479067        94.6702 
 698   0.0000       3.491731        95.0148 
 699   0.0000       3.497811        95.1803 
 700   0.0000       3.503584        95.3374 
 701   0.0000       3.509667        95.5029 
 702   0.0000       3.524860        95.9163 
 703   0.0000       3.530338        96.0654 
 704   0.0000       3.535330        96.2012 
 705   0.0000       3.543040        96.4110 
 706   0.0000       3.546996        96.5187 
 707   0.0000       3.556042        96.7648 
 708   0.0000       3.557431        96.8026 
 709   0.0000       3.576474        97.3208 
 710   0.0000       3.577969        97.3615 
 711   0.0000       3.588480        97.6475 
 712   0.0000       3.598488        97.9198 
 713   0.0000       3.607926        98.1767 
 714   0.0000       3.620485        98.5184 
 715   0.0000       3.627967        98.7220 
 716   0.0000       3.631689        98.8233 
 717   0.0000       3.638859        99.0184 
 718   0.0000       3.645330        99.1945 
 719   0.0000       3.659200        99.5719 
 720   0.0000       3.669662        99.8566 
 721   0.0000       3.671088        99.8954 
 722   0.0000       3.682736       100.2124 
 723   0.0000       3.691273       100.4446 
 724   0.0000       3.696878       100.5972 
 725   0.0000       3.712092       101.0112 
 726   0.0000       3.720588       101.2423 
 727   0.0000       3.721840       101.2764 
 728   0.0000       3.731591       101.5418 
 729   0.0000       3.737610       101.7055 
 730   0.0000       3.743329       101.8612 
 731   0.0000       3.753815       102.1465 
 732   0.0000       3.761375       102.3522 
 733   0.0000       3.766272       102.4855 
 734   0.0000       3.776052       102.7516 
 735   0.0000       3.781179       102.8911 
 736   0.0000       3.784795       102.9895 
 737   0.0000       3.787638       103.0669 
 738   0.0000       3.794352       103.2496 
 739   0.0000       3.808863       103.6444 
 740   0.0000       3.809713       103.6675 
 741   0.0000       3.820955       103.9735 
 742   0.0000       3.834284       104.3362 
 743   0.0000       3.837408       104.4212 
 744   0.0000       3.839635       104.4818 
 745   0.0000       3.846614       104.6717 
 746   0.0000       3.860835       105.0587 
 747   0.0000       3.869247       105.2876 
 748   0.0000       3.874260       105.4240 
 749   0.0000       3.882139       105.6384 
 750   0.0000       3.892252       105.9136 
 751   0.0000       3.901206       106.1572 
 752   0.0000       3.906916       106.3126 
 753   0.0000       3.911571       106.4393 
 754   0.0000       3.919381       106.6518 
 755   0.0000       3.927623       106.8761 
 756   0.0000       3.928432       106.8981 
 757   0.0000       3.937045       107.1324 
 758   0.0000       3.945690       107.3677 
 759   0.0000       3.950939       107.5105 
 760   0.0000       3.961940       107.8099 
 761   0.0000       3.963384       107.8492 
 762   0.0000       3.966072       107.9223 
 763   0.0000       3.972597       108.0998 
 764   0.0000       3.988830       108.5416 
 765   0.0000       3.989732       108.5661 
 766   0.0000       4.003773       108.9482 
 767   0.0000       4.007321       109.0448 
 768   0.0000       4.017864       109.3316 
 769   0.0000       4.023866       109.4950 
 770   0.0000       4.026431       109.5648 
 771   0.0000       4.035361       109.8077 
 772   0.0000       4.044496       110.0563 
 773   0.0000       4.051168       110.2379 
 774   0.0000       4.059909       110.4757 
 775   0.0000       4.065470       110.6271 
 776   0.0000       4.073634       110.8492 
 777   0.0000       4.080564       111.0378 
 778   0.0000       4.095547       111.4455 
 779   0.0000       4.099703       111.5586 
 780   0.0000       4.100462       111.5793 
 781   0.0000       4.108289       111.7922 
 782   0.0000       4.118185       112.0615 
 783   0.0000       4.129603       112.3722 
 784   0.0000       4.136419       112.5577 
 785   0.0000       4.139076       112.6300 
 786   0.0000       4.140454       112.6675 
 787   0.0000       4.155655       113.0811 
 788   0.0000       4.160269       113.2067 
 789   0.0000       4.171127       113.5021 
 790   0.0000       4.180147       113.7476 
 791   0.0000       4.193437       114.1092 
 792   0.0000       4.213262       114.6487 
 793   0.0000       4.216734       114.7432 
 794   0.0000       4.222900       114.9109 
 795   0.0000       4.226431       115.0070 
 796   0.0000       4.236680       115.2859 
 797   0.0000       4.256869       115.8353 
 798   0.0000       4.262229       115.9811 
 799   0.0000       4.271345       116.2292 
 800   0.0000       4.281305       116.5002 
 801   0.0000       4.289403       116.7206 
 802   0.0000       4.294466       116.8584 
 803   0.0000       4.311280       117.3159 
 804   0.0000       4.316086       117.4467 
 805   0.0000       4.318045       117.5000 
 806   0.0000       4.329417       117.8094 
 807   0.0000       4.337469       118.0285 
 808   0.0000       4.347420       118.2993 
 809   0.0000       4.348298       118.3232 
 810   0.0000       4.361971       118.6953 
 811   0.0000       4.373067       118.9972 
 812   0.0000       4.387239       119.3828 
 813   0.0000       4.390472       119.4708 
 814   0.0000       4.402321       119.7932 
 815   0.0000       4.403984       119.8385 
 816   0.0000       4.416534       120.1800 
 817   0.0000       4.424656       120.4010 
 818   0.0000       4.441380       120.8561 
 819   0.0000       4.447172       121.0137 
 820   0.0000       4.465069       121.5007 
 821   0.0000       4.472934       121.7147 
 822   0.0000       4.477978       121.8520 
 823   0.0000       4.494799       122.3097 
 824   0.0000       4.499553       122.4391 
 825   0.0000       4.507107       122.6446 
 826   0.0000       4.519203       122.9738 
 827   0.0000       4.524503       123.1180 
 828   0.0000       4.531065       123.2965 
 829   0.0000       4.537142       123.4619 
 830   0.0000       4.548884       123.7814 
 831   0.0000       4.557287       124.0101 
 832   0.0000       4.572086       124.4128 
 833   0.0000       4.577799       124.5683 
 834   0.0000       4.588502       124.8595 
 835   0.0000       4.594680       125.0276 
 836   0.0000       4.606534       125.3502 
 837   0.0000       4.633651       126.0881 
 838   0.0000       4.641342       126.2973 
 839   0.0000       4.646467       126.4368 
 840   0.0000       4.666142       126.9722 
 841   0.0000       4.670783       127.0985 
 842   0.0000       4.677108       127.2706 
 843   0.0000       4.691307       127.6569 
 844   0.0000       4.700546       127.9084 
 845   0.0000       4.708453       128.1235 
 846   0.0000       4.712889       128.2442 
 847   0.0000       4.732573       128.7799 
 848   0.0000       4.737588       128.9163 
 849   0.0000       4.743994       129.0906 
 850   0.0000       4.772788       129.8742 
 851   0.0000       4.774741       129.9273 
 852   0.0000       4.794578       130.4671 
 853   0.0000       4.808628       130.8494 
 854   0.0000       4.818477       131.1174 
 855   0.0000       4.822348       131.2227 
 856   0.0000       4.836520       131.6084 
 857   0.0000       4.840866       131.7267 
 858   0.0000       4.850417       131.9866 
 859   0.0000       4.874091       132.6308 
 860   0.0000       4.888605       133.0257 
 861   0.0000       4.895328       133.2086 
 862   0.0000       4.912109       133.6653 
 863   0.0000       4.924759       134.0095 
 864   0.0000       4.932750       134.2270 
 865   0.0000       4.945602       134.5767 
 866   0.0000       4.961464       135.0083 
 867   0.0000       4.966195       135.1370 
 868   0.0000       4.976588       135.4198 
 869   0.0000       4.982377       135.5774 
 870   0.0000       5.000338       136.0661 
 871   0.0000       5.006843       136.2431 
 872   0.0000       5.011477       136.3692 
 873   0.0000       5.015567       136.4805 
 874   0.0000       5.029739       136.8662 
 875   0.0000       5.045805       137.3033 
 876   0.0000       5.056741       137.6009 
 877   0.0000       5.067924       137.9052 
 878   0.0000       5.081382       138.2714 
 879   0.0000       5.094361       138.6246 
 880   0.0000       5.108133       138.9994 
 881   0.0000       5.117903       139.2652 
 882   0.0000       5.130806       139.6163 
 883   0.0000       5.139536       139.8539 
 884   0.0000       5.154440       140.2595 
 885   0.0000       5.163032       140.4932 
 886   0.0000       5.172290       140.7452 
 887   0.0000       5.188125       141.1761 
 888   0.0000       5.208065       141.7186 
 889   0.0000       5.214120       141.8834 
 890   0.0000       5.221505       142.0844 
 891   0.0000       5.231411       142.3539 
 892   0.0000       5.244347       142.7059 
 893   0.0000       5.261641       143.1765 
 894   0.0000       5.271385       143.4417 
 895   0.0000       5.285902       143.8367 
 896   0.0000       5.296632       144.1287 
 897   0.0000       5.305660       144.3743 
 898   0.0000       5.313239       144.5806 
 899   0.0000       5.333166       145.1228 
 900   0.0000       5.343116       145.3936 
 901   0.0000       5.369419       146.1093 
 902   0.0000       5.383924       146.5040 
 903   0.0000       5.385584       146.5492 
 904   0.0000       5.414525       147.3367 
 905   0.0000       5.426931       147.6743 
 906   0.0000       5.431920       147.8100 
 907   0.0000       5.440011       148.0302 
 908   0.0000       5.449644       148.2924 
 909   0.0000       5.455541       148.4528 
 910   0.0000       5.468558       148.8070 
 911   0.0000       5.474035       148.9561 
 912   0.0000       5.488287       149.3439 
 913   0.0000       5.504414       149.7827 
 914   0.0000       5.514389       150.0541 
 915   0.0000       5.540820       150.7734 
 916   0.0000       5.543013       150.8331 
 917   0.0000       5.568339       151.5222 
 918   0.0000       5.578109       151.7881 
 919   0.0000       5.585382       151.9860 
 920   0.0000       5.593286       152.2010 
 921   0.0000       5.593842       152.2162 
 922   0.0000       5.611397       152.6939 
 923   0.0000       5.616761       152.8398 
 924   0.0000       5.620524       152.9422 
 925   0.0000       5.643089       153.5563 
 926   0.0000       5.656113       153.9106 
 927   0.0000       5.660085       154.0187 
 928   0.0000       5.676720       154.4714 
 929   0.0000       5.687897       154.7756 
 930   0.0000       5.697117       155.0264 
 931   0.0000       5.714940       155.5114 
 932   0.0000       5.718254       155.6016 
 933   0.0000       5.736908       156.1092 
 934   0.0000       5.744455       156.3146 
 935   0.0000       5.764127       156.8499 
 936   0.0000       5.768878       156.9792 
 937   0.0000       5.797648       157.7620 
 938   0.0000       5.802168       157.8850 
 939   0.0000       5.826753       158.5540 
 940   0.0000       5.839370       158.8973 
 941   0.0000       5.850923       159.2117 
 942   0.0000       5.871048       159.7593 
 943   0.0000       5.891223       160.3083 
 944   0.0000       5.912768       160.8946 
 945   0.0000       6.016873       163.7274 
 946   0.0000       6.059233       164.8801 
 947   0.0000       6.063626       164.9996 
 948   0.0000       6.104796       166.1199 
 949   0.0000       6.114308       166.3788 
 950   0.0000       6.149940       167.3484 
 951   0.0000       6.158226       167.5738 
 952   0.0000       6.183837       168.2707 
 953   0.0000       6.191221       168.4717 
 954   0.0000       6.211619       169.0268 
 955   0.0000       6.234971       169.6622 
 956   0.0000       6.242992       169.8804 
 957   0.0000       6.251493       170.1118 
 958   0.0000       6.273224       170.7031 
 959   0.0000       6.282390       170.9525 
 960   0.0000       6.304407       171.5516 
 961   0.0000       6.315564       171.8552 
 962   0.0000       6.323210       172.0633 
 963   0.0000       6.345946       172.6820 
 964   0.0000       6.359912       173.0620 
 965   0.0000       6.368198       173.2875 
 966   0.0000       6.382815       173.6852 
 967   0.0000       6.398367       174.1084 
 968   0.0000       6.451567       175.5561 
 969   0.0000       6.525245       177.5609 
 970   0.0000       6.563530       178.6027 
 971   0.0000       6.645546       180.8345 
 972   0.0000       6.823518       185.6774 
 973   0.0000       6.843674       186.2258 
 974   0.0000       6.876859       187.1289 
 975   0.0000       6.894657       187.6132 
 976   0.0000       6.914424       188.1510 
 977   0.0000       6.940173       188.8517 
 978   0.0000       6.956011       189.2827 
 979   0.0000       6.991951       190.2606 
 980   0.0000       7.013071       190.8354 
 981   0.0000       7.017100       190.9450 
 982   0.0000       7.026008       191.1874 
 983   0.0000       7.048137       191.7895 
 984   0.0000       7.070886       192.4086 
 985   0.0000       7.131811       194.0664 
 986   0.0000       7.242263       197.0720 
 987   0.0000       7.325818       199.3456 
 988   0.0000       7.346734       199.9148 
 989   0.0000       7.413453       201.7303 
 990   0.0000       7.513180       204.4440 
 991   0.0000       7.579140       206.2389 
 992   0.0000       7.650551       208.1821 
 993   0.0000       7.692843       209.3329 
 994   0.0000       7.771827       211.4822 
 995   0.0000       7.891294       214.7330 
 996   0.0000       7.937313       215.9853 
 997   0.0000       8.023476       218.3299 
 998   0.0000       8.280511       225.3242 
 999   0.0000       9.410593       256.0753 
 1000   0.0000       9.429512       256.5901 
 1001   0.0000       9.434754       256.7327 
 1002   0.0000       9.446336       257.0479 
 1003   0.0000       9.462793       257.4957 
 1004   0.0000       9.487682       258.1729 
 1005   0.0000       9.691908       263.7302 
 1006   0.0000      10.089811       274.5577 
 1007   0.0000      10.096236       274.7325 
 1008   0.0000      10.111615       275.1510 
 1009   0.0000      10.207391       277.7572 
 1010   0.0000      10.213507       277.9236 
 1011   0.0000      10.238879       278.6141 
 1012   0.0000      10.350068       281.6397 
 1013   0.0000      10.393855       282.8312 
 1014   0.0000      10.487304       285.3740 
 1015   0.0000      12.333812       335.6201 
 1016   0.0000      16.995851       462.4806 
 1017   0.0000      17.664564       480.6772 
 1018   0.0000      18.300795       497.9899 
 1019   0.0000      18.434249       501.6214 
 1020   0.0000      18.698923       508.8236 
 1021   0.0000      18.819905       512.1156 
 1022   0.0000      20.312670       552.7358 
 1023   0.0000      20.934205       569.6487 
 1024   0.0000      21.626692       588.4922 

                 SPIN DOWN ORBITALS
  NO   OCC          E(Eh)            E(eV) 
   0   1.0000    -261.565048     -7117.5468 
   1   1.0000    -104.788053     -2851.4279 
   2   1.0000    -104.784126     -2851.3210 
   3   1.0000    -104.782140     -2851.2670 
   4   1.0000     -32.074380      -872.7883 
   5   1.0000     -27.552299      -749.7362 
   6   1.0000     -27.552245      -749.7347 
   7   1.0000     -27.552070      -749.7299 
   8   1.0000     -20.599476      -560.5402 
   9   1.0000     -11.416714      -310.6646 
  10   1.0000     -11.290659      -307.2345 
  11   1.0000     -11.272644      -306.7442 
  12   1.0000     -11.268019      -306.6184 
  13   1.0000     -11.254912      -306.2617 
  14   1.0000     -11.254665      -306.2550 
  15   1.0000     -11.239568      -305.8442 
  16   1.0000     -11.238758      -305.8222 
  17   1.0000     -10.514655      -286.1183 
  18   1.0000     -10.510696      -286.0106 
  19   1.0000     -10.508665      -285.9553 
  20   1.0000      -7.980555      -217.1619 
  21   1.0000      -7.979884      -217.1437 
  22   1.0000      -7.979837      -217.1424 
  23   1.0000      -7.976601      -217.0543 
  24   1.0000      -7.975895      -217.0351 
  25   1.0000      -7.975809      -217.0328 
  26   1.0000      -7.974642      -217.0010 
  27   1.0000      -7.973814      -216.9785 
  28   1.0000      -7.973725      -216.9761 
  29   1.0000      -4.149268      -112.9073 
  30   1.0000      -2.670890       -72.6786 
  31   1.0000      -2.670841       -72.6773 
  32   1.0000      -2.670285       -72.6621 
  33   1.0000      -1.437031       -39.1036 
  34   1.0000      -1.140867       -31.0446 
  35   1.0000      -1.091696       -29.7066 
  36   1.0000      -1.046456       -28.4755 
  37   1.0000      -1.034103       -28.1394 
  38   1.0000      -1.030530       -28.0421 
  39   1.0000      -1.026623       -27.9358 
  40   1.0000      -1.003785       -27.3144 
  41   1.0000      -0.970114       -26.3981 
  42   1.0000      -0.905598       -24.6426 
  43   1.0000      -0.820118       -22.3165 
  44   1.0000      -0.742119       -20.1941 
  45   1.0000      -0.704535       -19.1714 
  46   1.0000      -0.691549       -18.8180 
  47   1.0000      -0.682021       -18.5587 
  48   1.0000      -0.664343       -18.0777 
  49   1.0000      -0.631029       -17.1712 
  50   1.0000      -0.621384       -16.9087 
  51   1.0000      -0.605149       -16.4669 
  52   1.0000      -0.596785       -16.2393 
  53   1.0000      -0.583151       -15.8684 
  54   1.0000      -0.574259       -15.6264 
  55   1.0000      -0.561789       -15.2870 
  56   1.0000      -0.559421       -15.2226 
  57   1.0000      -0.549657       -14.9569 
  58   1.0000      -0.543170       -14.7804 
  59   1.0000      -0.533641       -14.5211 
  60   1.0000      -0.518985       -14.1223 
  61   1.0000      -0.504558       -13.7297 
  62   1.0000      -0.496310       -13.5053 
  63   1.0000      -0.480200       -13.0669 
  64   1.0000      -0.477361       -12.9897 
  65   1.0000      -0.449895       -12.2423 
  66   1.0000      -0.446176       -12.1411 
  67   1.0000      -0.443535       -12.0692 
  68   1.0000      -0.427958       -11.6453 
  69   1.0000      -0.423945       -11.5361 
  70   1.0000      -0.409261       -11.1366 
  71   1.0000      -0.366695        -9.9783 
  72   0.0000       0.011891         0.3236 
  73   0.0000       0.022238         0.6051 
  74   0.0000       0.023450         0.6381 
  75   0.0000       0.029685         0.8078 
  76   0.0000       0.038166         1.0386 
  77   0.0000       0.040169         1.0931 
  78   0.0000       0.042131         1.1465 
  79   0.0000       0.044098         1.2000 
  80   0.0000       0.044481         1.2104 
  81   0.0000       0.050316         1.3692 
  82   0.0000       0.057003         1.5511 
  83   0.0000       0.061087         1.6623 
  84   0.0000       0.062055         1.6886 
  85   0.0000       0.062904         1.7117 
  86   0.0000       0.064633         1.7587 
  87   0.0000       0.071046         1.9333 
  88   0.0000       0.076918         2.0930 
  89   0.0000       0.082532         2.2458 
  90   0.0000       0.089272         2.4292 
  91   0.0000       0.091159         2.4806 
  92   0.0000       0.093465         2.5433 
  93   0.0000       0.098932         2.6921 
  94   0.0000       0.100575         2.7368 
  95   0.0000       0.102949         2.8014 
  96   0.0000       0.105399         2.8680 
  97   0.0000       0.109890         2.9903 
  98   0.0000       0.110863         3.0167 
  99   0.0000       0.113291         3.0828 
 100   0.0000       0.115098         3.1320 
 101   0.0000       0.116098         3.1592 
 102   0.0000       0.119623         3.2551 
 103   0.0000       0.122713         3.3392 
 104   0.0000       0.124361         3.3840 
 105   0.0000       0.125167         3.4060 
 106   0.0000       0.127271         3.4632 
 107   0.0000       0.130104         3.5403 
 108   0.0000       0.133004         3.6192 
 109   0.0000       0.134821         3.6687 
 110   0.0000       0.135809         3.6955 
 111   0.0000       0.139156         3.7866 
 112   0.0000       0.145636         3.9630 
 113   0.0000       0.147393         4.0108 
 114   0.0000       0.153118         4.1665 
 115   0.0000       0.153494         4.1768 
 116   0.0000       0.157517         4.2863 
 117   0.0000       0.161137         4.3848 
 118   0.0000       0.162048         4.4096 
 119   0.0000       0.168766         4.5923 
 120   0.0000       0.172762         4.7011 
 121   0.0000       0.172894         4.7047 
 122   0.0000       0.174775         4.7559 
 123   0.0000       0.180782         4.9193 
 124   0.0000       0.182942         4.9781 
 125   0.0000       0.185317         5.0427 
 126   0.0000       0.188888         5.1399 
 127   0.0000       0.191360         5.2072 
 128   0.0000       0.196651         5.3511 
 129   0.0000       0.199706         5.4343 
 130   0.0000       0.200988         5.4692 
 131   0.0000       0.203016         5.5243 
 132   0.0000       0.207572         5.6483 
 133   0.0000       0.210990         5.7413 
 134   0.0000       0.216507         5.8914 
 135   0.0000       0.220405         5.9975 
 136   0.0000       0.225082         6.1248 
 137   0.0000       0.228799         6.2259 
 138   0.0000       0.230965         6.2849 
 139   0.0000       0.234945         6.3932 
 140   0.0000       0.235208         6.4003 
 141   0.0000       0.238230         6.4826 
 142   0.0000       0.241682         6.5765 
 143   0.0000       0.246998         6.7212 
 144   0.0000       0.248817         6.7707 
 145   0.0000       0.251646         6.8476 
 146   0.0000       0.254155         6.9159 
 147   0.0000       0.261683         7.1207 
 148   0.0000       0.265315         7.2196 
 149   0.0000       0.269557         7.3350 
 150   0.0000       0.271075         7.3763 
 151   0.0000       0.276289         7.5182 
 152   0.0000       0.281355         7.6561 
 153   0.0000       0.282813         7.6957 
 154   0.0000       0.286681         7.8010 
 155   0.0000       0.291794         7.9401 
 156   0.0000       0.294478         8.0132 
 157   0.0000       0.297636         8.0991 
 158   0.0000       0.298908         8.1337 
 159   0.0000       0.304930         8.2976 
 160   0.0000       0.311061         8.4644 
 161   0.0000       0.315294         8.5796 
 162   0.0000       0.321544         8.7497 
 163   0.0000       0.324207         8.8221 
 164   0.0000       0.327610         8.9147 
 165   0.0000       0.333854         9.0846 
 166   0.0000       0.336437         9.1549 
 167   0.0000       0.339805         9.2466 
 168   0.0000       0.344730         9.3806 
 169   0.0000       0.345689         9.4067 
 170   0.0000       0.349887         9.5209 
 171   0.0000       0.352795         9.6000 
 172   0.0000       0.358171         9.7463 
 173   0.0000       0.362127         9.8540 
 174   0.0000       0.364079         9.9071 
 175   0.0000       0.367840        10.0094 
 176   0.0000       0.372668        10.1408 
 177   0.0000       0.374615        10.1938 
 178   0.0000       0.379132        10.3167 
 179   0.0000       0.381004        10.3676 
 180   0.0000       0.384790        10.4707 
 181   0.0000       0.387277        10.5383 
 182   0.0000       0.388530        10.5724 
 183   0.0000       0.392754        10.6874 
 184   0.0000       0.393920        10.7191 
 185   0.0000       0.396052        10.7771 
 186   0.0000       0.398713        10.8495 
 187   0.0000       0.402456        10.9514 
 188   0.0000       0.405361        11.0304 
 189   0.0000       0.406322        11.0566 
 190   0.0000       0.416193        11.3252 
 191   0.0000       0.421081        11.4582 
 192   0.0000       0.422055        11.4847 
 193   0.0000       0.429064        11.6754 
 194   0.0000       0.430740        11.7210 
 195   0.0000       0.434848        11.8328 
 196   0.0000       0.438241        11.9251 
 197   0.0000       0.444336        12.0910 
 198   0.0000       0.447503        12.1772 
 199   0.0000       0.448368        12.2007 
 200   0.0000       0.453987        12.3536 
 201   0.0000       0.456136        12.4121 
 202   0.0000       0.458233        12.4691 
 203   0.0000       0.464732        12.6460 
 204   0.0000       0.466233        12.6868 
 205   0.0000       0.469219        12.7681 
 206   0.0000       0.475735        12.9454 
 207   0.0000       0.479039        13.0353 
 208   0.0000       0.482964        13.1421 
 209   0.0000       0.484796        13.1920 
 210   0.0000       0.487459        13.2644 
 211   0.0000       0.490533        13.3481 
 212   0.0000       0.496081        13.4991 
 213   0.0000       0.498996        13.5784 
 214   0.0000       0.501032        13.6338 
 215   0.0000       0.504529        13.7289 
 216   0.0000       0.505209        13.7474 
 217   0.0000       0.509886        13.8747 
 218   0.0000       0.515051        14.0152 
 219   0.0000       0.516730        14.0609 
 220   0.0000       0.520630        14.1671 
 221   0.0000       0.521589        14.1932 
 222   0.0000       0.525133        14.2896 
 223   0.0000       0.527172        14.3451 
 224   0.0000       0.528971        14.3940 
 225   0.0000       0.532104        14.4793 
 226   0.0000       0.537749        14.6329 
 227   0.0000       0.539560        14.6822 
 228   0.0000       0.541111        14.7244 
 229   0.0000       0.544734        14.8230 
 230   0.0000       0.548696        14.9308 
 231   0.0000       0.553121        15.0512 
 232   0.0000       0.557270        15.1641 
 233   0.0000       0.559410        15.2223 
 234   0.0000       0.563927        15.3452 
 235   0.0000       0.566410        15.4128 
 236   0.0000       0.571119        15.5409 
 237   0.0000       0.574806        15.6413 
 238   0.0000       0.580701        15.8017 
 239   0.0000       0.585403        15.9296 
 240   0.0000       0.587495        15.9866 
 241   0.0000       0.589378        16.0378 
 242   0.0000       0.591988        16.1088 
 243   0.0000       0.596187        16.2231 
 244   0.0000       0.599404        16.3106 
 245   0.0000       0.602333        16.3903 
 246   0.0000       0.604734        16.4557 
 247   0.0000       0.613979        16.7072 
 248   0.0000       0.614810        16.7298 
 249   0.0000       0.620848        16.8941 
 250   0.0000       0.624293        16.9879 
 251   0.0000       0.627249        17.0683 
 252   0.0000       0.630168        17.1477 
 253   0.0000       0.635541        17.2939 
 254   0.0000       0.640997        17.4424 
 255   0.0000       0.646531        17.5930 
 256   0.0000       0.649341        17.6695 
 257   0.0000       0.653167        17.7736 
 258   0.0000       0.656209        17.8563 
 259   0.0000       0.660024        17.9602 
 260   0.0000       0.663031        18.0420 
 261   0.0000       0.666292        18.1307 
 262   0.0000       0.671898        18.2833 
 263   0.0000       0.675586        18.3836 
 264   0.0000       0.676753        18.4154 
 265   0.0000       0.684060        18.6142 
 266   0.0000       0.687086        18.6966 
 267   0.0000       0.696069        18.9410 
 268   0.0000       0.698851        19.0167 
 269   0.0000       0.701966        19.1015 
 270   0.0000       0.704259        19.1639 
 271   0.0000       0.714836        19.4517 
 272   0.0000       0.716522        19.4976 
 273   0.0000       0.720788        19.6136 
 274   0.0000       0.724193        19.7063 
 275   0.0000       0.729844        19.8601 
 276   0.0000       0.732576        19.9344 
 277   0.0000       0.735857        20.0237 
 278   0.0000       0.741885        20.1877 
 279   0.0000       0.743949        20.2439 
 280   0.0000       0.748502        20.3678 
 281   0.0000       0.751742        20.4559 
 282   0.0000       0.761849        20.7310 
 283   0.0000       0.767327        20.8800 
[...]
  | sigma^2 in % of trace(Dij) retained ...   9.07e+00
  | sigma^2 in % of trace(Dip) retained ...   2.10e+01
  | sigma^2 in % of trace(Dpq) retained ...   1.36e-01
  | Av. % of trace(Di) retained         ...  99.998539282913
  | Av. % of trace(Dp) retained         ...  99.999998955573
  | sigma^2 in % of trace(Di) retained  ...   6.78e-07
  | sigma^2 in % of trace(Dp) retained  ...   3.43e-12
 Distributions of % trace(Dij) recovered:
  |       >= 99.9  ...   105 ( 21.5 % of all IJ-pairs)
  |   [80.0, 90.0) ...    25 (  5.1 % of all IJ-pairs)
  |   [90.0, 99.0) ...   262 ( 53.6 % of all IJ-pairs)
  |   [99.0, 99.9) ...    97 ( 19.8 % of all IJ-pairs)
 Distributions of % trace(Dip) recovered:
  |   [80.0, 90.0) ...    18 ( 15.3 % of all IP-pairs)
  |   [90.0, 99.0) ...    57 ( 48.3 % of all IP-pairs)
  |   [99.0, 99.9) ...    43 ( 36.4 % of all IP-pairs)
 Distributions of % trace(Dpq) recovered:
  |       >= 99.9  ...     5 ( 33.3 % of all PQ-pairs)
  |   [99.0, 99.9) ...    10 ( 66.7 % of all PQ-pairs)
 Distributions of % trace(Di) recovered :
  |       >= 99.9  ...    43 (100.0 % of all I-pairs )
 Distributions of % trace(Dp) recovered :
  |       >= 99.9  ...     5 (100.0 % of all P-pairs )

                       ===========================
                       1078 OF 1669 PAIRS ARE KEPT
                       ===========================

 Initial PAO correlation energy (all pairs)    ...  -2.6895253846 Eh
 Energy constituents in PAO basis (Eh):
  | Vijab(+0) ...  -2.2620721847
  | Viab (-1) ...  -0.1743078190
  | Vab  (-2) ...  -0.0573438281
  | Va   (-1) ...  -0.0000441214
  | Vija (+1) ...  -0.0716334569
  | Vij  (+2) ...  -0.0155202010
  | Via  (+0) ...  -0.1084420186
  | Vi   (+1) ...  -0.0001617548
 Initial PNO correlation energy                ...  -2.6551556573 Eh
 Energy constituents in PNO basis (Eh):
  | Vijab(+0) ...  -2.2433136841 (err=  0.0187585006)
  | Viab (-1) ...  -0.1603181330 (err=  0.0139896861)
  | Vab  (-2) ...  -0.0568902490 (err=  0.0004535791)
  | Va   (-1) ...  -0.0000255803 (err=  0.0000185411)
  | Vija (+1) ...  -0.0706408086 (err=  0.0009926483)
  | Vij  (+2) ...  -0.0154592490 (err=  0.0000609520)
  | Via  (+0) ...  -0.1083465411 (err=  0.0000954775)
  | Vi   (+1) ...  -0.0001614123 (err=  0.0000003425)
 Sum of total truncation errors ...   0.0343697273 Eh
  | Pair screening ...   0.0117336016 Eh
  | PNO truncation ...   0.0226361257 Eh

 UMP2 correlation energy (PAO) ...  -2.6845303483
  | alpha-alpha ...  -0.3855421262 (NP_aa=  896)
  | alpha-beta  ...  -1.9930486521 (NP_ab= 1644)
  | beta -beta  ...  -0.3059395699 (NP_bb=  715)
 UMP2 correlation energy (PNO) ...  -2.6497787553
  | alpha-alpha ...  -0.3735238273 (err=  0.0120182990, NP_aa=  574)
  | alpha-beta  ...  -1.9744433219 (err=  0.0186053302, NP_ab= 1053)
  | beta -beta  ...  -0.3018116061 (err=  0.0041279638, NP_bb=  446)
 Sum of total UMP2 truncation errors ...   0.0347515929 Eh
  | Pair screening ...   0.0117525598 Eh
  | PNO truncation ...   0.0229990331 Eh
 Timing for NEV-PNO construction (sec.)
  | Intermediate construction  ..           41.164
  | Amplitude construction     ..           60.716
  | Total time                 ..          101.880
 Making pair pair interaction lists ...      ok
 Total size for 2-ext PNO integrals ...     10.8 MB
Checking the number of SOMO/SOMO doubles PNOs ... 
 #Truncate: (72, 72)[169] -> [85] .. 
 #Truncate: (73, 73)[172] -> [85] .. 
 #Truncate: (74, 74)[168] -> [85] .. 
 #Truncate: (75, 75)[170] -> [85] .. 
 #Truncate: (76, 76)[171] -> [85] .. 

--------------------------------
LOCAL RI TRANSFORMATION (VABPAO)
--------------------------------

Number of PAOs:    1030
Basis functions:   1025 (343 shells)
Aux. functions:    2424 (644 shells)

Processing maps (0.0 sec)
Average map sizes:
   Aux shells -> PAOs           1030.0
   PAOs       -> AO shells       343.0

Calculating integrals (189.1 sec, 37370.165 MB)
Finished
-----------------------------
LOCAL RI TRANSFORMATION (IJV)
-----------------------------

Orbital window:      29 to 76
Basis functions:   1025 (343 shells)
Aux. functions:    2424 (644 shells)

Processing maps (0.0 sec)
Average map sizes:
   Aux shells -> MOs(i)           46.4
   Aux shells -> MOs(j)           48.0
   MOs        -> AO shells       339.2

Calculating integrals (23.2 sec, 41.340 MB)
Sorting integrals (0.3 sec, 41.313 MB)
Total time for the integral transformation: 23.6 sec


-------------------------------------
Pair Pair Term precalculation with     
RI-(ij|mn) and (im|jn) transformation  
ON THE FLY                             
-------------------------------------

   IBatch   1 (of   2)              ... done ( 1081.821 sec)
   IBatch   2 (of   2)              ... done (  945.753 sec)
Total EXT                           ...        2027.575 sec

---------------------
RI-PNO TRANSFORMATION
---------------------

Total Number of PNOs                   ... 33711
Total Number of IJ-PNOs                ... 29564
Total Number of IP-PNOs                ...  3194
Total Number of PQ-PNOs                ...   953
Total Number of IJ-pairs               ...   935
Total Number of PI-pairs               ...   118
Total Number of PQ-pairs               ...    25
Average number of PNOs per pair        ...    31
Maximal number of PNOs per pair        ...    85
>> Statistics for ij-pairs..
   #pairs with  1 -  5 PNOs   :    0
   #pairs with  6 - 10 PNOs   :    0
   #pairs with 11 - 15 PNOs   :   74
   #pairs with 16 - 20 PNOs   :  212
   #pairs with 21 - 25 PNOs   :  150
   #pairs with 26 - 30 PNOs   :  148
   #pairs with 31 - 35 PNOs   :   56
   #pairs with 36 - 40 PNOs   :   58
   #pairs with 41 - 45 PNOs   :   38
   #pairs with 46 - 50 PNOs   :   30
   #pairs with 51 - 55 PNOs   :   33
   #pairs with 56 - 60 PNOs   :   60
   #pairs with 61 - 65 PNOs   :   71
   #pairs with 66 - 70 PNOs   :    2
   #pairs with 71 - 75 PNOs   :    1
   #pairs with 81 - 85 PNOs   :    2
>> Statistics for ip-pairs..
   #pairs with  1 -  5 PNOs   :    0
   #pairs with  6 - 10 PNOs   :    4
   #pairs with 11 - 15 PNOs   :   14
   #pairs with 16 - 20 PNOs   :    3
   #pairs with 21 - 25 PNOs   :   29
   #pairs with 26 - 30 PNOs   :    9
   #pairs with 31 - 35 PNOs   :   45
   #pairs with 36 - 40 PNOs   :   13
   #pairs with 41 - 45 PNOs   :    1
   #pairs with 46 - 50 PNOs   :    0
>> Statistics for pq-pairs..
   #pairs with  1 -  5 PNOs   :    0
   #pairs with  6 - 10 PNOs   :    0
   #pairs with 11 - 15 PNOs   :    0
   #pairs with 16 - 20 PNOs   :    0
   #pairs with 21 - 25 PNOs   :   10
   #pairs with 26 - 30 PNOs   :   10
   #pairs with 31 - 35 PNOs   :    0
   #pairs with 36 - 40 PNOs   :    0
   #pairs with 41 - 45 PNOs   :    0
   #pairs with 46 - 50 PNOs   :    0
   #pairs with 81 - 85 PNOs   :    5

Generation of (ij|ab)[P] integrals            ... on
Generation of (ia|bc)[P],(ja|bc)[P] integrals ... on
Storage of 3 and 4 external integrals         ... on
Generation of ALL (ka|bc)[P] integrals        ... on
Keep RI integrals in memory                   ... off

Ibatch:  1 (of  1)
Starting 2-4 index PNO integral generation ... done

Timings:
Total PNO integral transformation time     ...       2057.846 sec
Size of the 3-external file                ...       284 MB
Size of the 4-external file                ...      1931 MB
Size of the IKJL file                      ...        17 MB
Size of the all 3-external file            ...      6822 MB
Size of the 1-external file                ...        21 MB

Size of the PAO/PNO coefficient matrices   ...     214.0 MB

Making pair/pair overlap matrices          ... done (  327.149 sec)
Size of the pair overlap file              ...    2363.0 MB
Total # unrestricted pairs ...       2073
  # of alpha-alpha pairs   ...        574
  # of alpha-beta pairs    ...       1053
  # of beta-beta pairs     ...        446
Constructing the guess amplitudes          ... done (    0.694 sec)

-------------------------
FINAL STARTUP INFORMATION
-------------------------

E(0)                                       ...  -3028.449475239
E(SL-UMP2 in NEV-PNO space)                ...     -2.685528427
Initial E(tot)                             ...  -3031.135003666
<T|T>                                      ...      0.534687897
Number of unrestricted pairs included      ... 2073
Total number of pairs                      ... 4095
----------------------------------------------------------
                     OPEN-SHELL COUPLED CLUSTER ITERATIONS
----------------------------------------------------------

Number of PNO amplitudes to be optimized        ...          2081399
Number of canonical amplitudes for strong pairs ...       1872330325
Untruncated number of canonical amplitudes      ...       3698645738

Iter       E(tot)           E(Corr)          Delta-E          Residual     Time
  0  -3031.142196759     -2.656971848      0.028556579      0.020742622 1798.54
                           *** Turning on DIIS ***
  1  -3031.256094605     -2.770869694     -0.113897846      0.009479666 1824.38
  2  -3031.320865695     -2.835640784     -0.064771090      0.008278475 1815.45
  3  -3031.342533618     -2.857308707     -0.021667923      0.003242951 1818.47
  4  -3031.350009509     -2.864784598     -0.007475891      0.002636779 1900.65
  5  -3031.354084356     -2.868859445     -0.004074847      0.001522363 1904.97
  6  -3031.355578798     -2.870353887     -0.001494442      0.000815675 1848.57
  7  -3031.356230356     -2.871005445     -0.000651558      0.000503232 1807.47
  8  -3031.356371739     -2.871146828     -0.000141383      0.000259628 1783.41
  9  -3031.356430613     -2.871205701     -0.000058873      0.000167733 1792.78
 10  -3031.356429867     -2.871204956      0.000000746      0.000105958 1819.13
 11  -3031.356442733     -2.871217822     -0.000012866      0.000066854 1817.70
 12  -3031.356447234     -2.871222322     -0.000004500      0.000033021 1870.88
 13  -3031.356449542     -2.871224631     -0.000002308      0.000018210 1857.27
 14  -3031.356451060     -2.871226149     -0.000001518      0.000006085 1807.69
               --- The CCSD iterations have converged ---

E(0)                                       ...  -3028.449475239
E(CORR)(strong-pairs)                      ...     -2.871226149
E(CORR)(weak-pairs)                        ...     -0.035749672
E(CORR)(corrected)                         ...     -2.906975821
E(TOT)                                     ...  -3031.356451060
Singles norm <S|S>**1/2                    ...      0.194468007 ( 0.065074291, 0.129393716)  
T1 diagnostic                              ...      0.020385786                              
<S**2>(linearized)                         ...      8.7508205 (ideal value:      8.7500000)

----------------------
LARGEST PNO AMPLITUDES
----------------------
  51b-> 76b  -1b-> -1b       0.054309
  49b-> 72b  -1b-> -1b       0.053963
  52b-> 76b  -1b-> -1b       0.053424
  46a-> 78a  46b-> 78b       0.052949
  46a-> 77a  46b-> 77b       0.047746
  49b-> 75b  -1b-> -1b       0.047338
  49b-> 74b  -1b-> -1b       0.045979
  62a-> 77a  62b-> 77b       0.044503
  66a-> 77a  66b-> 77b       0.044315
  55a-> 77a  55b-> 77b       0.044067
  70a-> 77a  70b-> 77b       0.043613
  56a-> 78a  56b-> 78b       0.043527
  64a-> 77a  64b-> 77b       0.042989
  43a-> 77a  43b-> 77b       0.042964
  38b-> 73b  -1b-> -1b       0.042878
  44a-> 77a  -1a-> -1a       0.042407

Total # unrestricted pairs ...       1182
  # of alpha-alpha pairs   ...        322
  # of alpha-beta pairs    ...        591
  # of beta-beta pairs     ...        269

-------------------------------------------
DLPNO BASED TRIPLES CORRECTION
-------------------------------------------

Singles multiplier          ...  1.000000
Fragment selection                          .... not used
TCutTNO                     ... 1.000e-09
TCutMP2Pairs                ... 1.000e-05
TCutDOStrong                ... 2.000e-02
TCutMKNStrong               ... 1.000e-02
TCutDOWeak                  ... 4.000e-02
TCutMKNWeak                 ... 1.000e-01
NTCutTNO                    ... 1

Number of Triples that are to be computed         ...     32604

 . . . . . . . . .
10% done  
20% done  
30% done  
40% done  
50% done  
60% done  
70% done  
80% done  
90% done  
          Batch   1   done (  13359.308 sec)

Triples-Correction TCutTNO=   1.000e-09 (NWeakPairs = 0  1  2  3)  -0.117218500889   -0.001902788492    0.000000000000    0.000000000000
Triples-Correction  -0.119121289381

Triples timings:
Total time                      ... 13945.024 sec

Triples List generation         ...     0.000 sec
TNO generation                  ...   585.459 sec
Pair density generation         ...     0.094 sec
Look up tables                  ...     0.108 sec
Generating 3-index integrals    ...  7988.997 sec
Make 4-ind.int. from 3-ind.int  ...     3.076 sec
Projecting amplitudes (D + S)   ...  5129.979 sec
Sorting integrals for spin cases...    49.388 sec
Calculate W0/W1                 ...   151.275 sec
Energy contr. (sum over a,b,c)  ...    36.457 sec

Everything after 3-index        ...  5481.266 sec

Energy contribution AAA         ...    22.895 sec
Energy contribution AAB         ...   105.130 sec
Energy contribution ABB         ...    96.203 sec
Energy contribution BBB         ...    12.935 sec
prep                ...     2.943 sec
makeTTNO            ...  5077.463 sec
copyij              ...     0.123 sec
copyil              ...     3.811 sec
transposeij         ...     0.073 sec
newMatInDoubleProj  ...    50.768 sec
BlasInDoubleProj    ...  2728.438 sec
ProjSingles         ...    43.207 sec
ProjDoubles         ...  5086.771 sec
overall Doubles for projection      ... 2899991
used Doubles for projection         ... 2899991


Number of Triples   (0, 1, 2, 3 weak pairs; overall):  15289   11696       0       0  ( 26985)
Number of Atoms     (0, 1, 2, 3 weak pairs; overall):   19.3    14.2     0.0     0.0  (    29)
Number of PAOs      (0, 1, 2, 3 weak pairs; overall):  753.4   573.2     0.0     0.0  (  1025)
Number of AuxFcns   (0, 1, 2, 3 weak pairs; overall):  843.9   569.8     0.0     0.0  (  2424)
Number of TNOs (0, 1, 2, 3 weak pairs         ):   79.3    56.3     0.0     0.0
Aver. Number of NTNO, Atoms, PAOs, AuxFcns / Triples:  26985    69.3    17.1   675.3   725.1

Triples Correction (T)                     ...     -0.119121289
    alpha-alpha-alpha ... -0.003842438 (  3.2%)
    alpha-alpha-beta  ... -0.055945984 ( 47.0%)
    alpha-beta -beta  ... -0.055248188 ( 46.4%)
    beta -beta -beta  ... -0.004084680 (  3.4%)
Final correlation energy                   ...     -3.026097110
E(CCSD)                                    ...  -3031.356451060
E(CCSD(T))                                 ...  -3031.475572349

----------------------------
STATISTICS FOR PAIR-ENERGIES
----------------------------
Minimum, maximum and average ratios of UMP and CCSD pair-energies ... 0.32, 1.44, 1.02


------------------------------------------------------------------------------- 
                                     TIMINGS                                   
------------------------------------------------------------------------------- 


Total execution time                   ...    49544.238 sec

Localization of occupied MO's          ...        9.513 sec (  0.0%)
Fock Matrix Formation                  ...     1386.118 sec (  2.8%)
Differential overlap integrals         ...        1.454 sec (  0.0%)
Organizing maps                        ...        1.656 sec (  0.0%)
RI 3-index integral generations        ...      276.677 sec (  0.6%)
RI-PNO integral transformation         ...     4685.714 sec (  9.5%)
Initial Guess                          ...     1778.700 sec (  3.6%)
DIIS Solver                            ...       15.722 sec (  0.0%)
State Vector Update                    ...        0.725 sec (  0.0%)
Sigma-vector construction              ...    27467.363 sec ( 55.4%)
  <0|H|D>                              ...        0.029 sec (  0.0% of sigma)
  <D|H|D>(0-ext)                       ...     5159.061 sec ( 18.8% of sigma)
  <D|H|D>(2-ext Fock)                  ...        1.147 sec (  0.0% of sigma)
  <D|H|D>(2-ext)                       ...     3569.587 sec ( 13.0% of sigma)
  <D|H|D>(4-ext)                       ...      165.833 sec (  0.6% of sigma)
  <D|H|D>(4-ext-corr)                  ...     1027.598 sec (  3.7% of sigma)
  CCSD doubles correction              ...      492.944 sec (  1.8% of sigma)
  <S|H|S>                              ...      683.362 sec (  2.5% of sigma)
  <S|H|D>(1-ext)                       ...      273.322 sec (  1.0% of sigma)
  <D|H|S>(1-ext)                       ...        1.107 sec (  0.0% of sigma)
  <S|H|D>(3-ext)                       ...       21.521 sec (  0.1% of sigma)
  CCSD singles correction              ...        0.005 sec (  0.0% of sigma)
  Fock-dressing                        ...     8365.557 sec ( 30.5% of sigma)
  Singles amplitudes                   ...      112.649 sec (  0.4% of sigma)
  (ik|jl)-dressing                     ...     5953.714 sec ( 21.7% of sigma)
  (ij|ab),(ia|jb)-dressing             ...     1378.367 sec (  5.0% of sigma)
  Pair energies                        ...        0.119 sec (  0.0% of sigma)
Total Time for computing (T)           ...    14250.410 sec ( 28.8% of ALL)


-------------------------   --------------------
FINAL SINGLE POINT ENERGY     -3031.475572349113
-------------------------   --------------------


                            ***************************************
                            *     ORCA property calculations      *
                            ***************************************

                                    ---------------------
                                    Active property flags
                                    ---------------------
   (+) Dipole Moment


------------------------------------------------------------------------------
                       ORCA ELECTRIC PROPERTIES CALCULATION
------------------------------------------------------------------------------

Dipole Moment Calculation                       ... on
Quadrupole Moment Calculation                   ... off
Polarizability Calculation                      ... off
GBWName                                         ... simple-grid-235-285-b3lyp_d3bj-631gd-gas-singlepoint-DLPNO_CCSD_T1-NormalPNO-augtz-gas.gbw
Electron density file                           ... simple-grid-235-285-b3lyp_d3bj-631gd-gas-singlepoint-DLPNO_CCSD_T1-NormalPNO-augtz-gas.scfp.tmp
The origin for moment calculation is the CENTER OF MASS  = ( 0.314921,  0.043028  0.010804)

-------------
DIPOLE MOMENT
-------------
                                X             Y             Z
Electronic contribution:     43.12324       5.26605       1.05294
Nuclear contribution   :    -46.92316      -6.41117      -1.60978
                        -----------------------------------------
Total Dipole Moment    :     -3.79993      -1.14512      -0.55684
                        -----------------------------------------
Magnitude (a.u.)       :      4.00759
Magnitude (Debye)      :     10.18649



--------------------
Rotational spectrum 
--------------------
 
Rotational constants in cm-1:     0.019097     0.010777     0.010146 
Rotational constants in MHz :   572.519825   323.100581   304.166424 

 Dipole components along the rotational axes: 
x,y,z [a.u.] :    -3.794994     1.136150    -0.606620 
x,y,z [Debye]:    -9.646109     2.887864    -1.541905 

 

Timings for individual modules:

Sum of individual times         ...    65766.181 sec (=1096.103 min)
GTO integral calculation        ...       12.288 sec (=   0.205 min)   0.0 %
SCF iterations                  ...    16192.148 sec (= 269.869 min)  24.6 %
MDCI module                     ...    49561.745 sec (= 826.029 min)  75.4 %
                             ****ORCA TERMINATED NORMALLY****
TOTAL RUN TIME: 0 days 18 hours 16 minutes 8 seconds 948 msec
