
                                 *****************
                                 * O   R   C   A *
                                 *****************

           --- An Ab Initio, DFT and Semiempirical electronic structure package ---

                  #######################################################
                  #                        -***-                        #
                  #          Department of theory and spectroscopy      #
                  #               Directorship: Frank Neese             #
                  #        Max Planck Institute fuer Kohlenforschung    #
                  #                Kaiser Wilhelm Platz 1               #
                  #                 D-45470 Muelheim/Ruhr               #
                  #                      Germany                        #
                  #                                                     #
                  #                  All rights reserved                #
                  #                        -***-                        #
                  #######################################################


                         Program Version 4.1.2  - RELEASE  -


 With contributions from (in alphabetic order):
   Daniel Aravena         : Magnetic Properties
   Michael Atanasov       : Ab Initio Ligand Field Theory
   Alexander A. Auer      : GIAO ZORA
   Ute Becker             : Parallelization
   Giovanni Bistoni       : ED, Open-shell LED
   Martin Brehm           : Molecular dynamics
   Dmytro Bykov           : SCF Hessian
   Vijay G. Chilkuri      : MRCI spin determinant printing
   Dipayan Datta          : RHF DLPNO-CCSD density
   Achintya Kumar Dutta   : EOM-CC, STEOM-CC
   Dmitry Ganyushin       : Spin-Orbit,Spin-Spin,Magnetic field MRCI
   Miquel Garcia          : C-PCM Hessian
   Yang Guo               : DLPNO-NEVPT2, CIM, IAO-localization
   Andreas Hansen         : Spin unrestricted coupled pair/coupled cluster methods
   Benjamin Helmich-Paris : CASSCF linear response (MC-RPA)
   Lee Huntington         : MR-EOM, pCC
   Robert Izsak           : Overlap fitted RIJCOSX, COSX-SCS-MP3, EOM
   Christian Kollmar      : KDIIS, OOCD, Brueckner-CCSD(T), CCSD density
   Simone Kossmann        : Meta GGA functionals, TD-DFT gradient, OOMP2, MP2 Hessian
   Martin Krupicka        : AUTO-CI
   Lucas Lang             : DCDCAS
   Dagmar Lenk            : GEPOL surface, SMD
   Dimitrios Liakos       : Extrapolation schemes; parallel MDCI
   Dimitrios Manganas     : ROCIS; embedding schemes
   Dimitrios Pantazis     : SARC Basis sets
   Taras Petrenko         : DFT Hessian,TD-DFT gradient, ASA, ECA, R-Raman, ABS, FL, XAS/XES, NRVS
   Peter Pinski           : DLPNO-MP2, DLPNO-MP2 Gradient
   Christoph Reimann      : Effective Core Potentials
   Marius Retegan         : Local ZFS, SOC
   Christoph Riplinger    : Optimizer, TS searches, QM/MM, DLPNO-CCSD(T), (RO)-DLPNO pert. Triples
   Tobias Risthaus        : Range-separated hybrids, TD-DFT gradient, RPA, STAB
   Michael Roemelt        : Restricted open shell CIS
   Masaaki Saitow         : Open-shell DLPNO
   Barbara Sandhoefer     : DKH picture change effects
   Avijit Sen             : IP-ROCIS
   Kantharuban Sivalingam : CASSCF convergence, NEVPT2, FIC-MRCI
   Bernardo de Souza      : ESD, SOC TD-DFT
   Georgi Stoychev        : AutoAux, RI-MP2 NMR
   Willem Van den Heuvel  : Paramagnetic NMR
   Boris Wezisla          : Elementary symmetry handling
   Frank Wennmohs         : Technical directorship


 We gratefully acknowledge several colleagues who have allowed us to
 interface, adapt or use parts of their codes:
   Stefan Grimme, W. Hujo, H. Kruse,             : VdW corrections, initial TS optimization,
                  C. Bannwarth                     DFT functionals, gCP, sTDA/sTD-DF
   Ed Valeev                                     : LibInt (2-el integral package), F12 methods
   Garnet Chan, S. Sharma, J. Yang, R. Olivares  : DMRG
   Ulf Ekstrom                                   : XCFun DFT Library
   Mihaly Kallay                                 : mrcc  (arbitrary order and MRCC methods)
   Andreas Klamt, Michael Diedenhofen            : otool_cosmo (COSMO solvation model)
   Jiri Pittner, Ondrej Demel                    : Mk-CCSD
   Frank Weinhold                                : gennbo (NPA and NBO analysis)
   Christopher J. Cramer and Donald G. Truhlar   : smd solvation model
   Lars Goerigk                                  : TD-DFT with DH, B97 family of functionals
   V. Asgeirsson, H. Jonsson                     : NEB implementation
   FAccTs GmbH                                   : IRC, NEB, NEB-TS, Multilevel


 Your calculation uses the libint2 library for the computation of 2-el integrals
 For citations please refer to: http://libint.valeyev.net

 This ORCA versions uses:
   CBLAS   interface :  Fast vector & matrix operations
   LAPACKE interface :  Fast linear algebra routines
   SCALAPACK package :  Parallel linear algebra routines


----- Orbital basis set information -----
Your calculation utilizes the basis: aug-cc-pVTZ 
    H, B-Ne : Obtained from the ccRepo (grant-hill.group.shef.ac.uk/ccrepo) Feb. 2017
              R. A. Kendall, T. H. Dunning, Jr., R. J. Harrison, J. Chem. Phys. 96, 6796 (1992)
         He : Obtained from the ccRepo (grant-hill.group.shef.ac.uk/ccrepo) Feb. 2017
              D. E. Woon, T. H. Dunning, Jr., J. Chem. Phys. 100, 2975 (1994)
  Li-Be, Na : Obtained from the ccRepo (grant-hill.group.shef.ac.uk/ccrepo) Feb. 2017
              B. P. Prascher, D. E. Woon, K. A. Peterson, T. H. Dunning, Jr., A. K. Wilson, Theor. Chem. Acc. 128, 69 (2011)
         Mg : Obtained from the Peterson Research Group Website (tyr0.chem.wsu.edu/~kipeters) Feb. 2017
              B. P. Prascher, D. E. Woon, K. A. Peterson, T. H. Dunning, Jr., A. K. Wilson, Theor. Chem. Acc. 128, 69 (2011)
      Al-Ar : Obtained from the ccRepo (grant-hill.group.shef.ac.uk/ccrepo) Feb. 2017
              D. E. Woon, T. H. Dunning, Jr., J. Chem. Phys. 98, 1358 (1993)
      Sc-Zn : Obtained from the ccRepo (grant-hill.group.shef.ac.uk/ccrepo) Feb. 2017
              N. B. Balabanov, K. A. Peterson, J. Chem. Phys. 123, 064107 (2005)
              N. B. Balabanov, K. A. Peterson, J. Chem. Phys. 125, 074110 (2006)
      Ga-Kr : Obtained from the ccRepo (grant-hill.group.shef.ac.uk/ccrepo) Feb. 2017
              A. K. Wilson, D. E. Woon, K. A. Peterson, T. H. Dunning, Jr., J. Chem. Phys. 110, 7667 (1999)
     Ag, Au : Obtained from the Peterson Research Group Website (tyr0.chem.wsu.edu/~kipeters) Feb. 2017
              K. A. Peterson, C. Puzzarini, Theor. Chem. Acc. 114, 283 (2005)

----- AuxJ basis set information -----
Your calculation utilizes the AutoAux generation procedure.
  G. L. Stoychev, A. A. Auer, F. Neese, J. Chem. Theory Comput. 13, 554 (2017)

----- AuxC basis set information -----
Your calculation utilizes the auxiliary basis: aug-cc-pVTZ/C 
  H-He, B-F, Al-Ar, Ga-Kr : Obtained from the EMSL Basis Set Exchange (bse.pnl.gov) Feb. 2017
                            F. Weigend, A. Kohn, C. Hattig, J. Chem. Phys. 116, 3175 (2002)
                   Be, Mg : Obtained from the TURBOMOLE 7.0 basis set library
                            C. Haettig, Phys. Chem. Chem. Phys. 7, 59 (2005)
                       Ne : Obtained from the EMSL Basis Set Exchange (bse.pnl.gov) Feb. 2017
                            C. Haettig, Phys. Chem. Chem. Phys. 7, 59 (2005)
                            F. Weigend, A. Kohn, C. Hattig, J. Chem. Phys. 116, 3175 (2002)
                    Sc-Zn : Obtained from the EMSL Basis Set Exchange (bse.pnl.gov) Feb. 2017
                            J. G. Hill, J. A. Platts, J. Chem. Phys. 128, 044104 (2008)

----- AuxJK basis set information -----
Your calculation utilizes the AutoAux generation procedure.
  G. L. Stoychev, A. A. Auer, F. Neese, J. Chem. Theory Comput. 13, 554 (2017)

================================================================================
                                        WARNINGS
                       Please study these warnings very carefully!
================================================================================


WARNING: your system is open-shell and RHF/RKS was chosen
  ===> : WILL SWITCH to UHF/UKS


WARNING: MDCI localization with Augmented Hessian Foster-Boys
  ===> : Switching off randomization!

WARNING: Post HF methods need fully converged wavefunctions
  ===> : Setting SCFConvForced true
         You can overwrite this default with %scf ConvForced false 


INFO   : the flag for use of LIBINT has been found!

================================================================================
                                       INPUT FILE
================================================================================
NAME = simple-grid-175-245-b3lyp_d3bj-631gd-gas-singlepoint-DLPNO_CCSD_T1-NormalPNO-augtz-gas.inp
|  1> ! aug-cc-pVTZ aug-cc-pVTZ/C DLPNO-CCSD(T1) TightSCF NormalPNO UNO MiniPrint AutoAux
|  2> %pal nproc 10 end
|  3> %maxcore 20000
|  4> %mdci
|  5>      density none
|  6> end
|  7> 
|  8> * xyz 0 6
|  9>  O     -0.31542800     -0.23522700     -0.70896400
| 10>  C     -1.31906300     -1.14901800     -0.51988500
| 11>  C     -2.64653100     -0.33468600      0.27835700
| 12>  C     -2.34473800      1.00967300     -0.13050200
| 13>  C     -2.73138500      1.52543200     -1.45989300
| 14> Fe      1.36969000      0.09953800     -0.02765700
| 15> Cl      1.76805600      2.15664400     -0.75133400
| 16>  C     -1.59723400      1.93203000      0.73832400
| 17> Cl      2.74803300     -1.46912500     -0.71382100
| 18> Cl      1.13558100      0.08178600      2.20558600
| 19>  H     -3.52505700     -0.72313800     -0.24087300
| 20>  H     -2.36343200      2.47877400      1.31825200
| 21>  H     -0.95245500      1.42420300      1.45699700
| 22>  H     -1.02413900      2.66448500      0.16402400
| 23>  H     -3.03937600      2.57482500     -1.38699800
| 24>  H     -1.80625400      1.52299600     -2.05856500
| 25>  H     -3.49641400      0.93381100     -1.96243000
| 26>  C     -2.70766100     -0.59763300      1.78279000
| 27>  H     -3.48039100      0.02590000      2.24639900
| 28>  H     -2.97204400     -1.64088500      1.96620700
| 29>  H     -1.75737500     -0.39807000      2.28186600
| 30>  C     -0.90374900     -2.32857700      0.35291200
| 31>  H     -1.71711600     -3.04632700      0.49387900
| 32>  H     -0.08504200     -2.82966400     -0.17715400
| 33>  H     -0.51949500     -2.00783500      1.32133500
| 34>  C     -1.84588800     -1.63525700     -1.87110200
| 35>  H     -1.02208400     -2.15637800     -2.36942500
| 36>  H     -2.68444500     -2.32939100     -1.75658900
| 37>  H     -2.14427800     -0.80943600     -2.51943100
| 38> *
| 39> 
| 40> 
| 41>                          ****END OF INPUT****
================================================================================

                       ****************************
                       * Single Point Calculation *
                       ****************************

---------------------------------
CARTESIAN COORDINATES (ANGSTROEM)
---------------------------------
  O     -0.315428   -0.235227   -0.708964
  C     -1.319063   -1.149018   -0.519885
  C     -2.646531   -0.334686    0.278357
  C     -2.344738    1.009673   -0.130502
  C     -2.731385    1.525432   -1.459893
  Fe     1.369690    0.099538   -0.027657
  Cl     1.768056    2.156644   -0.751334
  C     -1.597234    1.932030    0.738324
  Cl     2.748033   -1.469125   -0.713821
  Cl     1.135581    0.081786    2.205586
  H     -3.525057   -0.723138   -0.240873
  H     -2.363432    2.478774    1.318252
  H     -0.952455    1.424203    1.456997
  H     -1.024139    2.664485    0.164024
  H     -3.039376    2.574825   -1.386998
  H     -1.806254    1.522996   -2.058565
  H     -3.496414    0.933811   -1.962430
  C     -2.707661   -0.597633    1.782790
  H     -3.480391    0.025900    2.246399
  H     -2.972044   -1.640885    1.966207
  H     -1.757375   -0.398070    2.281866
  C     -0.903749   -2.328577    0.352912
  H     -1.717116   -3.046327    0.493879
  H     -0.085042   -2.829664   -0.177154
  H     -0.519495   -2.007835    1.321335
  C     -1.845888   -1.635257   -1.871102
  H     -1.022084   -2.156378   -2.369425
  H     -2.684445   -2.329391   -1.756589
  H     -2.144278   -0.809436   -2.519431

----------------------------
CARTESIAN COORDINATES (A.U.)
----------------------------
  NO LB      ZA    FRAG     MASS         X           Y           Z
   0 O     8.0000    0    15.999   -0.596073   -0.444515   -1.339748
   1 C     6.0000    0    12.011   -2.492668   -2.171329   -0.982440
   2 C     6.0000    0    12.011   -5.001219   -0.632465    0.526018
   3 C     6.0000    0    12.011   -4.430913    1.908005   -0.246613
   4 C     6.0000    0    12.011   -5.161570    2.882649   -2.758798
   5 Fe   26.0000    0    55.850    2.588339    0.188100   -0.052264
   6 Cl   17.0000    0    35.453    3.341142    4.075467   -1.419815
   7 C     6.0000    0    12.011   -3.018335    3.651008    1.395230
   8 Cl   17.0000    0    35.453    5.193030   -2.776244   -1.348926
   9 Cl   17.0000    0    35.453    2.145937    0.154553    4.167954
  10 H     1.0000    0     1.008   -6.661392   -1.366533   -0.455184
  11 H     1.0000    0     1.008   -4.466239    4.684204    2.491135
  12 H     1.0000    0     1.008   -1.799879    2.691354    2.753325
  13 H     1.0000    0     1.008   -1.935342    5.035147    0.309960
  14 H     1.0000    0     1.008   -5.743588    4.865714   -2.621046
  15 H     1.0000    0     1.008   -3.413325    2.878045   -3.890124
  16 H     1.0000    0     1.008   -6.607265    1.764647   -3.708455
  17 C     6.0000    0    12.011   -5.116738   -1.129363    3.368985
  18 H     1.0000    0     1.008   -6.576986    0.048944    4.245079
  19 H     1.0000    0     1.008   -5.616349   -3.100823    3.715593
  20 H     1.0000    0     1.008   -3.320957   -0.752243    4.312102
  21 C     6.0000    0    12.011   -1.707838   -4.400373    0.666907
  22 H     1.0000    0     1.008   -3.244879   -5.756724    0.933296
  23 H     1.0000    0     1.008   -0.160706   -5.347290   -0.334773
  24 H     1.0000    0     1.008   -0.981703   -3.794258    2.496961
  25 C     6.0000    0    12.011   -3.488223   -3.090188   -3.535870
  26 H     1.0000    0     1.008   -1.931459   -4.074964   -4.477564
  27 H     1.0000    0     1.008   -5.072866   -4.401911   -3.319472
  28 H     1.0000    0     1.008   -4.052098   -1.529612   -4.761035



           ************************************************************
           *        Program running with 10 parallel MPI-processes    *
           *              working on a common directory               *
           ************************************************************


           ************************************************************
           *        Program running with 10 parallel MPI-processes    *
           *              working on a common directory               *
           ************************************************************

Diagonalization of the overlap matrix:
Smallest eigenvalue                        ... 5.750e-07
Time for diagonalization                   ...    0.328 sec
Threshold for overlap eigenvalues          ... 1.000e-08
Number of eigenvalues below threshold      ... 0
Time for construction of square roots      ...    0.262 sec
Total time needed                          ...    0.594 sec

-------------------
DFT GRID GENERATION
-------------------

General Integration Accuracy     IntAcc      ...  4.340
Radial Grid Type                 RadialGrid  ... Gauss-Chebyshev
Angular Grid (max. acc.)         AngularGrid ... Lebedev-110
Angular grid pruning method      GridPruning ... 3 (G Style)
Weight generation scheme         WeightScheme... Becke
Basis function cutoff            BFCut       ...    1.0000e-11
Integration weight cutoff        WCut        ...    1.0000e-14
Grids for H and He will be reduced by one unit

# of grid points (after initial pruning)     ...  36112 (   0.0 sec)
# of grid points (after weights+screening)   ...  32278 (   0.1 sec)
nearest neighbour list constructed           ...    0.0 sec
Grid point re-assignment to atoms done       ...    0.0 sec
Grid point division into batches done        ...    0.0 sec
Reduced shell lists constructed in    0.2 sec

Total number of grid points                  ...    32278
Total number of batches                      ...      522
Average number of points per batch           ...       61
Average number of grid points per atom       ...     1113
Average number of shells per batch           ...   294.31 (85.81%)
Average number of basis functions per batch  ...   876.06 (85.47%)
Average number of large shells per batch     ...   243.72 (82.81%)
Average number of large basis fcns per batch ...   725.46 (82.81%)
Maximum spatial batch extension              ...   3.77,  3.34,  3.66 au
Average spatial batch extension              ...   0.18,  0.17,  0.17 au

Time for grid setup =    0.345 sec

Loading Hartree-Fock densities                     ... done
Calculating cut-offs                               ... done
Setting up the integral package                    ... done
Initializing the effective Hamiltonian             ... done
Starting the Coulomb interaction                   ... done (   1.1 sec)
Reading the grid                                   ... done
Mapping shells                                     ... done
Starting the XC term evaluation                    ... done (   0.8 sec)
Transforming the Hamiltonian                       ... done (   0.2 sec)
Diagonalizing the Hamiltonian                      ... done (   0.3 sec)
Back transforming the eigenvectors                 ... done (   0.1 sec)
Now organizing SCF variables                       ... done
--------------
SCF ITERATIONS
--------------
ITER       Energy         Delta-E        Max-DP      RMS-DP      [F,P]     Damp
               ***  Starting incremental Fock matrix formation  ***
  0  -3027.5714902825   0.000000000000 0.36074330  0.00124796  0.2999360 0.7000
  1  -3027.8220725717  -0.250582289204 0.26353170  0.00096391  0.1715912 0.7000
                               ***Turning on DIIS***
  2  -3027.9894590121  -0.167386440401 0.18490773  0.00070609  0.1096842 0.7000
  3  -3029.6890057404  -1.699546728330 0.41706543  0.00175833  0.0826094 0.0000
  4  -3028.2980167561   1.390988984277 0.04762246  0.00022568  0.0192247 0.0000
  5  -3028.4165556774  -0.118538921251 0.04003478  0.00017105  0.0116181 0.0000
  6  -3028.4407922608  -0.024236583413 0.02035728  0.00006866  0.0053162 0.0000
  7  -3028.4558447907  -0.015052529887 0.00934896  0.00003181  0.0032241 0.0000
  8  -3028.4526262773   0.003218513402 0.00588869  0.00001832  0.0013556 0.0000
  9  -3028.4434204812   0.009205796089 0.00236927  0.00001074  0.0006875 0.0000
 10  -3028.4330977651   0.010322716079 0.00084645  0.00000331  0.0004011 0.0000
 11  -3028.4388841307  -0.005786365557 0.00025202  0.00000186  0.0000761 0.0000
 12  -3028.4363308373   0.002553293403 0.00046997  0.00000130  0.0000204 0.0000
 13  -3028.4364146028  -0.000083765564 0.00039194  0.00000176  0.0000096 0.0000
 14  -3028.4364671127  -0.000052509899 0.00157874  0.00000301  0.0000051 0.0000
 15  -3028.4363990925   0.000068020236 0.00061015  0.00000230  0.0000029 0.0000
 16  -3028.4364230914  -0.000023998940 0.00171277  0.00000318  0.0000025 0.0000
 17  -3028.4364418907  -0.000018799275 0.00101012  0.00000216  0.0000010 0.0000
                            ***DIIS convergence achieved***

               *****************************************************
               *                     SUCCESS                       *
               *           SCF CONVERGED AFTER  18 CYCLES          *
               *****************************************************

Total Energy       :        -3028.43642282 Eh          -82407.94460 eV
  Last Energy change         ...    1.9071e-05  Tolerance :   1.0000e-08
  Last MAX-Density change    ...    1.8538e-03  Tolerance :   1.0000e-07
             **** THE GBW FILE WAS UPDATED (simple-grid-175-245-b3lyp_d3bj-631gd-gas-singlepoint-DLPNO_CCSD_T1-NormalPNO-augtz-gas.gbw) ****
             **** DENSITY FILE WAS UPDATED (simple-grid-175-245-b3lyp_d3bj-631gd-gas-singlepoint-DLPNO_CCSD_T1-NormalPNO-augtz-gas.scfp.tmp) ****
             **** ENERGY FILE WAS UPDATED (simple-grid-175-245-b3lyp_d3bj-631gd-gas-singlepoint-DLPNO_CCSD_T1-NormalPNO-augtz-gas.en.tmp) ****
----------------------
UHF SPIN CONTAMINATION
----------------------

Expectation value of <S**2>     :     8.764280
Ideal value S*(S+1) for S=2.5   :     8.750000
Deviation                       :     0.014280

----------------
ORBITAL ENERGIES
----------------
                 SPIN UP ORBITALS
  NO   OCC          E(Eh)            E(eV) 
   0   1.0000    -261.542950     -7116.9455 
   1   1.0000    -104.773565     -2851.0337 
   2   1.0000    -104.770219     -2850.9426 
   3   1.0000    -104.766989     -2850.8547 
   4   1.0000     -32.210852      -876.5018 
   5   1.0000     -27.686803      -753.3962 
   6   1.0000     -27.686552      -753.3894 
   7   1.0000     -27.686290      -753.3823 
   8   1.0000     -20.537376      -558.8504 
   9   1.0000     -11.403843      -310.3143 
  10   1.0000     -11.352463      -308.9162 
  11   1.0000     -11.294799      -307.3471 
  12   1.0000     -11.289487      -307.2026 
  13   1.0000     -11.278193      -306.8952 
  14   1.0000     -11.257493      -306.3320 
  15   1.0000     -11.242716      -305.9298 
  16   1.0000     -11.233284      -305.6732 
  17   1.0000     -10.500118      -285.7227 
  18   1.0000     -10.496738      -285.6308 
  19   1.0000     -10.493539      -285.5437 
  20   1.0000      -7.967030      -216.7939 
  21   1.0000      -7.966110      -216.7689 
  22   1.0000      -7.966072      -216.7678 
  23   1.0000      -7.963573      -216.6998 
  24   1.0000      -7.962828      -216.6796 
  25   1.0000      -7.962729      -216.6769 
  26   1.0000      -7.960341      -216.6119 
  27   1.0000      -7.959654      -216.5932 
  28   1.0000      -7.959569      -216.5909 
  29   1.0000      -4.566323      -124.2560 
  30   1.0000      -3.178820       -86.5001 
  31   1.0000      -3.178442       -86.4898 
  32   1.0000      -3.178036       -86.4788 
  33   1.0000      -1.364384       -37.1268 
  34   1.0000      -1.195741       -32.5378 
  35   1.0000      -1.088556       -29.6211 
  36   1.0000      -1.044180       -28.4136 
  37   1.0000      -1.042393       -28.3650 
  38   1.0000      -1.037061       -28.2199 
  39   1.0000      -1.033890       -28.1336 
  40   1.0000      -1.017732       -27.6939 
  41   1.0000      -0.968451       -26.3529 
  42   1.0000      -0.934474       -25.4283 
  43   1.0000      -0.906348       -24.6630 
  44   1.0000      -0.895975       -24.3807 
  45   1.0000      -0.895811       -24.3763 
  46   1.0000      -0.888216       -24.1696 
  47   1.0000      -0.887428       -24.1481 
  48   1.0000      -0.795741       -21.6532 
  49   1.0000      -0.763882       -20.7863 
  50   1.0000      -0.710956       -19.3461 
  51   1.0000      -0.692224       -18.8364 
  52   1.0000      -0.678022       -18.4499 
  53   1.0000      -0.644248       -17.5309 
  54   1.0000      -0.639442       -17.4001 
  55   1.0000      -0.627717       -17.0811 
  56   1.0000      -0.606325       -16.4989 
  57   1.0000      -0.598476       -16.2853 
  58   1.0000      -0.593908       -16.1611 
  59   1.0000      -0.585425       -15.9302 
  60   1.0000      -0.576228       -15.6800 
  61   1.0000      -0.556773       -15.1506 
  62   1.0000      -0.556416       -15.1409 
  63   1.0000      -0.539980       -14.6936 
  64   1.0000      -0.529874       -14.4186 
  65   1.0000      -0.525863       -14.3095 
  66   1.0000      -0.504552       -13.7296 
  67   1.0000      -0.466544       -12.6953 
  68   1.0000      -0.459230       -12.4963 
  69   1.0000      -0.445109       -12.1120 
  70   1.0000      -0.426414       -11.6033 
  71   1.0000      -0.421450       -11.4682 
  72   1.0000      -0.419425       -11.4131 
  73   1.0000      -0.411304       -11.1921 
  74   1.0000      -0.410192       -11.1619 
  75   1.0000      -0.407740       -11.0952 
  76   1.0000      -0.406853       -11.0710 
  77   0.0000       0.003712         0.1010 
  78   0.0000       0.006402         0.1742 
  79   0.0000       0.018886         0.5139 
  80   0.0000       0.019424         0.5286 
  81   0.0000       0.030120         0.8196 
  82   0.0000       0.037148         1.0109 
  83   0.0000       0.038556         1.0492 
  84   0.0000       0.044132         1.2009 
  85   0.0000       0.045369         1.2345 
  86   0.0000       0.047375         1.2891 
  87   0.0000       0.056797         1.5455 
  88   0.0000       0.058989         1.6052 
  89   0.0000       0.061492         1.6733 
  90   0.0000       0.065129         1.7723 
  91   0.0000       0.066019         1.7965 
  92   0.0000       0.070253         1.9117 
  93   0.0000       0.073857         2.0098 
  94   0.0000       0.076725         2.0878 
  95   0.0000       0.087783         2.3887 
  96   0.0000       0.089397         2.4326 
  97   0.0000       0.093926         2.5559 
  98   0.0000       0.095041         2.5862 
  99   0.0000       0.098397         2.6775 
 100   0.0000       0.099231         2.7002 
 101   0.0000       0.109974         2.9925 
 102   0.0000       0.113292         3.0828 
 103   0.0000       0.119522         3.2524 
 104   0.0000       0.121498         3.3061 
 105   0.0000       0.125698         3.4204 
 106   0.0000       0.127195         3.4612 
 107   0.0000       0.130423         3.5490 
 108   0.0000       0.132410         3.6031 
 109   0.0000       0.133419         3.6305 
 110   0.0000       0.138446         3.7673 
 111   0.0000       0.139499         3.7960 
 112   0.0000       0.143153         3.8954 
 113   0.0000       0.146498         3.9864 
 114   0.0000       0.151349         4.1184 
 115   0.0000       0.155145         4.2217 
 116   0.0000       0.156990         4.2719 
 117   0.0000       0.164768         4.4836 
 118   0.0000       0.166237         4.5235 
 119   0.0000       0.167322         4.5531 
 120   0.0000       0.169268         4.6060 
 121   0.0000       0.171456         4.6656 
 122   0.0000       0.173477         4.7205 
 123   0.0000       0.177074         4.8184 
 124   0.0000       0.181756         4.9458 
 125   0.0000       0.188633         5.1330 
 126   0.0000       0.189138         5.1467 
 127   0.0000       0.195739         5.3263 
 128   0.0000       0.198531         5.4023 
 129   0.0000       0.201991         5.4964 
 130   0.0000       0.203661         5.5419 
 131   0.0000       0.207999         5.6599 
 132   0.0000       0.208751         5.6804 
 133   0.0000       0.213430         5.8077 
 134   0.0000       0.217026         5.9056 
 135   0.0000       0.222570         6.0564 
 136   0.0000       0.224904         6.1199 
 137   0.0000       0.227061         6.1786 
 138   0.0000       0.229743         6.2516 
 139   0.0000       0.231562         6.3011 
 140   0.0000       0.233082         6.3425 
 141   0.0000       0.240764         6.5515 
 142   0.0000       0.242679         6.6036 
 143   0.0000       0.245784         6.6881 
 144   0.0000       0.249015         6.7761 
 145   0.0000       0.251912         6.8549 
 146   0.0000       0.252607         6.8738 
 147   0.0000       0.258730         7.0404 
 148   0.0000       0.261049         7.1035 
 149   0.0000       0.265249         7.2178 
 150   0.0000       0.270093         7.3496 
 151   0.0000       0.273881         7.4527 
 152   0.0000       0.275690         7.5019 
 153   0.0000       0.280497         7.6327 
 154   0.0000       0.282257         7.6806 
 155   0.0000       0.290198         7.8967 
 156   0.0000       0.291888         7.9427 
 157   0.0000       0.294093         8.0027 
 158   0.0000       0.301217         8.1965 
 159   0.0000       0.303386         8.2555 
 160   0.0000       0.306576         8.3424 
 161   0.0000       0.314885         8.5684 
 162   0.0000       0.319659         8.6984 
 163   0.0000       0.322503         8.7758 
 164   0.0000       0.326064         8.8727 
 165   0.0000       0.329773         8.9736 
 166   0.0000       0.333804         9.0833 
 167   0.0000       0.336402         9.1540 
 168   0.0000       0.341212         9.2849 
 169   0.0000       0.343705         9.3527 
 170   0.0000       0.345213         9.3937 
 171   0.0000       0.352906         9.6030 
 172   0.0000       0.355685         9.6787 
 173   0.0000       0.360062         9.7978 
 174   0.0000       0.360957         9.8221 
 175   0.0000       0.364909         9.9297 
 176   0.0000       0.369122        10.0443 
 177   0.0000       0.371213        10.1012 
 178   0.0000       0.376659        10.2494 
 179   0.0000       0.379113        10.3162 
 180   0.0000       0.383049        10.4233 
 181   0.0000       0.385698        10.4954 
 182   0.0000       0.386502        10.5173 
 183   0.0000       0.389604        10.6017 
 184   0.0000       0.392588        10.6829 
 185   0.0000       0.395011        10.7488 
 186   0.0000       0.397852        10.8261 
 187   0.0000       0.399969        10.8837 
 188   0.0000       0.404860        11.0168 
 189   0.0000       0.412157        11.2154 
 190   0.0000       0.416239        11.3264 
 191   0.0000       0.417922        11.3722 
 192   0.0000       0.423721        11.5300 
 193   0.0000       0.425031        11.5657 
 194   0.0000       0.429295        11.6817 
 195   0.0000       0.431694        11.7470 
 196   0.0000       0.436830        11.8868 
 197   0.0000       0.439691        11.9646 
 198   0.0000       0.442558        12.0426 
 199   0.0000       0.449756        12.2385 
 200   0.0000       0.450748        12.2655 
 201   0.0000       0.455308        12.3896 
 202   0.0000       0.456155        12.4126 
 203   0.0000       0.461824        12.5669 
 204   0.0000       0.467757        12.7283 
 205   0.0000       0.469648        12.7798 
 206   0.0000       0.471148        12.8206 
 207   0.0000       0.475775        12.9465 
 208   0.0000       0.481957        13.1147 
 209   0.0000       0.484512        13.1842 
 210   0.0000       0.485095        13.2001 
 211   0.0000       0.489166        13.3109 
 212   0.0000       0.491273        13.3682 
 213   0.0000       0.492139        13.3918 
 214   0.0000       0.494622        13.4594 
 215   0.0000       0.496016        13.4973 
 216   0.0000       0.498332        13.5603 
 217   0.0000       0.502529        13.6745 
 218   0.0000       0.505004        13.7419 
 219   0.0000       0.511053        13.9065 
 220   0.0000       0.516268        14.0484 
 221   0.0000       0.518066        14.0973 
 222   0.0000       0.521469        14.1899 
 223   0.0000       0.524040        14.2599 
 224   0.0000       0.528320        14.3763 
 225   0.0000       0.532851        14.4996 
 226   0.0000       0.538279        14.6473 
 227   0.0000       0.544410        14.8141 
 228   0.0000       0.544739        14.8231 
 229   0.0000       0.549955        14.9650 
 230   0.0000       0.551715        15.0129 
 231   0.0000       0.557900        15.1812 
 232   0.0000       0.559567        15.2266 
 233   0.0000       0.562313        15.3013 
 234   0.0000       0.565731        15.3943 
 235   0.0000       0.572069        15.5668 
 236   0.0000       0.573082        15.5943 
 237   0.0000       0.575272        15.6540 
 238   0.0000       0.577502        15.7146 
 239   0.0000       0.583941        15.8898 
 240   0.0000       0.590546        16.0696 
 241   0.0000       0.591896        16.1063 
 242   0.0000       0.596597        16.2342 
 243   0.0000       0.597849        16.2683 
 244   0.0000       0.603871        16.4322 
 245   0.0000       0.608280        16.5522 
 246   0.0000       0.613700        16.6996 
 247   0.0000       0.615117        16.7382 
 248   0.0000       0.617718        16.8090 
 249   0.0000       0.623659        16.9706 
 250   0.0000       0.625723        17.0268 
 251   0.0000       0.627652        17.0793 
 252   0.0000       0.634595        17.2682 
 253   0.0000       0.639361        17.3979 
 254   0.0000       0.640167        17.4198 
 255   0.0000       0.646399        17.5894 
 256   0.0000       0.648359        17.6428 
 257   0.0000       0.650089        17.6898 
 258   0.0000       0.656954        17.8766 
 259   0.0000       0.659901        17.9568 
 260   0.0000       0.666912        18.1476 
 261   0.0000       0.667837        18.1728 
 262   0.0000       0.676902        18.4194 
 263   0.0000       0.680275        18.5112 
 264   0.0000       0.683166        18.5899 
 265   0.0000       0.691096        18.8057 
 266   0.0000       0.693088        18.8599 
 267   0.0000       0.694658        18.9026 
 268   0.0000       0.699546        19.0356 
 269   0.0000       0.702862        19.1259 
 270   0.0000       0.707820        19.2608 
 271   0.0000       0.710304        19.3284 
 272   0.0000       0.713476        19.4147 
 273   0.0000       0.721915        19.6443 
 274   0.0000       0.725975        19.7548 
 275   0.0000       0.732817        19.9410 
 276   0.0000       0.735478        20.0134 
 277   0.0000       0.740990        20.1634 
 278   0.0000       0.744303        20.2535 
 279   0.0000       0.746764        20.3205 
 280   0.0000       0.755181        20.5495 
 281   0.0000       0.757464        20.6116 
 282   0.0000       0.763729        20.7821 
 283   0.0000       0.766919        20.8689 
 284   0.0000       0.780488        21.2382 
 285   0.0000       0.786249        21.3949 
 286   0.0000       0.790128        21.5005 
 287   0.0000       0.796080        21.6624 
 288   0.0000       0.799780        21.7631 
 289   0.0000       0.801501        21.8100 
 290   0.0000       0.810108        22.0442 
 291   0.0000       0.816368        22.2145 
 292   0.0000       0.821024        22.3412 
 293   0.0000       0.823133        22.3986 
 294   0.0000       0.833618        22.6839 
 295   0.0000       0.838447        22.8153 
 296   0.0000       0.841980        22.9114 
 297   0.0000       0.848299        23.0834 
 298   0.0000       0.852365        23.1940 
 299   0.0000       0.855520        23.2799 
 300   0.0000       0.862241        23.4628 
 301   0.0000       0.864419        23.5220 
 302   0.0000       0.869136        23.6504 
 303   0.0000       0.879187        23.9239 
 304   0.0000       0.881879        23.9971 
 305   0.0000       0.888134        24.1674 
 306   0.0000       0.892882        24.2966 
 307   0.0000       0.894392        24.3376 
 308   0.0000       0.898871        24.4595 
 309   0.0000       0.904652        24.6168 
 310   0.0000       0.905485        24.6395 
 311   0.0000       0.912212        24.8225 
 312   0.0000       0.917751        24.9733 
 313   0.0000       0.921584        25.0776 
 314   0.0000       0.925989        25.1974 
 315   0.0000       0.929771        25.3004 
 316   0.0000       0.931751        25.3542 
 317   0.0000       0.935721        25.4623 
 318   0.0000       0.942423        25.6446 
 319   0.0000       0.944293        25.6955 
 320   0.0000       0.946936        25.7674 
 321   0.0000       0.952929        25.9305 
 322   0.0000       0.957358        26.0510 
 323   0.0000       0.960564        26.1383 
 324   0.0000       0.961744        26.1704 
 325   0.0000       0.967046        26.3146 
 326   0.0000       0.969685        26.3865 
 327   0.0000       0.974803        26.5257 
 328   0.0000       0.975733        26.5510 
 329   0.0000       0.982485        26.7348 
 330   0.0000       0.983747        26.7691 
 331   0.0000       0.991349        26.9760 
 332   0.0000       0.993990        27.0478 
 333   0.0000       0.997811        27.1518 
 334   0.0000       1.003777        27.3142 
 335   0.0000       1.004294        27.3282 
 336   0.0000       1.010180        27.4884 
 337   0.0000       1.015153        27.6237 
 338   0.0000       1.018018        27.7017 
 339   0.0000       1.025022        27.8923 
 340   0.0000       1.029080        28.0027 
 341   0.0000       1.030088        28.0301 
 342   0.0000       1.032362        28.0920 
 343   0.0000       1.039357        28.2823 
 344   0.0000       1.042287        28.3621 
 345   0.0000       1.045957        28.4619 
 346   0.0000       1.051411        28.6103 
 347   0.0000       1.052438        28.6383 
 348   0.0000       1.053980        28.6803 
 349   0.0000       1.055949        28.7338 
 350   0.0000       1.057814        28.7846 
 351   0.0000       1.064893        28.9772 
 352   0.0000       1.066423        29.0188 
 353   0.0000       1.071042        29.1445 
 354   0.0000       1.077491        29.3200 
 355   0.0000       1.080809        29.4103 
 356   0.0000       1.082220        29.4487 
 357   0.0000       1.088473        29.6189 
 358   0.0000       1.094709        29.7885 
 359   0.0000       1.095784        29.8178 
 360   0.0000       1.098325        29.8869 
 361   0.0000       1.105234        30.0749 
 362   0.0000       1.110940        30.2302 
 363   0.0000       1.114961        30.3396 
 364   0.0000       1.119811        30.4716 
 365   0.0000       1.121194        30.5092 
 366   0.0000       1.124384        30.5960 
 367   0.0000       1.134666        30.8758 
 368   0.0000       1.136027        30.9129 
 369   0.0000       1.141033        31.0491 
 370   0.0000       1.142923        31.1005 
 371   0.0000       1.147463        31.2241 
 372   0.0000       1.153337        31.3839 
 373   0.0000       1.156180        31.4612 
 374   0.0000       1.157200        31.4890 
 375   0.0000       1.167782        31.7770 
 376   0.0000       1.168301        31.7911 
 377   0.0000       1.172869        31.9154 
 378   0.0000       1.177452        32.0401 
 379   0.0000       1.184526        32.2326 
 380   0.0000       1.186560        32.2880 
 381   0.0000       1.192183        32.4410 
 382   0.0000       1.203096        32.7379 
 383   0.0000       1.207344        32.8535 
 384   0.0000       1.208661        32.8893 
 385   0.0000       1.212931        33.0055 
 386   0.0000       1.218333        33.1525 
 387   0.0000       1.224191        33.3119 
 388   0.0000       1.228409        33.4267 
 389   0.0000       1.232072        33.5264 
 390   0.0000       1.235968        33.6324 
 391   0.0000       1.238433        33.6995 
 392   0.0000       1.243300        33.8319 
 393   0.0000       1.251655        34.0593 
 394   0.0000       1.258556        34.2471 
 395   0.0000       1.260350        34.2959 
 396   0.0000       1.264985        34.4220 
 397   0.0000       1.266382        34.4600 
 398   0.0000       1.276202        34.7272 
 399   0.0000       1.280838        34.8534 
 400   0.0000       1.283353        34.9218 
 401   0.0000       1.288623        35.0652 
 402   0.0000       1.290422        35.1142 
 403   0.0000       1.294929        35.2368 
 404   0.0000       1.302545        35.4440 
 405   0.0000       1.310635        35.6642 
 406   0.0000       1.314773        35.7768 
 407   0.0000       1.319121        35.8951 
 408   0.0000       1.324887        36.0520 
 409   0.0000       1.331414        36.2296 
 410   0.0000       1.338169        36.4134 
 411   0.0000       1.339220        36.4420 
 412   0.0000       1.341088        36.4929 
 413   0.0000       1.347265        36.6609 
 414   0.0000       1.352204        36.7953 
 415   0.0000       1.355152        36.8756 
 416   0.0000       1.364788        37.1378 
 417   0.0000       1.365470        37.1563 
 418   0.0000       1.378359        37.5071 
 419   0.0000       1.381783        37.6002 
 420   0.0000       1.388115        37.7725 
 421   0.0000       1.396429        37.9988 
 422   0.0000       1.404418        38.2162 
 423   0.0000       1.408631        38.3308 
 424   0.0000       1.412841        38.4454 
 425   0.0000       1.419807        38.6349 
 426   0.0000       1.424767        38.7699 
 427   0.0000       1.427161        38.8350 
 428   0.0000       1.432914        38.9916 
 429   0.0000       1.440040        39.1855 
 430   0.0000       1.443257        39.2730 
 431   0.0000       1.447549        39.3898 
 432   0.0000       1.453088        39.5405 
 433   0.0000       1.461861        39.7793 
 434   0.0000       1.469004        39.9736 
 435   0.0000       1.470675        40.0191 
 436   0.0000       1.477013        40.1916 
 437   0.0000       1.478826        40.2409 
 438   0.0000       1.485189        40.4140 
 439   0.0000       1.491115        40.5753 
 440   0.0000       1.495480        40.6941 
 441   0.0000       1.509149        41.0660 
 442   0.0000       1.511962        41.1426 
 443   0.0000       1.512739        41.1637 
 444   0.0000       1.522148        41.4197 
 445   0.0000       1.524097        41.4728 
 446   0.0000       1.528783        41.6003 
 447   0.0000       1.530933        41.6588 
 448   0.0000       1.543707        42.0064 
 449   0.0000       1.545761        42.0623 
 450   0.0000       1.549935        42.1759 
 451   0.0000       1.551953        42.2308 
 452   0.0000       1.554503        42.3002 
 453   0.0000       1.559640        42.4400 
 454   0.0000       1.565363        42.5957 
 455   0.0000       1.574948        42.8565 
 456   0.0000       1.579144        42.9707 
 457   0.0000       1.580541        43.0087 
 458   0.0000       1.585521        43.1442 
 459   0.0000       1.589899        43.2633 
 460   0.0000       1.598794        43.5054 
 461   0.0000       1.602884        43.6167 
 462   0.0000       1.604737        43.6671 
 463   0.0000       1.610600        43.8266 
 464   0.0000       1.618695        44.0469 
 465   0.0000       1.620275        44.0899 
 466   0.0000       1.629361        44.3372 
 467   0.0000       1.637718        44.5646 
 468   0.0000       1.643197        44.7137 
 469   0.0000       1.646799        44.8117 
 470   0.0000       1.647931        44.8425 
 471   0.0000       1.654687        45.0263 
 472   0.0000       1.661457        45.2105 
 473   0.0000       1.669728        45.4356 
 474   0.0000       1.671048        45.4715 
 475   0.0000       1.678573        45.6763 
 476   0.0000       1.683759        45.8174 
 477   0.0000       1.687479        45.9186 
 478   0.0000       1.690874        46.0110 
 479   0.0000       1.694298        46.1042 
 480   0.0000       1.699939        46.2577 
 481   0.0000       1.707197        46.4552 
 482   0.0000       1.718219        46.7551 
 483   0.0000       1.723552        46.9002 
 484   0.0000       1.725712        46.9590 
 485   0.0000       1.735537        47.2264 
 486   0.0000       1.741268        47.3823 
 487   0.0000       1.743685        47.4481 
 488   0.0000       1.748614        47.5822 
 489   0.0000       1.755541        47.7707 
 490   0.0000       1.758786        47.8590 
 491   0.0000       1.762091        47.9489 
 492   0.0000       1.766963        48.0815 
 493   0.0000       1.774603        48.2894 
 494   0.0000       1.779652        48.4268 
 495   0.0000       1.780396        48.4470 
 496   0.0000       1.790811        48.7304 
 497   0.0000       1.797393        48.9096 
 498   0.0000       1.802088        49.0373 
 499   0.0000       1.812653        49.3248 
 500   0.0000       1.815506        49.4024 
 501   0.0000       1.818302        49.4785 
 502   0.0000       1.827604        49.7316 
 503   0.0000       1.830202        49.8023 
 504   0.0000       1.835371        49.9430 
 505   0.0000       1.839350        50.0513 
 506   0.0000       1.843452        50.1629 
 507   0.0000       1.846011        50.2325 
 508   0.0000       1.853642        50.4402 
 509   0.0000       1.858567        50.5742 
 510   0.0000       1.866483        50.7896 
 511   0.0000       1.868983        50.8576 
 512   0.0000       1.875165        51.0258 
 513   0.0000       1.881503        51.1983 
 514   0.0000       1.884555        51.2813 
 515   0.0000       1.887391        51.3585 
 516   0.0000       1.895692        51.5844 
 517   0.0000       1.898186        51.6523 
 518   0.0000       1.907810        51.9141 
 519   0.0000       1.914719        52.1022 
 520   0.0000       1.916036        52.1380 
 521   0.0000       1.923337        52.3367 
 522   0.0000       1.927746        52.4566 
 523   0.0000       1.932931        52.5977 
 524   0.0000       1.933874        52.6234 
 525   0.0000       1.940928        52.8153 
 526   0.0000       1.952721        53.1362 
 527   0.0000       1.956859        53.2488 
 528   0.0000       1.960739        53.3544 
 529   0.0000       1.966026        53.4983 
 530   0.0000       1.972578        53.6766 
 531   0.0000       1.977095        53.7995 
 532   0.0000       1.981036        53.9067 
 533   0.0000       1.981538        53.9204 
 534   0.0000       1.992591        54.2212 
 535   0.0000       1.994809        54.2815 
 536   0.0000       1.999468        54.4083 
 537   0.0000       2.005736        54.5789 
 538   0.0000       2.012980        54.7760 
 539   0.0000       2.018838        54.9354 
 540   0.0000       2.027504        55.1712 
 541   0.0000       2.031279        55.2739 
 542   0.0000       2.043972        55.6193 
 543   0.0000       2.047490        55.7150 
 544   0.0000       2.053877        55.8888 
 545   0.0000       2.067726        56.2657 
 546   0.0000       2.075359        56.4734 
 547   0.0000       2.083931        56.7066 
 548   0.0000       2.088531        56.8318 
 549   0.0000       2.092127        56.9297 
 550   0.0000       2.107883        57.3584 
 551   0.0000       2.113534        57.5122 
 552   0.0000       2.116550        57.5943 
 553   0.0000       2.117340        57.6157 
 554   0.0000       2.122457        57.7550 
 555   0.0000       2.126975        57.8779 
 556   0.0000       2.132474        58.0276 
 557   0.0000       2.138498        58.1915 
 558   0.0000       2.152350        58.5684 
 559   0.0000       2.164579        58.9012 
 560   0.0000       2.166172        58.9445 
 561   0.0000       2.170240        59.0552 
 562   0.0000       2.176472        59.2248 
 563   0.0000       2.182737        59.3953 
 564   0.0000       2.188796        59.5602 
 565   0.0000       2.202120        59.9227 
 566   0.0000       2.209227        60.1161 
 567   0.0000       2.212941        60.2172 
 568   0.0000       2.222884        60.4877 
 569   0.0000       2.230045        60.6826 
 570   0.0000       2.237384        60.8823 
 571   0.0000       2.242431        61.0196 
 572   0.0000       2.247918        61.1690 
 573   0.0000       2.251145        61.2568 
 574   0.0000       2.260981        61.5244 
 575   0.0000       2.268438        61.7273 
 576   0.0000       2.270024        61.7705 
 577   0.0000       2.281731        62.0891 
 578   0.0000       2.298564        62.5471 
 579   0.0000       2.304317        62.7037 
 580   0.0000       2.310354        62.8679 
 581   0.0000       2.321787        63.1790 
 582   0.0000       2.334483        63.5245 
 583   0.0000       2.336849        63.5889 
 584   0.0000       2.345686        63.8294 
 585   0.0000       2.351378        63.9842 
 586   0.0000       2.354440        64.0676 
 587   0.0000       2.359139        64.1954 
 588   0.0000       2.362126        64.2767 
 589   0.0000       2.375484        64.6402 
 590   0.0000       2.385859        64.9225 
 591   0.0000       2.389410        65.0192 
 592   0.0000       2.398167        65.2574 
 593   0.0000       2.401631        65.3517 
 594   0.0000       2.402327        65.3706 
 595   0.0000       2.405338        65.4526 
 596   0.0000       2.424950        65.9863 
 597   0.0000       2.433783        66.2266 
 598   0.0000       2.441068        66.4248 
 599   0.0000       2.445956        66.5578 
 600   0.0000       2.461755        66.9878 
 601   0.0000       2.468873        67.1815 
 602   0.0000       2.474361        67.3308 
 603   0.0000       2.479806        67.4790 
 604   0.0000       2.491177        67.7884 
 605   0.0000       2.508330        68.2551 
 606   0.0000       2.520094        68.5752 
 607   0.0000       2.522663        68.6451 
 608   0.0000       2.538492        69.0759 
 609   0.0000       2.545188        69.2581 
 610   0.0000       2.554588        69.5139 
 611   0.0000       2.565859        69.8206 
 612   0.0000       2.569142        69.9099 
 613   0.0000       2.589718        70.4698 
 614   0.0000       2.603739        70.8513 
 615   0.0000       2.620232        71.3001 
 616   0.0000       2.626234        71.4635 
 617   0.0000       2.637364        71.7663 
 618   0.0000       2.653451        72.2041 
 619   0.0000       2.655267        72.2535 
 620   0.0000       2.666164        72.5500 
 621   0.0000       2.674671        72.7815 
 622   0.0000       2.678563        72.8874 
 623   0.0000       2.694431        73.3192 
 624   0.0000       2.704175        73.5843 
 625   0.0000       2.707783        73.6825 
 626   0.0000       2.716207        73.9117 
 627   0.0000       2.727253        74.2123 
 628   0.0000       2.734541        74.4106 
 629   0.0000       2.746201        74.7279 
 630   0.0000       2.762103        75.1606 
 631   0.0000       2.764585        75.2282 
 632   0.0000       2.767816        75.3161 
 633   0.0000       2.781336        75.6840 
 634   0.0000       2.800375        76.2021 
 635   0.0000       2.807271        76.3897 
 636   0.0000       2.816593        76.6434 
 637   0.0000       2.825413        76.8834 
 638   0.0000       2.842544        77.3496 
 639   0.0000       2.862826        77.9014 
 640   0.0000       2.867587        78.0310 
 641   0.0000       2.879645        78.3591 
 642   0.0000       2.894300        78.7579 
 643   0.0000       2.909930        79.1832 
 644   0.0000       2.915553        79.3362 
 645   0.0000       2.927202        79.6532 
 646   0.0000       2.936663        79.9107 
 647   0.0000       2.943609        80.0997 
 648   0.0000       2.958017        80.4917 
 649   0.0000       2.976059        80.9827 
 650   0.0000       2.994139        81.4747 
 651   0.0000       3.006517        81.8115 
 652   0.0000       3.045675        82.8770 
 653   0.0000       3.059448        83.2518 
 654   0.0000       3.072363        83.6033 
 655   0.0000       3.081810        83.8603 
 656   0.0000       3.096838        84.2692 
 657   0.0000       3.111325        84.6635 
 658   0.0000       3.125892        85.0599 
 659   0.0000       3.142642        85.5156 
 660   0.0000       3.152289        85.7781 
 661   0.0000       3.168295        86.2137 
 662   0.0000       3.179220        86.5110 
 663   0.0000       3.189259        86.7841 
 664   0.0000       3.196489        86.9809 
 665   0.0000       3.204888        87.2094 
 666   0.0000       3.219036        87.5944 
 667   0.0000       3.229886        87.8897 
 668   0.0000       3.232551        87.9622 
 669   0.0000       3.247789        88.3768 
 670   0.0000       3.255441        88.5850 
 671   0.0000       3.262819        88.7858 
 672   0.0000       3.267886        88.9237 
 673   0.0000       3.281885        89.3046 
 674   0.0000       3.295026        89.6622 
 675   0.0000       3.310951        90.0955 
 676   0.0000       3.313341        90.1606 
 677   0.0000       3.319235        90.3210 
 678   0.0000       3.330407        90.6250 
 679   0.0000       3.340067        90.8878 
 680   0.0000       3.347000        91.0765 
 681   0.0000       3.356522        91.3356 
 682   0.0000       3.361348        91.4669 
 683   0.0000       3.363587        91.5279 
 684   0.0000       3.374840        91.8341 
 685   0.0000       3.388178        92.1970 
 686   0.0000       3.397022        92.4377 
 687   0.0000       3.406005        92.6821 
 688   0.0000       3.419688        93.0544 
 689   0.0000       3.438414        93.5640 
 690   0.0000       3.451320        93.9152 
 691   0.0000       3.454316        93.9967 
 692   0.0000       3.462639        94.2232 
 693   0.0000       3.466670        94.3329 
 694   0.0000       3.472029        94.4787 
 695   0.0000       3.483788        94.7987 
 696   0.0000       3.491828        95.0175 
 697   0.0000       3.500443        95.2519 
 698   0.0000       3.509972        95.5112 
 699   0.0000       3.514275        95.6283 
 700   0.0000       3.530898        96.0806 
 701   0.0000       3.537754        96.2672 
 702   0.0000       3.547192        96.5240 
 703   0.0000       3.554680        96.7278 
 704   0.0000       3.556165        96.7682 
 705   0.0000       3.571251        97.1787 
 706   0.0000       3.581386        97.4545 
 707   0.0000       3.589476        97.6746 
 708   0.0000       3.595368        97.8349 
 709   0.0000       3.598296        97.9146 
 710   0.0000       3.607641        98.1689 
 711   0.0000       3.622037        98.5606 
 712   0.0000       3.627208        98.7013 
 713   0.0000       3.642987        99.1307 
 714   0.0000       3.645339        99.1947 
 715   0.0000       3.660872        99.6174 
 716   0.0000       3.666252        99.7638 
 717   0.0000       3.671239        99.8995 
 718   0.0000       3.676571       100.0446 
 719   0.0000       3.687327       100.3373 
 720   0.0000       3.699138       100.6586 
 721   0.0000       3.709067       100.9288 
 722   0.0000       3.714115       101.0662 
 723   0.0000       3.720566       101.2417 
 724   0.0000       3.730867       101.5221 
 725   0.0000       3.732727       101.5727 
 726   0.0000       3.740909       101.7953 
 727   0.0000       3.756400       102.2168 
 728   0.0000       3.763656       102.4143 
 729   0.0000       3.767559       102.5205 
 730   0.0000       3.772671       102.6596 
 731   0.0000       3.776813       102.7723 
 732   0.0000       3.791118       103.1616 
 733   0.0000       3.793859       103.2361 
 734   0.0000       3.796607       103.3109 
 735   0.0000       3.810905       103.7000 
 736   0.0000       3.821411       103.9859 
 737   0.0000       3.826424       104.1223 
 738   0.0000       3.830939       104.2451 
 739   0.0000       3.842752       104.5666 
 740   0.0000       3.848231       104.7157 
 741   0.0000       3.852184       104.8233 
 742   0.0000       3.855363       104.9098 
 743   0.0000       3.866003       105.1993 
 744   0.0000       3.877661       105.5165 
 745   0.0000       3.881465       105.6200 
 746   0.0000       3.888023       105.7985 
 747   0.0000       3.897858       106.0661 
 748   0.0000       3.905619       106.2773 
 749   0.0000       3.910441       106.4085 
 750   0.0000       3.913967       106.5045 
 751   0.0000       3.921635       106.7131 
 752   0.0000       3.930142       106.9446 
 753   0.0000       3.934690       107.0684 
 754   0.0000       3.935902       107.1013 
 755   0.0000       3.938348       107.1679 
 756   0.0000       3.950302       107.4932 
 757   0.0000       3.963098       107.8414 
 758   0.0000       3.966538       107.9350 
 759   0.0000       3.975349       108.1747 
 760   0.0000       3.982015       108.3561 
 761   0.0000       3.988893       108.5433 
 762   0.0000       3.994867       108.7058 
 763   0.0000       4.007673       109.0543 
 764   0.0000       4.010404       109.1287 
 765   0.0000       4.015678       109.2722 
 766   0.0000       4.020091       109.3922 
 767   0.0000       4.031269       109.6964 
 768   0.0000       4.037466       109.8650 
 769   0.0000       4.050612       110.2228 
 770   0.0000       4.057837       110.4193 
 771   0.0000       4.063969       110.5862 
 772   0.0000       4.069711       110.7425 
 773   0.0000       4.076371       110.9237 
 774   0.0000       4.085661       111.1765 
 775   0.0000       4.087435       111.2248 
 776   0.0000       4.099308       111.5478 
 777   0.0000       4.107402       111.7681 
 778   0.0000       4.113963       111.9466 
 779   0.0000       4.125242       112.2535 
 780   0.0000       4.133291       112.4726 
 781   0.0000       4.136874       112.5701 
 782   0.0000       4.142528       112.7239 
 783   0.0000       4.150071       112.9292 
 784   0.0000       4.160662       113.2174 
 785   0.0000       4.180829       113.7661 
 786   0.0000       4.183004       113.8253 
 787   0.0000       4.186305       113.9152 
 788   0.0000       4.198394       114.2441 
 789   0.0000       4.211301       114.5953 
 790   0.0000       4.225037       114.9691 
 791   0.0000       4.234163       115.2174 
 792   0.0000       4.242568       115.4461 
 793   0.0000       4.247391       115.5774 
 794   0.0000       4.254083       115.7595 
 795   0.0000       4.267656       116.1288 
 796   0.0000       4.268221       116.1442 
 797   0.0000       4.274747       116.3218 
 798   0.0000       4.280190       116.4699 
 799   0.0000       4.290373       116.7470 
 800   0.0000       4.296988       116.9270 
 801   0.0000       4.303461       117.1031 
 802   0.0000       4.319775       117.5471 
 803   0.0000       4.325355       117.6989 
 804   0.0000       4.340359       118.1072 
 805   0.0000       4.350291       118.3774 
 806   0.0000       4.354135       118.4821 
 807   0.0000       4.372949       118.9940 
 808   0.0000       4.374741       119.0427 
 809   0.0000       4.387300       119.3845 
 810   0.0000       4.392254       119.5193 
 811   0.0000       4.407433       119.9324 
 812   0.0000       4.411358       120.0391 
 813   0.0000       4.426875       120.4614 
 814   0.0000       4.436398       120.7205 
 815   0.0000       4.441444       120.8578 
 816   0.0000       4.444966       120.9537 
 817   0.0000       4.458621       121.3252 
 818   0.0000       4.466115       121.5292 
 819   0.0000       4.475092       121.7735 
 820   0.0000       4.490851       122.2023 
 821   0.0000       4.495293       122.3231 
 822   0.0000       4.505481       122.6004 
 823   0.0000       4.512059       122.7794 
 824   0.0000       4.513681       122.8235 
 825   0.0000       4.520204       123.0010 
 826   0.0000       4.537682       123.4766 
 827   0.0000       4.548663       123.7754 
 828   0.0000       4.556021       123.9756 
 829   0.0000       4.566256       124.2542 
 830   0.0000       4.581715       124.6748 
 831   0.0000       4.587351       124.8282 
 832   0.0000       4.599635       125.1624 
 833   0.0000       4.613466       125.5388 
 834   0.0000       4.624265       125.8326 
 835   0.0000       4.636729       126.1718 
 836   0.0000       4.654375       126.6520 
 837   0.0000       4.664717       126.9334 
 838   0.0000       4.677127       127.2711 
 839   0.0000       4.688187       127.5721 
 840   0.0000       4.692610       127.6924 
 841   0.0000       4.701590       127.9368 
 842   0.0000       4.708995       128.1383 
 843   0.0000       4.713738       128.2673 
 844   0.0000       4.723261       128.5265 
 845   0.0000       4.741700       129.0282 
 846   0.0000       4.766560       129.7047 
 847   0.0000       4.769851       129.7943 
 848   0.0000       4.775569       129.9498 
 849   0.0000       4.797909       130.5577 
 850   0.0000       4.801242       130.6484 
 851   0.0000       4.814204       131.0012 
 852   0.0000       4.836474       131.6071 
 853   0.0000       4.844327       131.8209 
 854   0.0000       4.849082       131.9502 
 855   0.0000       4.857425       132.1773 
 856   0.0000       4.867308       132.4462 
 857   0.0000       4.868766       132.4859 
 858   0.0000       4.893751       133.1657 
 859   0.0000       4.905073       133.4738 
 860   0.0000       4.912845       133.6853 
 861   0.0000       4.923907       133.9863 
 862   0.0000       4.937485       134.3558 
 863   0.0000       4.949974       134.6956 
 864   0.0000       4.952750       134.7712 
 865   0.0000       4.970827       135.2631 
 866   0.0000       4.984396       135.6323 
 867   0.0000       4.990091       135.7873 
 868   0.0000       4.999086       136.0320 
 869   0.0000       5.015514       136.4791 
 870   0.0000       5.024251       136.7168 
 871   0.0000       5.029230       136.8523 
 872   0.0000       5.036596       137.0527 
 873   0.0000       5.048981       137.3898 
 874   0.0000       5.062527       137.7584 
 875   0.0000       5.087338       138.4335 
 876   0.0000       5.097429       138.7081 
 877   0.0000       5.109627       139.0400 
 878   0.0000       5.120068       139.3241 
 879   0.0000       5.125118       139.4616 
 880   0.0000       5.154294       140.2555 
 881   0.0000       5.160157       140.4150 
 882   0.0000       5.172731       140.7572 
 883   0.0000       5.179230       140.9340 
 884   0.0000       5.186767       141.1391 
 885   0.0000       5.218003       141.9891 
 886   0.0000       5.229799       142.3101 
 887   0.0000       5.237295       142.5140 
 888   0.0000       5.250517       142.8738 
 889   0.0000       5.260476       143.1448 
 890   0.0000       5.267816       143.3446 
 891   0.0000       5.275733       143.5600 
 892   0.0000       5.289343       143.9303 
 893   0.0000       5.309146       144.4692 
 894   0.0000       5.315425       144.6401 
 895   0.0000       5.334155       145.1497 
 896   0.0000       5.353565       145.6779 
 897   0.0000       5.355533       145.7315 
 898   0.0000       5.371098       146.1550 
 899   0.0000       5.386905       146.5851 
 900   0.0000       5.397132       146.8634 
 901   0.0000       5.404472       147.0632 
 902   0.0000       5.415064       147.3514 
 903   0.0000       5.424911       147.6193 
 904   0.0000       5.441635       148.0744 
 905   0.0000       5.452126       148.3599 
 906   0.0000       5.456921       148.4904 
 907   0.0000       5.458459       148.5322 
 908   0.0000       5.483581       149.2158 
 909   0.0000       5.497319       149.5897 
 910   0.0000       5.504871       149.7951 
 911   0.0000       5.515645       150.0883 
 912   0.0000       5.526022       150.3707 
 913   0.0000       5.551946       151.0761 
 914   0.0000       5.562883       151.3737 
 915   0.0000       5.571189       151.5997 
 916   0.0000       5.586140       152.0066 
 917   0.0000       5.594759       152.2411 
 918   0.0000       5.612213       152.7161 
 919   0.0000       5.616976       152.8457 
 920   0.0000       5.625565       153.0794 
 921   0.0000       5.640221       153.4782 
 922   0.0000       5.649967       153.7434 
 923   0.0000       5.665990       154.1794 
 924   0.0000       5.671673       154.3341 
 925   0.0000       5.676871       154.4755 
 926   0.0000       5.706608       155.2847 
 927   0.0000       5.715620       155.5299 
 928   0.0000       5.721960       155.7025 
 929   0.0000       5.727463       155.8522 
 930   0.0000       5.736472       156.0973 
 931   0.0000       5.758161       156.6875 
 932   0.0000       5.760940       156.7631 
 933   0.0000       5.778203       157.2329 
 934   0.0000       5.787624       157.4893 
 935   0.0000       5.799618       157.8156 
 936   0.0000       5.812398       158.1634 
 937   0.0000       5.826976       158.5601 
 938   0.0000       5.828460       158.6005 
 939   0.0000       5.839859       158.9106 
 940   0.0000       5.867388       159.6598 
 941   0.0000       5.891679       160.3207 
 942   0.0000       5.900095       160.5497 
 943   0.0000       5.908507       160.7787 
 944   0.0000       5.925214       161.2333 
 945   0.0000       5.979243       162.7035 
 946   0.0000       6.058600       164.8629 
 947   0.0000       6.090517       165.7314 
 948   0.0000       6.096441       165.8926 
 949   0.0000       6.115507       166.4114 
 950   0.0000       6.139061       167.0523 
 951   0.0000       6.155724       167.5058 
 952   0.0000       6.198991       168.6831 
 953   0.0000       6.204248       168.8262 
 954   0.0000       6.209364       168.9654 
 955   0.0000       6.222041       169.3104 
 956   0.0000       6.233629       169.6257 
 957   0.0000       6.257120       170.2649 
 958   0.0000       6.279430       170.8720 
 959   0.0000       6.306558       171.6102 
 960   0.0000       6.325344       172.1214 
 961   0.0000       6.334736       172.3769 
 962   0.0000       6.355109       172.9313 
 963   0.0000       6.369623       173.3263 
 964   0.0000       6.406172       174.3208 
 965   0.0000       6.412692       174.4982 
 966   0.0000       6.432608       175.0402 
 967   0.0000       6.461248       175.8195 
 968   0.0000       6.473878       176.1632 
 969   0.0000       6.492123       176.6597 
 970   0.0000       6.648996       180.9284 
 971   0.0000       6.737640       183.3405 
 972   0.0000       6.828522       185.8135 
 973   0.0000       6.861294       186.7053 
 974   0.0000       6.889277       187.4668 
 975   0.0000       6.926156       188.4703 
 976   0.0000       6.931635       188.6194 
 977   0.0000       6.954126       189.2314 
 978   0.0000       6.978451       189.8933 
 979   0.0000       6.988462       190.1657 
 980   0.0000       6.994011       190.3167 
 981   0.0000       7.043235       191.6562 
 982   0.0000       7.085901       192.8172 
 983   0.0000       7.103668       193.3006 
 984   0.0000       7.140915       194.3142 
 985   0.0000       7.197881       195.8643 
 986   0.0000       7.326144       199.3545 
 987   0.0000       7.371363       200.5850 
 988   0.0000       7.480346       203.5506 
 989   0.0000       7.556578       205.6250 
 990   0.0000       7.576004       206.1535 
 991   0.0000       7.687302       209.1821 
 992   0.0000       7.716106       209.9659 
 993   0.0000       7.795256       212.1197 
 994   0.0000       7.852226       213.6699 
 995   0.0000       7.863521       213.9773 
 996   0.0000       8.070275       219.6033 
 997   0.0000       8.130685       221.2472 
 998   0.0000       8.401400       228.6137 
 999   0.0000       9.443617       256.9739 
 1000   0.0000       9.459060       257.3941 
 1001   0.0000       9.486748       258.1475 
 1002   0.0000       9.496345       258.4087 
 1003   0.0000       9.501504       258.5491 
 1004   0.0000       9.543910       259.7030 
 1005   0.0000       9.796115       266.5659 
 1006   0.0000      10.110537       275.1217 
 1007   0.0000      10.137987       275.8687 
 1008   0.0000      10.157698       276.4050 
 1009   0.0000      10.222148       278.1588 
 1010   0.0000      10.236893       278.5600 
 1011   0.0000      10.256243       279.0866 
 1012   0.0000      10.423277       283.6318 
 1013   0.0000      10.452863       284.4369 
 1014   0.0000      10.595764       288.3254 
 1015   0.0000      15.957944       434.2377 
 1016   0.0000      17.808537       484.5949 
 1017   0.0000      18.347484       499.2604 
 1018   0.0000      18.516438       503.8579 
 1019   0.0000      18.714990       509.2608 
 1020   0.0000      19.005015       517.1528 
 1021   0.0000      19.121017       520.3093 
 1022   0.0000      19.972401       543.4767 
 1023   0.0000      20.306119       552.5576 
 1024   0.0000      21.890519       595.6713 

                 SPIN DOWN ORBITALS
  NO   OCC          E(Eh)            E(eV) 
   0   1.0000    -261.539409     -7116.8491 
   1   1.0000    -104.772293     -2850.9990 
   2   1.0000    -104.768920     -2850.9073 
   3   1.0000    -104.765573     -2850.8162 
   4   1.0000     -32.048795      -872.0921 
   5   1.0000     -27.526942      -749.0462 
   6   1.0000     -27.526737      -749.0406 
   7   1.0000     -27.526123      -749.0239 
   8   1.0000     -20.531214      -558.6827 
   9   1.0000     -11.403851      -310.3146 
  10   1.0000     -11.352313      -308.9122 
  11   1.0000     -11.294794      -307.3470 
  12   1.0000     -11.289325      -307.1982 
  13   1.0000     -11.278220      -306.8960 
  14   1.0000     -11.257507      -306.3323 
  15   1.0000     -11.242608      -305.9269 
  16   1.0000     -11.233246      -305.6722 
  17   1.0000     -10.498742      -285.6853 
  18   1.0000     -10.495343      -285.5928 
  19   1.0000     -10.492024      -285.5025 
  20   1.0000      -7.964560      -216.7267 
  21   1.0000      -7.964201      -216.7169 
  22   1.0000      -7.964121      -216.7148 
  23   1.0000      -7.961302      -216.6380 
  24   1.0000      -7.960714      -216.6220 
  25   1.0000      -7.960620      -216.6195 
  26   1.0000      -7.958012      -216.5485 
  27   1.0000      -7.957262      -216.5281 
  28   1.0000      -7.957190      -216.5262 
  29   1.0000      -4.124101      -112.2225 
  30   1.0000      -2.646056       -72.0028 
  31   1.0000      -2.645865       -71.9977 
  32   1.0000      -2.645062       -71.9758 
  33   1.0000      -1.348359       -36.6907 
  34   1.0000      -1.194651       -32.5081 
  35   1.0000      -1.085997       -29.5515 
  36   1.0000      -1.042120       -28.3575 
  37   1.0000      -1.029262       -28.0076 
  38   1.0000      -1.018640       -27.7186 
  39   1.0000      -1.016851       -27.6699 
  40   1.0000      -1.013728       -27.5849 
  41   1.0000      -0.967617       -26.3302 
  42   1.0000      -0.933341       -25.3975 
  43   1.0000      -0.800287       -21.7769 
  44   1.0000      -0.771158       -20.9843 
  45   1.0000      -0.711565       -19.3627 
  46   1.0000      -0.691509       -18.8169 
  47   1.0000      -0.678629       -18.4664 
  48   1.0000      -0.646194       -17.5838 
  49   1.0000      -0.639255       -17.3950 
  50   1.0000      -0.626155       -17.0385 
  51   1.0000      -0.606283       -16.4978 
  52   1.0000      -0.598605       -16.2889 
  53   1.0000      -0.592701       -16.1282 
  54   1.0000      -0.585610       -15.9353 
  55   1.0000      -0.574849       -15.6424 
  56   1.0000      -0.556539       -15.1442 
  57   1.0000      -0.555079       -15.1045 
  58   1.0000      -0.539202       -14.6724 
  59   1.0000      -0.525038       -14.2870 
  60   1.0000      -0.523878       -14.2554 
  61   1.0000      -0.497888       -13.5482 
  62   1.0000      -0.466419       -12.6919 
  63   1.0000      -0.461350       -12.5540 
  64   1.0000      -0.451704       -12.2915 
  65   1.0000      -0.433746       -11.8028 
  66   1.0000      -0.432131       -11.7589 
  67   1.0000      -0.428395       -11.6572 
  68   1.0000      -0.426755       -11.6126 
  69   1.0000      -0.407719       -11.0946 
  70   1.0000      -0.396987       -10.8026 
  71   1.0000      -0.394933       -10.7467 
  72   0.0000       0.003661         0.0996 
  73   0.0000       0.006304         0.1716 
  74   0.0000       0.018883         0.5138 
  75   0.0000       0.019411         0.5282 
  76   0.0000       0.030148         0.8204 
  77   0.0000       0.037141         1.0107 
  78   0.0000       0.038551         1.0490 
  79   0.0000       0.044020         1.1978 
  80   0.0000       0.045273         1.2319 
  81   0.0000       0.047435         1.2908 
  82   0.0000       0.056799         1.5456 
  83   0.0000       0.058928         1.6035 
  84   0.0000       0.061460         1.6724 
  85   0.0000       0.065059         1.7703 
  86   0.0000       0.066010         1.7962 
  87   0.0000       0.070248         1.9115 
  88   0.0000       0.073740         2.0066 
  89   0.0000       0.076596         2.0843 
  90   0.0000       0.087648         2.3850 
  91   0.0000       0.089193         2.4271 
  92   0.0000       0.093893         2.5550 
  93   0.0000       0.095017         2.5855 
  94   0.0000       0.098373         2.6769 
  95   0.0000       0.099246         2.7006 
  96   0.0000       0.109723         2.9857 
  97   0.0000       0.113210         3.0806 
  98   0.0000       0.119534         3.2527 
  99   0.0000       0.121376         3.3028 
 100   0.0000       0.125463         3.4140 
 101   0.0000       0.125616         3.4182 
 102   0.0000       0.127982         3.4826 
 103   0.0000       0.129757         3.5309 
 104   0.0000       0.131998         3.5919 
 105   0.0000       0.132200         3.5973 
 106   0.0000       0.133352         3.6287 
 107   0.0000       0.136918         3.7257 
 108   0.0000       0.140261         3.8167 
 109   0.0000       0.140344         3.8190 
 110   0.0000       0.142366         3.8740 
 111   0.0000       0.144225         3.9246 
 112   0.0000       0.149215         4.0603 
 113   0.0000       0.150648         4.0994 
 114   0.0000       0.152741         4.1563 
 115   0.0000       0.156844         4.2679 
 116   0.0000       0.158996         4.3265 
 117   0.0000       0.165338         4.4991 
 118   0.0000       0.166678         4.5355 
 119   0.0000       0.168200         4.5770 
 120   0.0000       0.169764         4.6195 
 121   0.0000       0.173686         4.7262 
 122   0.0000       0.174921         4.7598 
 123   0.0000       0.178625         4.8606 
 124   0.0000       0.184534         5.0214 
 125   0.0000       0.189440         5.1549 
 126   0.0000       0.191564         5.2127 
 127   0.0000       0.197742         5.3808 
 128   0.0000       0.198936         5.4133 
 129   0.0000       0.202345         5.5061 
 130   0.0000       0.206560         5.6208 
 131   0.0000       0.210029         5.7152 
 132   0.0000       0.211028         5.7424 
 133   0.0000       0.216564         5.8930 
 134   0.0000       0.220066         5.9883 
 135   0.0000       0.224555         6.1105 
 136   0.0000       0.227771         6.1980 
 137   0.0000       0.230233         6.2650 
 138   0.0000       0.232187         6.3181 
 139   0.0000       0.233658         6.3582 
 140   0.0000       0.237364         6.4590 
 141   0.0000       0.243813         6.6345 
 142   0.0000       0.245848         6.6899 
 143   0.0000       0.249630         6.7928 
 144   0.0000       0.252004         6.8574 
 145   0.0000       0.252785         6.8786 
 146   0.0000       0.256886         6.9902 
 147   0.0000       0.263022         7.1572 
 148   0.0000       0.263403         7.1676 
 149   0.0000       0.271486         7.3875 
 150   0.0000       0.276109         7.5133 
 151   0.0000       0.277716         7.5570 
 152   0.0000       0.283927         7.7260 
 153   0.0000       0.285305         7.7635 
 154   0.0000       0.290658         7.9092 
 155   0.0000       0.293065         7.9747 
 156   0.0000       0.299712         8.1556 
 157   0.0000       0.301079         8.1928 
 158   0.0000       0.305445         8.3116 
 159   0.0000       0.307860         8.3773 
 160   0.0000       0.309709         8.4276 
 161   0.0000       0.317044         8.6272 
 162   0.0000       0.324130         8.8200 
 163   0.0000       0.327738         8.9182 
 164   0.0000       0.332133         9.0378 
 165   0.0000       0.334471         9.1014 
 166   0.0000       0.335882         9.1398 
 167   0.0000       0.340380         9.2622 
 168   0.0000       0.343775         9.3546 
 169   0.0000       0.346706         9.4343 
 170   0.0000       0.351415         9.5625 
 171   0.0000       0.356228         9.6935 
 172   0.0000       0.358295         9.7497 
 173   0.0000       0.361921         9.8484 
 174   0.0000       0.365101         9.9349 
 175   0.0000       0.370266        10.0755 
 176   0.0000       0.371020        10.0960 
 177   0.0000       0.374705        10.1963 
 178   0.0000       0.381302        10.3757 
 179   0.0000       0.384317        10.4578 
 180   0.0000       0.386423        10.5151 
 181   0.0000       0.390140        10.6163 
 182   0.0000       0.393386        10.7046 
 183   0.0000       0.394093        10.7238 
 184   0.0000       0.398749        10.8505 
 185   0.0000       0.401109        10.9147 
 186   0.0000       0.402791        10.9605 
 187   0.0000       0.404687        11.0121 
 188   0.0000       0.407213        11.0808 
 189   0.0000       0.415787        11.3141 
 190   0.0000       0.419016        11.4020 
 191   0.0000       0.420003        11.4289 
 192   0.0000       0.427815        11.6414 
 193   0.0000       0.429336        11.6828 
 194   0.0000       0.432447        11.7675 
 195   0.0000       0.434376        11.8200 
 196   0.0000       0.439452        11.9581 
 197   0.0000       0.444487        12.0951 
 198   0.0000       0.446992        12.1633 
 199   0.0000       0.451354        12.2820 
 200   0.0000       0.453562        12.3421 
 201   0.0000       0.456280        12.4160 
 202   0.0000       0.464527        12.6404 
 203   0.0000       0.468956        12.7609 
 204   0.0000       0.471316        12.8252 
 205   0.0000       0.472440        12.8558 
 206   0.0000       0.478453        13.0194 
 207   0.0000       0.481118        13.0919 
 208   0.0000       0.483307        13.1515 
 209   0.0000       0.486559        13.2399 
 210   0.0000       0.489394        13.3171 
 211   0.0000       0.492805        13.4099 
 212   0.0000       0.492951        13.4139 
 213   0.0000       0.496666        13.5150 
 214   0.0000       0.498705        13.5705 
 215   0.0000       0.499894        13.6028 
 216   0.0000       0.503319        13.6960 
 217   0.0000       0.506792        13.7905 
 218   0.0000       0.509940        13.8762 
 219   0.0000       0.515377        14.0241 
 220   0.0000       0.517998        14.0955 
 221   0.0000       0.524451        14.2710 
 222   0.0000       0.527802        14.3622 
 223   0.0000       0.529575        14.4105 
 224   0.0000       0.531041        14.4504 
 225   0.0000       0.535230        14.5643 
 226   0.0000       0.541110        14.7244 
 227   0.0000       0.545448        14.8424 
 228   0.0000       0.548710        14.9311 
 229   0.0000       0.552472        15.0335 
 230   0.0000       0.555128        15.1058 
 231   0.0000       0.559678        15.2296 
 232   0.0000       0.560729        15.2582 
 233   0.0000       0.564748        15.3676 
 234   0.0000       0.568312        15.4646 
 235   0.0000       0.573351        15.6017 
 236   0.0000       0.575520        15.6607 
 237   0.0000       0.578349        15.7377 
 238   0.0000       0.579234        15.7618 
 239   0.0000       0.585977        15.9453 
 240   0.0000       0.592859        16.1325 
 241   0.0000       0.593381        16.1467 
 242   0.0000       0.597897        16.2696 
 243   0.0000       0.600694        16.3457 
 244   0.0000       0.608631        16.5617 
 245   0.0000       0.610333        16.6080 
 246   0.0000       0.615065        16.7368 
 247   0.0000       0.616720        16.7818 
 248   0.0000       0.619269        16.8512 
 249   0.0000       0.626510        17.0482 
 250   0.0000       0.627822        17.0839 
 251   0.0000       0.630437        17.1551 
 252   0.0000       0.636542        17.3212 
 253   0.0000       0.642227        17.4759 
 254   0.0000       0.643411        17.5081 
 255   0.0000       0.648610        17.6496 
 256   0.0000       0.649910        17.6850 
 257   0.0000       0.652440        17.7538 
 258   0.0000       0.659452        17.9446 
 259   0.0000       0.663911        18.0659 
 260   0.0000       0.668186        18.1823 
 261   0.0000       0.672263        18.2932 
 262   0.0000       0.678054        18.4508 
 263   0.0000       0.681748        18.5513 
 264   0.0000       0.686644        18.6845 
 265   0.0000       0.694388        18.8953 
 266   0.0000       0.695553        18.9270 
 267   0.0000       0.698167        18.9981 
 268   0.0000       0.703985        19.1564 
 269   0.0000       0.705167        19.1886 
 270   0.0000       0.711032        19.3482 
 271   0.0000       0.713479        19.4148 
 272   0.0000       0.717845        19.5336 
 273   0.0000       0.729487        19.8504 
 274   0.0000       0.730222        19.8703 
 275   0.0000       0.735867        20.0240 
 276   0.0000       0.740809        20.1584 
 277   0.0000       0.744339        20.2545 
 278   0.0000       0.748992        20.3811 
 279   0.0000       0.749869        20.4050 
 280   0.0000       0.758851        20.6494 
 281   0.0000       0.760213        20.6864 
 282   0.0000       0.766857        20.8672 
 283   0.0000       0.773696        21.0533 
 284   0.0000       0.784261        21.3408 
[...]
  | sigma^2 in % of trace(Dij) retained ...   9.10e+00
  | sigma^2 in % of trace(Dip) retained ...   1.71e+01
  | sigma^2 in % of trace(Dpq) retained ...   1.20e-01
  | Av. % of trace(Di) retained         ...  99.998508459707
  | Av. % of trace(Dp) retained         ...  99.999999795422
  | sigma^2 in % of trace(Di) retained  ...   7.61e-07
  | sigma^2 in % of trace(Dp) retained  ...   4.05e-14
 Distributions of % trace(Dij) recovered:
  |       >= 99.9  ...   105 ( 20.4 % of all IJ-pairs)
  |   [80.0, 90.0) ...    35 (  6.8 % of all IJ-pairs)
  |   [90.0, 99.0) ...   281 ( 54.6 % of all IJ-pairs)
  |   [99.0, 99.9) ...    94 ( 18.3 % of all IJ-pairs)
 Distributions of % trace(Dip) recovered:
  |   [70.0, 80.0) ...     2 (  1.7 % of all IP-pairs)
  |   [80.0, 90.0) ...     6 (  5.1 % of all IP-pairs)
  |   [90.0, 99.0) ...    68 ( 57.6 % of all IP-pairs)
  |   [99.0, 99.9) ...    42 ( 35.6 % of all IP-pairs)
 Distributions of % trace(Dpq) recovered:
  |       >= 99.9  ...     5 ( 33.3 % of all PQ-pairs)
  |   [99.0, 99.9) ...    10 ( 66.7 % of all PQ-pairs)
 Distributions of % trace(Di) recovered :
  |       >= 99.9  ...    43 (100.0 % of all I-pairs )
 Distributions of % trace(Dp) recovered :
  |       >= 99.9  ...     5 (100.0 % of all P-pairs )

                       ===========================
                       1130 OF 1723 PAIRS ARE KEPT
                       ===========================

 Initial PAO correlation energy (all pairs)    ...  -2.6900468143 Eh
 Energy constituents in PAO basis (Eh):
  | Vijab(+0) ...  -2.2597732093
  | Viab (-1) ...  -0.1757235592
  | Vab  (-2) ...  -0.0573648717
  | Va   (-1) ...  -0.0000413021
  | Vija (+1) ...  -0.0732852164
  | Vij  (+2) ...  -0.0155042138
  | Via  (+0) ...  -0.1081950651
  | Vi   (+1) ...  -0.0001593767
 Initial PNO correlation energy                ...  -2.6557102729 Eh
 Energy constituents in PNO basis (Eh):
  | Vijab(+0) ...  -2.2412673880 (err=  0.0185058213)
  | Viab (-1) ...  -0.1615167487 (err=  0.0142068105)
  | Vab  (-2) ...  -0.0569172115 (err=  0.0004476602)
  | Va   (-1) ...  -0.0000235526 (err=  0.0000177495)
  | Vija (+1) ...  -0.0722790996 (err=  0.0010061168)
  | Vij  (+2) ...  -0.0154559943 (err=  0.0000482195)
  | Via  (+0) ...  -0.1080912178 (err=  0.0001038473)
  | Vi   (+1) ...  -0.0001590604 (err=  0.0000003163)
 Sum of total truncation errors ...   0.0343365415 Eh
  | Pair screening ...   0.0113937220 Eh
  | PNO truncation ...   0.0229428194 Eh

 UMP2 correlation energy (PAO) ...  -2.6852095510
  | alpha-alpha ...  -0.3859122217 (NP_aa=  934)
  | alpha-beta  ...  -1.9928716607 (NP_ab= 1698)
  | beta -beta  ...  -0.3064256685 (NP_bb=  731)
 UMP2 correlation energy (PNO) ...  -2.6505142927
  | alpha-alpha ...  -0.3739218258 (err=  0.0119903959, NP_aa=  600)
  | alpha-beta  ...  -1.9741909797 (err=  0.0186806810, NP_ab= 1105)
  | beta -beta  ...  -0.3024014872 (err=  0.0040241814, NP_bb=  472)
 Sum of total UMP2 truncation errors ...   0.0346952582 Eh
  | Pair screening ...   0.0114064056 Eh
  | PNO truncation ...   0.0232888527 Eh
 Timing for NEV-PNO construction (sec.)
  | Intermediate construction  ..           50.861
  | Amplitude construction     ..           69.481
  | Total time                 ..          120.341
 Making pair pair interaction lists ...      ok
 Total size for 2-ext PNO integrals ...     11.0 MB
Checking the number of SOMO/SOMO doubles PNOs ... 
 #Truncate: (72, 72)[168] -> [84] .. 
 #Truncate: (73, 73)[169] -> [84] .. 
 #Truncate: (74, 74)[171] -> [84] .. 
 #Truncate: (75, 75)[168] -> [84] .. 
 #Truncate: (76, 76)[169] -> [84] .. 

--------------------------------
LOCAL RI TRANSFORMATION (VABPAO)
--------------------------------

Number of PAOs:    1030
Basis functions:   1025 (343 shells)
Aux. functions:    2424 (644 shells)

Processing maps (0.0 sec)
Average map sizes:
   Aux shells -> PAOs           1030.0
   PAOs       -> AO shells       343.0

Calculating integrals (196.9 sec, 37370.165 MB)
Finished
-----------------------------
LOCAL RI TRANSFORMATION (IJV)
-----------------------------

Orbital window:      29 to 76
Basis functions:   1025 (343 shells)
Aux. functions:    2424 (644 shells)

Processing maps (0.0 sec)
Average map sizes:
   Aux shells -> MOs(i)           46.7
   Aux shells -> MOs(j)           48.0
   MOs        -> AO shells       338.5

Calculating integrals (23.1 sec, 41.607 MB)
Sorting integrals (0.3 sec, 41.579 MB)
Total time for the integral transformation: 23.5 sec


-------------------------------------
Pair Pair Term precalculation with     
RI-(ij|mn) and (im|jn) transformation  
ON THE FLY                             
-------------------------------------

   IBatch   1 (of   2)              ... done ( 1125.208 sec)
   IBatch   2 (of   2)              ... done ( 1187.978 sec)
Total EXT                           ...        2313.187 sec

---------------------
RI-PNO TRANSFORMATION
---------------------

Total Number of PNOs                   ... 34978
Total Number of IJ-PNOs                ... 30785
Total Number of IP-PNOs                ...  3241
Total Number of PQ-PNOs                ...   952
Total Number of IJ-pairs               ...   987
Total Number of PI-pairs               ...   118
Total Number of PQ-pairs               ...    25
Average number of PNOs per pair        ...    30
Maximal number of PNOs per pair        ...    84
>> Statistics for ij-pairs..
   #pairs with  1 -  5 PNOs   :    0
   #pairs with  6 - 10 PNOs   :    0
   #pairs with 11 - 15 PNOs   :   52
   #pairs with 16 - 20 PNOs   :  250
   #pairs with 21 - 25 PNOs   :  168
   #pairs with 26 - 30 PNOs   :  158
   #pairs with 31 - 35 PNOs   :   68
   #pairs with 36 - 40 PNOs   :   58
   #pairs with 41 - 45 PNOs   :   46
   #pairs with 46 - 50 PNOs   :   19
   #pairs with 51 - 55 PNOs   :   31
   #pairs with 56 - 60 PNOs   :   57
   #pairs with 61 - 65 PNOs   :   69
   #pairs with 66 - 70 PNOs   :    9
   #pairs with 71 - 75 PNOs   :    2
>> Statistics for ip-pairs..
   #pairs with  1 -  5 PNOs   :    0
   #pairs with  6 - 10 PNOs   :    3
   #pairs with 11 - 15 PNOs   :   14
   #pairs with 16 - 20 PNOs   :    5
   #pairs with 21 - 25 PNOs   :   23
   #pairs with 26 - 30 PNOs   :   14
   #pairs with 31 - 35 PNOs   :   44
   #pairs with 36 - 40 PNOs   :   15
   #pairs with 41 - 45 PNOs   :    0
   #pairs with 46 - 50 PNOs   :    0
>> Statistics for pq-pairs..
   #pairs with  1 -  5 PNOs   :    0
   #pairs with  6 - 10 PNOs   :    0
   #pairs with 11 - 15 PNOs   :    0
   #pairs with 16 - 20 PNOs   :    0
   #pairs with 21 - 25 PNOs   :    6
   #pairs with 26 - 30 PNOs   :   14
   #pairs with 31 - 35 PNOs   :    0
   #pairs with 36 - 40 PNOs   :    0
   #pairs with 41 - 45 PNOs   :    0
   #pairs with 46 - 50 PNOs   :    0
   #pairs with 81 - 85 PNOs   :    5

Generation of (ij|ab)[P] integrals            ... on
Generation of (ia|bc)[P],(ja|bc)[P] integrals ... on
Storage of 3 and 4 external integrals         ... on
Generation of ALL (ka|bc)[P] integrals        ... on
Keep RI integrals in memory                   ... off

Ibatch:  1 (of  1)
Starting 2-4 index PNO integral generation ... done

Timings:
Total PNO integral transformation time     ...       2291.853 sec
Size of the 3-external file                ...       285 MB
Size of the 4-external file                ...      1912 MB
Size of the IKJL file                      ...        19 MB
Size of the all 3-external file            ...      6842 MB
Size of the 1-external file                ...        22 MB

Size of the PAO/PNO coefficient matrices   ...     227.5 MB

Making pair/pair overlap matrices          ... done (  395.869 sec)
Size of the pair overlap file              ...    2488.0 MB
Total # unrestricted pairs ...       2177
  # of alpha-alpha pairs   ...        600
  # of alpha-beta pairs    ...       1105
  # of beta-beta pairs     ...        472
Constructing the guess amplitudes          ... done (    0.649 sec)

-------------------------
FINAL STARTUP INFORMATION
-------------------------

E(0)                                       ...  -3028.428453163
E(SL-UMP2 in NEV-PNO space)                ...     -2.686144540
Initial E(tot)                             ...  -3031.114597703
<T|T>                                      ...      0.532409820
Number of unrestricted pairs included      ... 2177
Total number of pairs                      ... 4095
----------------------------------------------------------
                     OPEN-SHELL COUPLED CLUSTER ITERATIONS
----------------------------------------------------------

Number of PNO amplitudes to be optimized        ...          2126210
Number of canonical amplitudes for strong pairs ...       1966289151
Untruncated number of canonical amplitudes      ...       3698645738

Iter       E(tot)           E(Corr)          Delta-E          Residual     Time
  0  -3031.121729967     -2.657646557      0.028497983      0.021938132 2161.07
                           *** Turning on DIIS ***
  1  -3031.236606487     -2.772523077     -0.114876520      0.007739182 2176.72
  2  -3031.300497126     -2.836413716     -0.063890640      0.009592295 2168.44
  3  -3031.321261145     -2.857177735     -0.020764019      0.003778870 2168.80
  4  -3031.328205017     -2.864121607     -0.006943872      0.003204786 2135.94
  5  -3031.331728244     -2.867644834     -0.003523227      0.002336850 2119.80
  6  -3031.333043488     -2.868960078     -0.001315244      0.000998335 2140.75
  7  -3031.333847442     -2.869764032     -0.000803954      0.000606948 2175.73
  8  -3031.333997791     -2.869914381     -0.000150348      0.000189469 2130.39
  9  -3031.334041842     -2.869958431     -0.000044051      0.000141233 2099.62
 10  -3031.334036944     -2.869953533      0.000004898      0.000061220 2095.53
 11  -3031.334046624     -2.869963214     -0.000009680      0.000053665 2098.85
 12  -3031.334052400     -2.869968990     -0.000005776      0.000019258 2101.16
 13  -3031.334054801     -2.869971391     -0.000002401      0.000012857 1818.06
 14  -3031.334055253     -2.869971843     -0.000000452      0.000006414 1805.75
               --- The CCSD iterations have converged ---

E(0)                                       ...  -3028.428453163
E(CORR)(strong-pairs)                      ...     -2.869971843
E(CORR)(weak-pairs)                        ...     -0.035630247
E(CORR)(corrected)                         ...     -2.905602089
E(TOT)                                     ...  -3031.334055253
Singles norm <S|S>**1/2                    ...      0.186368592 ( 0.062195994, 0.124172598)  
T1 diagnostic                              ...      0.019536737                              
<S**2>(linearized)                         ...      8.7507083 (ideal value:      8.7500000)

----------------------
LARGEST PNO AMPLITUDES
----------------------
  51b-> 75b  -1b-> -1b       0.056093
  30b-> 75b  -1b-> -1b       0.055546
  45a-> 78a  45b-> 78b       0.050758
  49b-> 74b  -1b-> -1b       0.048253
  63a-> 77a  63b-> 77b       0.044442
  67a-> 77a  67b-> 77b       0.043680
  52b-> 75b  -1b-> -1b       0.043433
  49b-> 72b  -1b-> -1b       0.043199
  59a-> 77a  59b-> 77b       0.042855
  71a-> 77a  71b-> 77b       0.042807
  52b-> 72b  -1b-> -1b       0.042607
  69a-> 77a  69b-> 77b       0.042492
  62a-> 77a  62b-> 77b       0.042413
  55a-> 78a  55b-> 78b       0.042071
  48b-> 72b  -1b-> -1b       0.042031
  49b-> 76b  -1b-> -1b       0.041966

Total # unrestricted pairs ...       1186
  # of alpha-alpha pairs   ...        334
  # of alpha-beta pairs    ...        593
  # of beta-beta pairs     ...        259

-------------------------------------------
DLPNO BASED TRIPLES CORRECTION
-------------------------------------------

Singles multiplier          ...  1.000000
Fragment selection                          .... not used
TCutTNO                     ... 1.000e-09
TCutMP2Pairs                ... 1.000e-05
TCutDOStrong                ... 2.000e-02
TCutMKNStrong               ... 1.000e-02
TCutDOWeak                  ... 4.000e-02
TCutMKNWeak                 ... 1.000e-01
NTCutTNO                    ... 1

Number of Triples that are to be computed         ...     35632

 . . . . . . . . .
10% done  
20% done  
30% done  
40% done  
50% done  
60% done  
70% done  
80% done  
90% done  
          Batch   1   done (  17423.546 sec)

Triples-Correction TCutTNO=   1.000e-09 (NWeakPairs = 0  1  2  3)  -0.116087547579   -0.001803803308    0.000000000000    0.000000000000
Triples-Correction  -0.117891350887

Triples timings:
Total time                      ... 18132.247 sec

Triples List generation         ...     0.000 sec
TNO generation                  ...   708.466 sec
Pair density generation         ...     0.088 sec
Look up tables                  ...     0.119 sec
Generating 3-index integrals    ... 11110.210 sec
Make 4-ind.int. from 3-ind.int  ...     3.896 sec
Projecting amplitudes (D + S)   ...  6044.224 sec
Sorting integrals for spin cases...    55.099 sec
Calculate W0/W1                 ...   170.023 sec
Energy contr. (sum over a,b,c)  ...    39.932 sec

Everything after 3-index        ...  6456.014 sec

Energy contribution AAA         ...    26.063 sec
Energy contribution AAB         ...   117.243 sec
Energy contribution ABB         ...   107.285 sec
Energy contribution BBB         ...    14.512 sec
prep                ...     3.293 sec
makeTTNO            ...  5984.155 sec
copyij              ...     0.136 sec
copyil              ...     4.280 sec
transposeij         ...     0.080 sec
newMatInDoubleProj  ...    56.280 sec
BlasInDoubleProj    ...  3245.140 sec
ProjSingles         ...    49.568 sec
ProjDoubles         ...  5994.655 sec
overall Doubles for projection      ... 3254245
used Doubles for projection         ... 3254245


Number of Triples   (0, 1, 2, 3 weak pairs; overall):  17196   12340       0       0  ( 29536)
Number of Atoms     (0, 1, 2, 3 weak pairs; overall):   20.4    15.0     0.0     0.0  (    29)
Number of PAOs      (0, 1, 2, 3 weak pairs; overall):  787.6   603.9     0.0     0.0  (  1025)
Number of AuxFcns   (0, 1, 2, 3 weak pairs; overall):  976.5   582.2     0.0     0.0  (  2424)
Number of TNOs (0, 1, 2, 3 weak pairs         ):   78.7    55.7     0.0     0.0
Aver. Number of NTNO, Atoms, PAOs, AuxFcns / Triples:  29536    69.1    18.1   710.8   811.8

Triples Correction (T)                     ...     -0.117891351
    alpha-alpha-alpha ... -0.003889955 (  3.3%)
    alpha-alpha-beta  ... -0.055356043 ( 47.0%)
    alpha-beta -beta  ... -0.054556046 ( 46.3%)
    beta -beta -beta  ... -0.004089308 (  3.5%)
Final correlation energy                   ...     -3.023493440
E(CCSD)                                    ...  -3031.334055253
E(CCSD(T))                                 ...  -3031.451946604

----------------------------
STATISTICS FOR PAIR-ENERGIES
----------------------------
Minimum, maximum and average ratios of UMP and CCSD pair-energies ... 0.55, 1.42, 1.02


------------------------------------------------------------------------------- 
                                     TIMINGS                                   
------------------------------------------------------------------------------- 


Total execution time                   ...    58055.703 sec

Localization of occupied MO's          ...        9.583 sec (  0.0%)
Fock Matrix Formation                  ...     1496.194 sec (  2.6%)
Differential overlap integrals         ...        1.530 sec (  0.0%)
Organizing maps                        ...        1.734 sec (  0.0%)
RI 3-index integral generations        ...      285.111 sec (  0.5%)
RI-PNO integral transformation         ...     5147.694 sec (  8.9%)
Initial Guess                          ...     1900.003 sec (  3.3%)
DIIS Solver                            ...       16.616 sec (  0.0%)
State Vector Update                    ...        0.864 sec (  0.0%)
Sigma-vector construction              ...    31396.614 sec ( 54.1%)
  <0|H|D>                              ...        0.030 sec (  0.0% of sigma)
  <D|H|D>(0-ext)                       ...     6106.788 sec ( 19.5% of sigma)
  <D|H|D>(2-ext Fock)                  ...        1.746 sec (  0.0% of sigma)
  <D|H|D>(2-ext)                       ...     4291.020 sec ( 13.7% of sigma)
  <D|H|D>(4-ext)                       ...      135.537 sec (  0.4% of sigma)
  <D|H|D>(4-ext-corr)                  ...      848.912 sec (  2.7% of sigma)
  CCSD doubles correction              ...      564.637 sec (  1.8% of sigma)
  <S|H|S>                              ...      755.577 sec (  2.4% of sigma)
  <S|H|D>(1-ext)                       ...      247.707 sec (  0.8% of sigma)
  <D|H|S>(1-ext)                       ...        0.885 sec (  0.0% of sigma)
  <S|H|D>(3-ext)                       ...       22.402 sec (  0.1% of sigma)
  CCSD singles correction              ...        0.004 sec (  0.0% of sigma)
  Fock-dressing                        ...     9600.099 sec ( 30.6% of sigma)
  Singles amplitudes                   ...      106.828 sec (  0.3% of sigma)
  (ik|jl)-dressing                     ...     6908.756 sec ( 22.0% of sigma)
  (ij|ab),(ia|jb)-dressing             ...     1735.172 sec (  5.5% of sigma)
  Pair energies                        ...        0.157 sec (  0.0% of sigma)
Total Time for computing (T)           ...    18166.784 sec ( 31.3% of ALL)


-------------------------   --------------------
FINAL SINGLE POINT ENERGY     -3031.451946603752
-------------------------   --------------------


                            ***************************************
                            *     ORCA property calculations      *
                            ***************************************

                                    ---------------------
                                    Active property flags
                                    ---------------------
   (+) Dipole Moment


------------------------------------------------------------------------------
                       ORCA ELECTRIC PROPERTIES CALCULATION
------------------------------------------------------------------------------

Dipole Moment Calculation                       ... on
Quadrupole Moment Calculation                   ... off
Polarizability Calculation                      ... off
GBWName                                         ... simple-grid-175-245-b3lyp_d3bj-631gd-gas-singlepoint-DLPNO_CCSD_T1-NormalPNO-augtz-gas.gbw
Electron density file                           ... simple-grid-175-245-b3lyp_d3bj-631gd-gas-singlepoint-DLPNO_CCSD_T1-NormalPNO-augtz-gas.scfp.tmp
The origin for moment calculation is the CENTER OF MASS  = ( 0.296951,  0.037515  0.014144)

-------------
DIPOLE MOMENT
-------------
                                X             Y             Z
Electronic contribution:     39.08844       5.93740       1.72039
Nuclear contribution   :    -44.24568      -5.58971      -2.10741
                        -----------------------------------------
Total Dipole Moment    :     -5.15725       0.34769      -0.38702
                        -----------------------------------------
Magnitude (a.u.)       :      5.18342
Magnitude (Debye)      :     13.17521



--------------------
Rotational spectrum 
--------------------
 
Rotational constants in cm-1:     0.018940     0.011860     0.010898 
Rotational constants in MHz :   567.807730   355.548529   326.710979 

 Dipole components along the rotational axes: 
x,y,z [a.u.] :    -5.154533    -0.338316    -0.429172 
x,y,z [Debye]:   -13.101781    -0.859932    -1.090869 

 

Timings for individual modules:

Sum of individual times         ...    74438.631 sec (=1240.644 min)
GTO integral calculation        ...       11.671 sec (=   0.195 min)   0.0 %
SCF iterations                  ...    16353.968 sec (= 272.566 min)  22.0 %
MDCI module                     ...    58072.991 sec (= 967.883 min)  78.0 %
                             ****ORCA TERMINATED NORMALLY****
TOTAL RUN TIME: 0 days 20 hours 40 minutes 41 seconds 225 msec
