
                                 *****************
                                 * O   R   C   A *
                                 *****************

           --- An Ab Initio, DFT and Semiempirical electronic structure package ---

                  #######################################################
                  #                        -***-                        #
                  #          Department of theory and spectroscopy      #
                  #               Directorship: Frank Neese             #
                  #        Max Planck Institute fuer Kohlenforschung    #
                  #                Kaiser Wilhelm Platz 1               #
                  #                 D-45470 Muelheim/Ruhr               #
                  #                      Germany                        #
                  #                                                     #
                  #                  All rights reserved                #
                  #                        -***-                        #
                  #######################################################


                         Program Version 4.1.2  - RELEASE  -


 With contributions from (in alphabetic order):
   Daniel Aravena         : Magnetic Properties
   Michael Atanasov       : Ab Initio Ligand Field Theory
   Alexander A. Auer      : GIAO ZORA
   Ute Becker             : Parallelization
   Giovanni Bistoni       : ED, Open-shell LED
   Martin Brehm           : Molecular dynamics
   Dmytro Bykov           : SCF Hessian
   Vijay G. Chilkuri      : MRCI spin determinant printing
   Dipayan Datta          : RHF DLPNO-CCSD density
   Achintya Kumar Dutta   : EOM-CC, STEOM-CC
   Dmitry Ganyushin       : Spin-Orbit,Spin-Spin,Magnetic field MRCI
   Miquel Garcia          : C-PCM Hessian
   Yang Guo               : DLPNO-NEVPT2, CIM, IAO-localization
   Andreas Hansen         : Spin unrestricted coupled pair/coupled cluster methods
   Benjamin Helmich-Paris : CASSCF linear response (MC-RPA)
   Lee Huntington         : MR-EOM, pCC
   Robert Izsak           : Overlap fitted RIJCOSX, COSX-SCS-MP3, EOM
   Christian Kollmar      : KDIIS, OOCD, Brueckner-CCSD(T), CCSD density
   Simone Kossmann        : Meta GGA functionals, TD-DFT gradient, OOMP2, MP2 Hessian
   Martin Krupicka        : AUTO-CI
   Lucas Lang             : DCDCAS
   Dagmar Lenk            : GEPOL surface, SMD
   Dimitrios Liakos       : Extrapolation schemes; parallel MDCI
   Dimitrios Manganas     : ROCIS; embedding schemes
   Dimitrios Pantazis     : SARC Basis sets
   Taras Petrenko         : DFT Hessian,TD-DFT gradient, ASA, ECA, R-Raman, ABS, FL, XAS/XES, NRVS
   Peter Pinski           : DLPNO-MP2, DLPNO-MP2 Gradient
   Christoph Reimann      : Effective Core Potentials
   Marius Retegan         : Local ZFS, SOC
   Christoph Riplinger    : Optimizer, TS searches, QM/MM, DLPNO-CCSD(T), (RO)-DLPNO pert. Triples
   Tobias Risthaus        : Range-separated hybrids, TD-DFT gradient, RPA, STAB
   Michael Roemelt        : Restricted open shell CIS
   Masaaki Saitow         : Open-shell DLPNO
   Barbara Sandhoefer     : DKH picture change effects
   Avijit Sen             : IP-ROCIS
   Kantharuban Sivalingam : CASSCF convergence, NEVPT2, FIC-MRCI
   Bernardo de Souza      : ESD, SOC TD-DFT
   Georgi Stoychev        : AutoAux, RI-MP2 NMR
   Willem Van den Heuvel  : Paramagnetic NMR
   Boris Wezisla          : Elementary symmetry handling
   Frank Wennmohs         : Technical directorship


 We gratefully acknowledge several colleagues who have allowed us to
 interface, adapt or use parts of their codes:
   Stefan Grimme, W. Hujo, H. Kruse,             : VdW corrections, initial TS optimization,
                  C. Bannwarth                     DFT functionals, gCP, sTDA/sTD-DF
   Ed Valeev                                     : LibInt (2-el integral package), F12 methods
   Garnet Chan, S. Sharma, J. Yang, R. Olivares  : DMRG
   Ulf Ekstrom                                   : XCFun DFT Library
   Mihaly Kallay                                 : mrcc  (arbitrary order and MRCC methods)
   Andreas Klamt, Michael Diedenhofen            : otool_cosmo (COSMO solvation model)
   Jiri Pittner, Ondrej Demel                    : Mk-CCSD
   Frank Weinhold                                : gennbo (NPA and NBO analysis)
   Christopher J. Cramer and Donald G. Truhlar   : smd solvation model
   Lars Goerigk                                  : TD-DFT with DH, B97 family of functionals
   V. Asgeirsson, H. Jonsson                     : NEB implementation
   FAccTs GmbH                                   : IRC, NEB, NEB-TS, Multilevel


 Your calculation uses the libint2 library for the computation of 2-el integrals
 For citations please refer to: http://libint.valeyev.net

 This ORCA versions uses:
   CBLAS   interface :  Fast vector & matrix operations
   LAPACKE interface :  Fast linear algebra routines
   SCALAPACK package :  Parallel linear algebra routines


----- Orbital basis set information -----
Your calculation utilizes the basis: aug-cc-pVTZ 
    H, B-Ne : Obtained from the ccRepo (grant-hill.group.shef.ac.uk/ccrepo) Feb. 2017
              R. A. Kendall, T. H. Dunning, Jr., R. J. Harrison, J. Chem. Phys. 96, 6796 (1992)
         He : Obtained from the ccRepo (grant-hill.group.shef.ac.uk/ccrepo) Feb. 2017
              D. E. Woon, T. H. Dunning, Jr., J. Chem. Phys. 100, 2975 (1994)
  Li-Be, Na : Obtained from the ccRepo (grant-hill.group.shef.ac.uk/ccrepo) Feb. 2017
              B. P. Prascher, D. E. Woon, K. A. Peterson, T. H. Dunning, Jr., A. K. Wilson, Theor. Chem. Acc. 128, 69 (2011)
         Mg : Obtained from the Peterson Research Group Website (tyr0.chem.wsu.edu/~kipeters) Feb. 2017
              B. P. Prascher, D. E. Woon, K. A. Peterson, T. H. Dunning, Jr., A. K. Wilson, Theor. Chem. Acc. 128, 69 (2011)
      Al-Ar : Obtained from the ccRepo (grant-hill.group.shef.ac.uk/ccrepo) Feb. 2017
              D. E. Woon, T. H. Dunning, Jr., J. Chem. Phys. 98, 1358 (1993)
      Sc-Zn : Obtained from the ccRepo (grant-hill.group.shef.ac.uk/ccrepo) Feb. 2017
              N. B. Balabanov, K. A. Peterson, J. Chem. Phys. 123, 064107 (2005)
              N. B. Balabanov, K. A. Peterson, J. Chem. Phys. 125, 074110 (2006)
      Ga-Kr : Obtained from the ccRepo (grant-hill.group.shef.ac.uk/ccrepo) Feb. 2017
              A. K. Wilson, D. E. Woon, K. A. Peterson, T. H. Dunning, Jr., J. Chem. Phys. 110, 7667 (1999)
     Ag, Au : Obtained from the Peterson Research Group Website (tyr0.chem.wsu.edu/~kipeters) Feb. 2017
              K. A. Peterson, C. Puzzarini, Theor. Chem. Acc. 114, 283 (2005)

----- AuxJ basis set information -----
Your calculation utilizes the AutoAux generation procedure.
  G. L. Stoychev, A. A. Auer, F. Neese, J. Chem. Theory Comput. 13, 554 (2017)

----- AuxC basis set information -----
Your calculation utilizes the auxiliary basis: aug-cc-pVTZ/C 
  H-He, B-F, Al-Ar, Ga-Kr : Obtained from the EMSL Basis Set Exchange (bse.pnl.gov) Feb. 2017
                            F. Weigend, A. Kohn, C. Hattig, J. Chem. Phys. 116, 3175 (2002)
                   Be, Mg : Obtained from the TURBOMOLE 7.0 basis set library
                            C. Haettig, Phys. Chem. Chem. Phys. 7, 59 (2005)
                       Ne : Obtained from the EMSL Basis Set Exchange (bse.pnl.gov) Feb. 2017
                            C. Haettig, Phys. Chem. Chem. Phys. 7, 59 (2005)
                            F. Weigend, A. Kohn, C. Hattig, J. Chem. Phys. 116, 3175 (2002)
                    Sc-Zn : Obtained from the EMSL Basis Set Exchange (bse.pnl.gov) Feb. 2017
                            J. G. Hill, J. A. Platts, J. Chem. Phys. 128, 044104 (2008)

----- AuxJK basis set information -----
Your calculation utilizes the AutoAux generation procedure.
  G. L. Stoychev, A. A. Auer, F. Neese, J. Chem. Theory Comput. 13, 554 (2017)

================================================================================
                                        WARNINGS
                       Please study these warnings very carefully!
================================================================================


WARNING: your system is open-shell and RHF/RKS was chosen
  ===> : WILL SWITCH to UHF/UKS


WARNING: MDCI localization with Augmented Hessian Foster-Boys
  ===> : Switching off randomization!

WARNING: Post HF methods need fully converged wavefunctions
  ===> : Setting SCFConvForced true
         You can overwrite this default with %scf ConvForced false 


INFO   : the flag for use of LIBINT has been found!

================================================================================
                                       INPUT FILE
================================================================================
NAME = simple-grid-195-245-b3lyp_d3bj-631gd-gas-singlepoint-DLPNO_CCSD_T1-NormalPNO-augtz-gas.inp
|  1> ! aug-cc-pVTZ aug-cc-pVTZ/C DLPNO-CCSD(T1) TightSCF NormalPNO UNO MiniPrint AutoAux
|  2> %pal nproc 10 end
|  3> %maxcore 20000
|  4> %mdci
|  5>      density none
|  6> end
|  7> 
|  8> * xyz 0 6
|  9>  O     -0.32978700     -0.15477900     -0.70070600
| 10>  C     -1.26396500     -1.08035100     -0.56589200
| 11>  C     -2.78865300     -0.26583200      0.33654100
| 12>  C     -2.41491200      0.99404500     -0.12196400
| 13>  C     -2.80324800      1.49794000     -1.46671200
| 14> Fe      1.39864300      0.10390600     -0.00721000
| 15> Cl      1.94705800      2.10396100     -0.74396600
| 16>  C     -1.58011500      1.91802600      0.68454200
| 17> Cl      2.61960600     -1.56779800     -0.74462000
| 18> Cl      1.19033000      0.06169200      2.21106100
| 19>  H     -3.58990400     -0.74221200     -0.22583800
| 20>  H     -2.26804000      2.64097100      1.15270800
| 21>  H     -1.02395800      1.42605900      1.48091400
| 22>  H     -0.88912100      2.48505900      0.05377300
| 23>  H     -3.16943700      2.52774600     -1.37233400
| 24>  H     -1.89993400      1.55087800     -2.08979600
| 25>  H     -3.56334000      0.89046400     -1.95967900
| 26>  C     -2.79341400     -0.58245700      1.82168200
| 27>  H     -3.58303000     -0.00475700      2.31688900
| 28>  H     -3.00633100     -1.63964400      1.99186000
| 29>  H     -1.84634000     -0.34499200      2.31065000
| 30>  C     -0.92829100     -2.23835300      0.35709200
| 31>  H     -1.76397800     -2.93127100      0.47755500
| 32>  H     -0.10212700     -2.77055300     -0.13283400
| 33>  H     -0.56833100     -1.90392700      1.32936300
| 34>  C     -1.84081400     -1.54213700     -1.89673100
| 35>  H     -1.03775500     -2.09851800     -2.39477500
| 36>  H     -2.69833300     -2.20807100     -1.77121800
| 37>  H     -2.10491400     -0.70937900     -2.54754900
| 38> *
| 39> 
| 40> 
| 41>                          ****END OF INPUT****
================================================================================

                       ****************************
                       * Single Point Calculation *
                       ****************************

---------------------------------
CARTESIAN COORDINATES (ANGSTROEM)
---------------------------------
  O     -0.329787   -0.154779   -0.700706
  C     -1.263965   -1.080351   -0.565892
  C     -2.788653   -0.265832    0.336541
  C     -2.414912    0.994045   -0.121964
  C     -2.803248    1.497940   -1.466712
  Fe     1.398643    0.103906   -0.007210
  Cl     1.947058    2.103961   -0.743966
  C     -1.580115    1.918026    0.684542
  Cl     2.619606   -1.567798   -0.744620
  Cl     1.190330    0.061692    2.211061
  H     -3.589904   -0.742212   -0.225838
  H     -2.268040    2.640971    1.152708
  H     -1.023958    1.426059    1.480914
  H     -0.889121    2.485059    0.053773
  H     -3.169437    2.527746   -1.372334
  H     -1.899934    1.550878   -2.089796
  H     -3.563340    0.890464   -1.959679
  C     -2.793414   -0.582457    1.821682
  H     -3.583030   -0.004757    2.316889
  H     -3.006331   -1.639644    1.991860
  H     -1.846340   -0.344992    2.310650
  C     -0.928291   -2.238353    0.357092
  H     -1.763978   -2.931271    0.477555
  H     -0.102127   -2.770553   -0.132834
  H     -0.568331   -1.903927    1.329363
  C     -1.840814   -1.542137   -1.896731
  H     -1.037755   -2.098518   -2.394775
  H     -2.698333   -2.208071   -1.771218
  H     -2.104914   -0.709379   -2.547549

----------------------------
CARTESIAN COORDINATES (A.U.)
----------------------------
  NO LB      ZA    FRAG     MASS         X           Y           Z
   0 O     8.0000    0    15.999   -0.623207   -0.292490   -1.324142
   1 C     6.0000    0    12.011   -2.388548   -2.041568   -1.069381
   2 C     6.0000    0    12.011   -5.269790   -0.502350    0.635970
   3 C     6.0000    0    12.011   -4.563522    1.878473   -0.230479
   4 C     6.0000    0    12.011   -5.297371    2.830696   -2.771684
   5 Fe   26.0000    0    55.850    2.643052    0.196354   -0.013625
   6 Cl   17.0000    0    35.453    3.679406    3.975910   -1.405892
   7 C     6.0000    0    12.011   -2.985985    3.624544    1.293597
   8 Cl   17.0000    0    35.453    4.950338   -2.962709   -1.407128
   9 Cl   17.0000    0    35.453    2.249398    0.116581    4.178300
  10 H     1.0000    0     1.008   -6.783935   -1.402577   -0.426772
  11 H     1.0000    0     1.008   -4.285974    4.990712    2.178302
  12 H     1.0000    0     1.008   -1.935000    2.694861    2.798522
  13 H     1.0000    0     1.008   -1.680195    4.696081    0.101616
  14 H     1.0000    0     1.008   -5.989368    4.776748   -2.593335
  15 H     1.0000    0     1.008   -3.590355    2.930735   -3.949142
  16 H     1.0000    0     1.008   -6.733737    1.682733   -3.703257
  17 C     6.0000    0    12.011   -5.278787   -1.100684    3.442480
  18 H     1.0000    0     1.008   -6.770945   -0.008989    4.378286
  19 H     1.0000    0     1.008   -5.681142   -3.098478    3.764070
  20 H     1.0000    0     1.008   -3.489077   -0.651940    4.366496
  21 C     6.0000    0    12.011   -1.754216   -4.229874    0.674806
  22 H     1.0000    0     1.008   -3.333435   -5.539299    0.902448
  23 H     1.0000    0     1.008   -0.192992   -5.235586   -0.251020
  24 H     1.0000    0     1.008   -1.073990   -3.597901    2.512132
  25 C     6.0000    0    12.011   -3.478634   -2.914217   -3.584302
  26 H     1.0000    0     1.008   -1.961073   -3.965624   -4.525469
  27 H     1.0000    0     1.008   -5.099110   -4.172649   -3.347117
  28 H     1.0000    0     1.008   -3.977711   -1.340532   -4.814170



           ************************************************************
           *        Program running with 10 parallel MPI-processes    *
           *              working on a common directory               *
           ************************************************************


           ************************************************************
           *        Program running with 10 parallel MPI-processes    *
           *              working on a common directory               *
           ************************************************************

Diagonalization of the overlap matrix:
Smallest eigenvalue                        ... 6.197e-07
Time for diagonalization                   ...    0.328 sec
Threshold for overlap eigenvalues          ... 1.000e-08
Number of eigenvalues below threshold      ... 0
Time for construction of square roots      ...    0.280 sec
Total time needed                          ...    0.615 sec

-------------------
DFT GRID GENERATION
-------------------

General Integration Accuracy     IntAcc      ...  4.340
Radial Grid Type                 RadialGrid  ... Gauss-Chebyshev
Angular Grid (max. acc.)         AngularGrid ... Lebedev-110
Angular grid pruning method      GridPruning ... 3 (G Style)
Weight generation scheme         WeightScheme... Becke
Basis function cutoff            BFCut       ...    1.0000e-11
Integration weight cutoff        WCut        ...    1.0000e-14
Grids for H and He will be reduced by one unit

# of grid points (after initial pruning)     ...  36112 (   0.0 sec)
# of grid points (after weights+screening)   ...  32288 (   0.1 sec)
nearest neighbour list constructed           ...    0.0 sec
Grid point re-assignment to atoms done       ...    0.0 sec
Grid point division into batches done        ...    0.0 sec
Reduced shell lists constructed in    0.2 sec

Total number of grid points                  ...    32288
Total number of batches                      ...      518
Average number of points per batch           ...       62
Average number of grid points per atom       ...     1113
Average number of shells per batch           ...   294.17 (85.76%)
Average number of basis functions per batch  ...   875.49 (85.41%)
Average number of large shells per batch     ...   242.28 (82.36%)
Average number of large basis fcns per batch ...   721.57 (82.42%)
Maximum spatial batch extension              ...   3.51,  3.76,  3.34 au
Average spatial batch extension              ...   0.18,  0.17,  0.17 au

Time for grid setup =    0.369 sec

Loading Hartree-Fock densities                     ... done
Calculating cut-offs                               ... done
Setting up the integral package                    ... done
Initializing the effective Hamiltonian             ... done
Starting the Coulomb interaction                   ... done (   1.1 sec)
Reading the grid                                   ... done
Mapping shells                                     ... done
Starting the XC term evaluation                    ... done (   0.8 sec)
Transforming the Hamiltonian                       ... done (   0.2 sec)
Diagonalizing the Hamiltonian                      ... done (   0.3 sec)
Back transforming the eigenvectors                 ... done (   0.1 sec)
Now organizing SCF variables                       ... done
--------------
SCF ITERATIONS
--------------
ITER       Energy         Delta-E        Max-DP      RMS-DP      [F,P]     Damp
               ***  Starting incremental Fock matrix formation  ***
  0  -3027.5709077505   0.000000000000 0.32549920  0.00120827  0.2868530 0.7000
  1  -3027.8191023595  -0.248194608967 0.23921505  0.00093619  0.1671646 0.7000
                               ***Turning on DIIS***
  2  -3027.9857771371  -0.166674777664 0.16874693  0.00068703  0.1094692 0.7000
  3  -3029.6579151393  -1.672138002175 0.38317119  0.00171404  0.0823081 0.0000
  4  -3028.2910387708   1.366876368535 0.04668378  0.00022386  0.0193976 0.0000
  5  -3028.4097998449  -0.118761074180 0.04004980  0.00017204  0.0116871 0.0000
  6  -3028.4407383496  -0.030938504649 0.02032939  0.00007004  0.0053770 0.0000
  7  -3028.4532870483  -0.012548698714 0.00904028  0.00003175  0.0033046 0.0000
  8  -3028.4490535387   0.004233509612 0.00584631  0.00001854  0.0014182 0.0000
  9  -3028.4407866197   0.008266919007 0.00228725  0.00001083  0.0007080 0.0000
 10  -3028.4302045263   0.010582093400 0.00090182  0.00000340  0.0004066 0.0000
 11  -3028.4359938591  -0.005789332826 0.00049210  0.00000197  0.0000823 0.0000
 12  -3028.4331687012   0.002825157873 0.00047244  0.00000143  0.0000330 0.0000
 13  -3028.4333077168  -0.000139015519 0.00160853  0.00000273  0.0000115 0.0000
 14  -3028.4334271960  -0.000119479283 0.00091605  0.00000234  0.0000071 0.0000
 15  -3028.4333314030   0.000095793070 0.00127578  0.00000247  0.0000033 0.0000
 16  -3028.4333683255  -0.000036922548 0.00111835  0.00000270  0.0000023 0.0000
 17  -3028.4333850550  -0.000016729526 0.00121464  0.00000247  0.0000016 0.0000
 18  -3028.4333627112   0.000022343887 0.00209040  0.00000395  0.0000015 0.0000
 19  -3028.4333739340  -0.000011222887 0.00159599  0.00000364  0.0000013 0.0000
               *** Restarting incremental Fock matrix formation ***
                                   *** Resetting DIIS ***
 20  -3028.4333731114   0.000000822606 0.00897235  0.00001676  0.0000010 0.0000
                            ***DIIS convergence achieved***

               *****************************************************
               *                     SUCCESS                       *
               *           SCF CONVERGED AFTER  21 CYCLES          *
               *****************************************************

Total Energy       :        -3028.43337369 Eh          -82407.86163 eV
  Last Energy change         ...   -5.7574e-07  Tolerance :   1.0000e-08
  Last MAX-Density change    ...    1.6770e-03  Tolerance :   1.0000e-07
             **** THE GBW FILE WAS UPDATED (simple-grid-195-245-b3lyp_d3bj-631gd-gas-singlepoint-DLPNO_CCSD_T1-NormalPNO-augtz-gas.gbw) ****
             **** DENSITY FILE WAS UPDATED (simple-grid-195-245-b3lyp_d3bj-631gd-gas-singlepoint-DLPNO_CCSD_T1-NormalPNO-augtz-gas.scfp.tmp) ****
             **** ENERGY FILE WAS UPDATED (simple-grid-195-245-b3lyp_d3bj-631gd-gas-singlepoint-DLPNO_CCSD_T1-NormalPNO-augtz-gas.en.tmp) ****
----------------------
UHF SPIN CONTAMINATION
----------------------

Expectation value of <S**2>     :     8.764314
Ideal value S*(S+1) for S=2.5   :     8.750000
Deviation                       :     0.014314

----------------
ORBITAL ENERGIES
----------------
                 SPIN UP ORBITALS
  NO   OCC          E(Eh)            E(eV) 
   0   1.0000    -261.551797     -7117.1862 
   1   1.0000    -104.778349     -2851.1638 
   2   1.0000    -104.774676     -2851.0639 
   3   1.0000    -104.773352     -2851.0278 
   4   1.0000     -32.219692      -876.7424 
   5   1.0000     -27.695643      -753.6367 
   6   1.0000     -27.695368      -753.6293 
   7   1.0000     -27.695131      -753.6228 
   8   1.0000     -20.554834      -559.3255 
   9   1.0000     -11.385264      -309.8088 
  10   1.0000     -11.362380      -309.1861 
  11   1.0000     -11.279084      -306.9195 
  12   1.0000     -11.278299      -306.8981 
  13   1.0000     -11.262245      -306.4613 
  14   1.0000     -11.254840      -306.2598 
  15   1.0000     -11.254388      -306.2475 
  16   1.0000     -11.246818      -306.0415 
  17   1.0000     -10.504949      -285.8542 
  18   1.0000     -10.501249      -285.7535 
  19   1.0000     -10.499953      -285.7183 
  20   1.0000      -7.971843      -216.9249 
  21   1.0000      -7.970966      -216.9010 
  22   1.0000      -7.970928      -216.9000 
  23   1.0000      -7.968064      -216.8220 
  24   1.0000      -7.967352      -216.8027 
  25   1.0000      -7.967272      -216.8005 
  26   1.0000      -7.966792      -216.7874 
  27   1.0000      -7.966054      -216.7674 
  28   1.0000      -7.965980      -216.7653 
  29   1.0000      -4.575024      -124.4927 
  30   1.0000      -3.187593       -86.7388 
  31   1.0000      -3.187059       -86.7243 
  32   1.0000      -3.186612       -86.7121 
  33   1.0000      -1.396682       -38.0057 
  34   1.0000      -1.178453       -32.0673 
  35   1.0000      -1.084107       -29.5001 
  36   1.0000      -1.048845       -28.5405 
  37   1.0000      -1.043872       -28.4052 
  38   1.0000      -1.042513       -28.3682 
  39   1.0000      -1.040593       -28.3160 
  40   1.0000      -1.001007       -27.2388 
  41   1.0000      -0.981000       -26.6944 
  42   1.0000      -0.931434       -25.3456 
  43   1.0000      -0.916377       -24.9359 
  44   1.0000      -0.904461       -24.6116 
  45   1.0000      -0.904333       -24.6081 
  46   1.0000      -0.895761       -24.3749 
  47   1.0000      -0.895074       -24.3562 
  48   1.0000      -0.786667       -21.4063 
  49   1.0000      -0.764751       -20.8099 
  50   1.0000      -0.699360       -19.0305 
  51   1.0000      -0.691466       -18.8157 
  52   1.0000      -0.673368       -18.3233 
  53   1.0000      -0.654735       -17.8163 
  54   1.0000      -0.649286       -17.6680 
  55   1.0000      -0.626503       -17.0480 
  56   1.0000      -0.599882       -16.3236 
  57   1.0000      -0.595924       -16.2159 
  58   1.0000      -0.588228       -16.0065 
  59   1.0000      -0.577858       -15.7243 
  60   1.0000      -0.574890       -15.6436 
  61   1.0000      -0.562563       -15.3081 
  62   1.0000      -0.554660       -15.0931 
  63   1.0000      -0.549252       -14.9459 
  64   1.0000      -0.538481       -14.6528 
  65   1.0000      -0.526744       -14.3334 
  66   1.0000      -0.513702       -13.9785 
  67   1.0000      -0.475517       -12.9395 
  68   1.0000      -0.462321       -12.5804 
  69   1.0000      -0.453671       -12.3450 
  70   1.0000      -0.428143       -11.6504 
  71   1.0000      -0.426624       -11.6090 
  72   1.0000      -0.424609       -11.5542 
  73   1.0000      -0.415599       -11.3090 
  74   1.0000      -0.414443       -11.2776 
  75   1.0000      -0.413262       -11.2454 
  76   1.0000      -0.390828       -10.6350 
  77   0.0000       0.008185         0.2227 
  78   0.0000       0.019231         0.5233 
  79   0.0000       0.021058         0.5730 
  80   0.0000       0.024998         0.6802 
  81   0.0000       0.031324         0.8524 
  82   0.0000       0.038164         1.0385 
  83   0.0000       0.039995         1.0883 
  84   0.0000       0.044452         1.2096 
  85   0.0000       0.045626         1.2416 
  86   0.0000       0.046575         1.2674 
  87   0.0000       0.056818         1.5461 
  88   0.0000       0.059226         1.6116 
  89   0.0000       0.061778         1.6811 
  90   0.0000       0.064918         1.7665 
  91   0.0000       0.065989         1.7956 
  92   0.0000       0.071789         1.9535 
  93   0.0000       0.074979         2.0403 
  94   0.0000       0.078737         2.1426 
  95   0.0000       0.089078         2.4239 
  96   0.0000       0.089822         2.4442 
  97   0.0000       0.093970         2.5571 
  98   0.0000       0.096058         2.6139 
  99   0.0000       0.099249         2.7007 
 100   0.0000       0.100733         2.7411 
 101   0.0000       0.109682         2.9846 
 102   0.0000       0.113593         3.0910 
 103   0.0000       0.121552         3.3076 
 104   0.0000       0.122534         3.3343 
 105   0.0000       0.125520         3.4156 
 106   0.0000       0.127967         3.4822 
 107   0.0000       0.129769         3.5312 
 108   0.0000       0.132011         3.5922 
 109   0.0000       0.133166         3.6236 
 110   0.0000       0.137808         3.7499 
 111   0.0000       0.139465         3.7950 
 112   0.0000       0.142512         3.8779 
 113   0.0000       0.145694         3.9645 
 114   0.0000       0.151141         4.1128 
 115   0.0000       0.154287         4.1984 
 116   0.0000       0.158005         4.2995 
 117   0.0000       0.163359         4.4452 
 118   0.0000       0.164670         4.4809 
 119   0.0000       0.166845         4.5401 
 120   0.0000       0.169352         4.6083 
 121   0.0000       0.170753         4.6464 
 122   0.0000       0.175570         4.7775 
 123   0.0000       0.178934         4.8690 
 124   0.0000       0.180789         4.9195 
 125   0.0000       0.188750         5.1362 
 126   0.0000       0.189424         5.1545 
 127   0.0000       0.198105         5.3907 
 128   0.0000       0.198729         5.4077 
 129   0.0000       0.200598         5.4585 
 130   0.0000       0.201865         5.4930 
 131   0.0000       0.206435         5.6174 
 132   0.0000       0.208895         5.6843 
 133   0.0000       0.211372         5.7517 
 134   0.0000       0.213148         5.8001 
 135   0.0000       0.217985         5.9317 
 136   0.0000       0.223635         6.0854 
 137   0.0000       0.225306         6.1309 
 138   0.0000       0.226502         6.1634 
 139   0.0000       0.231772         6.3068 
 140   0.0000       0.234775         6.3885 
 141   0.0000       0.238311         6.4848 
 142   0.0000       0.241313         6.5665 
 143   0.0000       0.245251         6.6736 
 144   0.0000       0.246784         6.7153 
 145   0.0000       0.249361         6.7854 
 146   0.0000       0.252269         6.8646 
 147   0.0000       0.256210         6.9718 
 148   0.0000       0.260982         7.1017 
 149   0.0000       0.265170         7.2156 
 150   0.0000       0.267741         7.2856 
 151   0.0000       0.269100         7.3226 
 152   0.0000       0.277672         7.5559 
 153   0.0000       0.279665         7.6101 
 154   0.0000       0.282685         7.6923 
 155   0.0000       0.286101         7.7852 
 156   0.0000       0.290483         7.9044 
 157   0.0000       0.291838         7.9413 
 158   0.0000       0.299212         8.1420 
 159   0.0000       0.303630         8.2622 
 160   0.0000       0.307873         8.3777 
 161   0.0000       0.315580         8.5874 
 162   0.0000       0.319405         8.6915 
 163   0.0000       0.322243         8.7687 
 164   0.0000       0.322886         8.7862 
 165   0.0000       0.328317         8.9340 
 166   0.0000       0.333211         9.0671 
 167   0.0000       0.338581         9.2132 
 168   0.0000       0.341331         9.2881 
 169   0.0000       0.344135         9.3644 
 170   0.0000       0.348226         9.4757 
 171   0.0000       0.353611         9.6222 
 172   0.0000       0.355314         9.6686 
 173   0.0000       0.359967         9.7952 
 174   0.0000       0.361623         9.8403 
 175   0.0000       0.364725         9.9247 
 176   0.0000       0.370458        10.0807 
 177   0.0000       0.371887        10.1196 
 178   0.0000       0.377365        10.2686 
 179   0.0000       0.379954        10.3391 
 180   0.0000       0.382085        10.3971 
 181   0.0000       0.383657        10.4398 
 182   0.0000       0.384635        10.4664 
 183   0.0000       0.390891        10.6367 
 184   0.0000       0.392211        10.6726 
 185   0.0000       0.395158        10.7528 
 186   0.0000       0.395588        10.7645 
 187   0.0000       0.402147        10.9430 
 188   0.0000       0.403977        10.9928 
 189   0.0000       0.412465        11.2238 
 190   0.0000       0.414594        11.2817 
 191   0.0000       0.417727        11.3669 
 192   0.0000       0.422116        11.4864 
 193   0.0000       0.422896        11.5076 
 194   0.0000       0.428562        11.6618 
 195   0.0000       0.432347        11.7648 
 196   0.0000       0.434988        11.8366 
 197   0.0000       0.439079        11.9480 
 198   0.0000       0.444628        12.0989 
 199   0.0000       0.452307        12.3079 
 200   0.0000       0.453896        12.3511 
 201   0.0000       0.454873        12.3777 
 202   0.0000       0.457242        12.4422 
 203   0.0000       0.462341        12.5809 
 204   0.0000       0.465036        12.6543 
 205   0.0000       0.469256        12.7691 
 206   0.0000       0.473579        12.8867 
 207   0.0000       0.476422        12.9641 
 208   0.0000       0.480218        13.0674 
 209   0.0000       0.484883        13.1943 
 210   0.0000       0.485682        13.2161 
 211   0.0000       0.487983        13.2787 
 212   0.0000       0.490733        13.3535 
 213   0.0000       0.494299        13.4505 
 214   0.0000       0.498022        13.5519 
 215   0.0000       0.500026        13.6064 
 216   0.0000       0.500817        13.6279 
 217   0.0000       0.505681        13.7603 
 218   0.0000       0.510453        13.8901 
 219   0.0000       0.513334        13.9685 
 220   0.0000       0.516069        14.0430 
 221   0.0000       0.519995        14.1498 
 222   0.0000       0.522478        14.2174 
 223   0.0000       0.524165        14.2632 
 224   0.0000       0.529567        14.4103 
 225   0.0000       0.532294        14.4844 
 226   0.0000       0.536194        14.5906 
 227   0.0000       0.541088        14.7237 
 228   0.0000       0.541824        14.7438 
 229   0.0000       0.550932        14.9916 
 230   0.0000       0.552243        15.0273 
 231   0.0000       0.555957        15.1284 
 232   0.0000       0.560432        15.2501 
 233   0.0000       0.561611        15.2822 
 234   0.0000       0.566609        15.4182 
 235   0.0000       0.570834        15.5332 
 236   0.0000       0.571439        15.5496 
 237   0.0000       0.575391        15.6572 
 238   0.0000       0.582724        15.8567 
 239   0.0000       0.584065        15.8932 
 240   0.0000       0.588743        16.0205 
 241   0.0000       0.594390        16.1742 
 242   0.0000       0.594809        16.1856 
 243   0.0000       0.602230        16.3875 
 244   0.0000       0.602724        16.4010 
 245   0.0000       0.605206        16.4685 
 246   0.0000       0.608321        16.5533 
 247   0.0000       0.613961        16.7067 
 248   0.0000       0.617113        16.7925 
 249   0.0000       0.622872        16.9492 
 250   0.0000       0.627344        17.0709 
 251   0.0000       0.631254        17.1773 
 252   0.0000       0.632899        17.2221 
 253   0.0000       0.638545        17.3757 
 254   0.0000       0.642284        17.4774 
 255   0.0000       0.645476        17.5643 
 256   0.0000       0.649005        17.6603 
 257   0.0000       0.654584        17.8121 
 258   0.0000       0.656998        17.8778 
 259   0.0000       0.660406        17.9705 
 260   0.0000       0.661387        17.9973 
 261   0.0000       0.668593        18.1933 
 262   0.0000       0.672317        18.2947 
 263   0.0000       0.680754        18.5243 
 264   0.0000       0.682600        18.5745 
 265   0.0000       0.690163        18.7803 
 266   0.0000       0.692935        18.8557 
 267   0.0000       0.695657        18.9298 
 268   0.0000       0.698119        18.9968 
 269   0.0000       0.701216        19.0811 
 270   0.0000       0.708414        19.2769 
 271   0.0000       0.713236        19.4082 
 272   0.0000       0.715021        19.4567 
 273   0.0000       0.723157        19.6781 
 274   0.0000       0.726890        19.7797 
 275   0.0000       0.728098        19.8126 
 276   0.0000       0.734874        19.9969 
 277   0.0000       0.736569        20.0431 
 278   0.0000       0.742032        20.1917 
 279   0.0000       0.746065        20.3015 
 280   0.0000       0.753551        20.5052 
 281   0.0000       0.757251        20.6058 
 282   0.0000       0.763596        20.7785 
 283   0.0000       0.767121        20.8744 
 284   0.0000       0.774648        21.0792 
 285   0.0000       0.787227        21.4215 
 286   0.0000       0.791595        21.5404 
 287   0.0000       0.795594        21.6492 
 288   0.0000       0.802965        21.8498 
 289   0.0000       0.805689        21.9239 
 290   0.0000       0.812709        22.1149 
 291   0.0000       0.815983        22.2040 
 292   0.0000       0.824638        22.4396 
 293   0.0000       0.830099        22.5881 
 294   0.0000       0.830890        22.6097 
 295   0.0000       0.839080        22.8325 
 296   0.0000       0.841541        22.8995 
 297   0.0000       0.849135        23.1061 
 298   0.0000       0.852543        23.1989 
 299   0.0000       0.858047        23.3486 
 300   0.0000       0.859695        23.3935 
 301   0.0000       0.864684        23.5292 
 302   0.0000       0.869815        23.6689 
 303   0.0000       0.877836        23.8871 
 304   0.0000       0.885749        24.1025 
 305   0.0000       0.888329        24.1727 
 306   0.0000       0.895433        24.3660 
 307   0.0000       0.897257        24.4156 
 308   0.0000       0.899523        24.4773 
 309   0.0000       0.903698        24.5909 
 310   0.0000       0.910791        24.7839 
 311   0.0000       0.911619        24.8064 
 312   0.0000       0.919760        25.0279 
 313   0.0000       0.924538        25.1579 
 314   0.0000       0.926842        25.2206 
 315   0.0000       0.930171        25.3112 
 316   0.0000       0.931868        25.3574 
 317   0.0000       0.935263        25.4498 
 318   0.0000       0.940495        25.5922 
 319   0.0000       0.945911        25.7395 
 320   0.0000       0.947793        25.7907 
 321   0.0000       0.956463        26.0267 
 322   0.0000       0.960419        26.1343 
 323   0.0000       0.962565        26.1927 
 324   0.0000       0.964729        26.2516 
 325   0.0000       0.967512        26.3273 
 326   0.0000       0.968558        26.3558 
 327   0.0000       0.976154        26.5625 
 328   0.0000       0.979378        26.6502 
 329   0.0000       0.982520        26.7357 
 330   0.0000       0.986203        26.8360 
 331   0.0000       0.986567        26.8458 
 332   0.0000       0.988931        26.9102 
 333   0.0000       0.997600        27.1461 
 334   0.0000       1.003169        27.2976 
 335   0.0000       1.005332        27.3565 
 336   0.0000       1.008814        27.4512 
 337   0.0000       1.013056        27.5667 
 338   0.0000       1.019369        27.7384 
 339   0.0000       1.026182        27.9238 
 340   0.0000       1.027415        27.9574 
 341   0.0000       1.029251        28.0073 
 342   0.0000       1.033132        28.1130 
 343   0.0000       1.039938        28.2981 
 344   0.0000       1.042298        28.3624 
 345   0.0000       1.044097        28.4113 
 346   0.0000       1.047077        28.4924 
 347   0.0000       1.048475        28.5305 
 348   0.0000       1.052547        28.6413 
 349   0.0000       1.054674        28.6991 
 350   0.0000       1.057394        28.7732 
 351   0.0000       1.062166        28.9030 
 352   0.0000       1.066454        29.0197 
 353   0.0000       1.072661        29.1886 
 354   0.0000       1.078091        29.3363 
 355   0.0000       1.080502        29.4020 
 356   0.0000       1.084718        29.5167 
 357   0.0000       1.086174        29.5563 
 358   0.0000       1.091557        29.7028 
 359   0.0000       1.094034        29.7702 
 360   0.0000       1.099130        29.9088 
 361   0.0000       1.109239        30.1839 
 362   0.0000       1.111695        30.2507 
 363   0.0000       1.114641        30.3309 
 364   0.0000       1.116142        30.3718 
 365   0.0000       1.122709        30.5505 
 366   0.0000       1.126351        30.6496 
 367   0.0000       1.130327        30.7578 
 368   0.0000       1.134926        30.8829 
 369   0.0000       1.140366        31.0309 
 370   0.0000       1.142194        31.0807 
 371   0.0000       1.143642        31.1201 
 372   0.0000       1.151184        31.3253 
 373   0.0000       1.155034        31.4301 
 374   0.0000       1.157178        31.4884 
 375   0.0000       1.165608        31.7178 
 376   0.0000       1.166101        31.7312 
 377   0.0000       1.172909        31.9165 
 378   0.0000       1.175074        31.9754 
 379   0.0000       1.182019        32.1644 
 380   0.0000       1.185801        32.2673 
 381   0.0000       1.192119        32.4392 
 382   0.0000       1.195374        32.5278 
 383   0.0000       1.202649        32.7257 
 384   0.0000       1.210947        32.9516 
 385   0.0000       1.212544        32.9950 
 386   0.0000       1.216304        33.0973 
 387   0.0000       1.217876        33.1401 
 388   0.0000       1.224662        33.3247 
 389   0.0000       1.229755        33.4633 
 390   0.0000       1.235563        33.6214 
 391   0.0000       1.238331        33.6967 
 392   0.0000       1.244355        33.8606 
 393   0.0000       1.248476        33.9728 
 394   0.0000       1.255044        34.1515 
 395   0.0000       1.257189        34.2099 
 396   0.0000       1.264741        34.4154 
 397   0.0000       1.271540        34.6004 
 398   0.0000       1.273977        34.6667 
 399   0.0000       1.275080        34.6967 
 400   0.0000       1.282148        34.8890 
 401   0.0000       1.287162        35.0255 
 402   0.0000       1.295341        35.2480 
 403   0.0000       1.299173        35.3523 
 404   0.0000       1.302922        35.4543 
 405   0.0000       1.310179        35.6518 
 406   0.0000       1.311256        35.6811 
 407   0.0000       1.318603        35.8810 
 408   0.0000       1.325085        36.0574 
 409   0.0000       1.329736        36.1839 
 410   0.0000       1.337373        36.3918 
 411   0.0000       1.343369        36.5549 
 412   0.0000       1.346070        36.6284 
 413   0.0000       1.349018        36.7087 
 414   0.0000       1.355444        36.8835 
 415   0.0000       1.357161        36.9302 
 416   0.0000       1.361466        37.0474 
 417   0.0000       1.372220        37.3400 
 418   0.0000       1.377257        37.4771 
 419   0.0000       1.379813        37.5466 
 420   0.0000       1.383589        37.6494 
 421   0.0000       1.388729        37.7892 
 422   0.0000       1.398661        38.0595 
 423   0.0000       1.405795        38.2536 
 424   0.0000       1.412137        38.4262 
 425   0.0000       1.416116        38.5345 
 426   0.0000       1.419999        38.6401 
 427   0.0000       1.428056        38.8594 
 428   0.0000       1.433223        39.0000 
 429   0.0000       1.434829        39.0437 
 430   0.0000       1.439389        39.1678 
 431   0.0000       1.446798        39.3694 
 432   0.0000       1.453075        39.5402 
 433   0.0000       1.462561        39.7983 
 434   0.0000       1.468327        39.9552 
 435   0.0000       1.469599        39.9898 
 436   0.0000       1.476218        40.1699 
 437   0.0000       1.482924        40.3524 
 438   0.0000       1.490009        40.5452 
 439   0.0000       1.493824        40.6490 
 440   0.0000       1.496973        40.7347 
 441   0.0000       1.499953        40.8158 
 442   0.0000       1.506344        40.9897 
 443   0.0000       1.508485        41.0480 
 444   0.0000       1.514675        41.2164 
 445   0.0000       1.520500        41.3749 
 446   0.0000       1.524135        41.4738 
 447   0.0000       1.529875        41.6300 
 448   0.0000       1.532063        41.6896 
 449   0.0000       1.536771        41.8177 
 450   0.0000       1.541302        41.9410 
 451   0.0000       1.550128        42.1811 
 452   0.0000       1.554777        42.3076 
 453   0.0000       1.563073        42.5334 
 454   0.0000       1.569023        42.6953 
 455   0.0000       1.575223        42.8640 
 456   0.0000       1.579194        42.9721 
 457   0.0000       1.582063        43.0501 
 458   0.0000       1.584529        43.1172 
 459   0.0000       1.592711        43.3399 
 460   0.0000       1.595376        43.4124 
 461   0.0000       1.599332        43.5200 
 462   0.0000       1.606918        43.7265 
 463   0.0000       1.615590        43.9624 
 464   0.0000       1.618734        44.0480 
 465   0.0000       1.623797        44.1858 
 466   0.0000       1.626756        44.2663 
 467   0.0000       1.633181        44.4411 
 468   0.0000       1.640835        44.6494 
 469   0.0000       1.643607        44.7248 
 470   0.0000       1.653098        44.9831 
 471   0.0000       1.658739        45.1366 
 472   0.0000       1.668605        45.4050 
 473   0.0000       1.669701        45.4349 
 474   0.0000       1.671160        45.4746 
 475   0.0000       1.679910        45.7127 
 476   0.0000       1.682036        45.7705 
 477   0.0000       1.688574        45.9484 
 478   0.0000       1.690601        46.0036 
 479   0.0000       1.699331        46.2412 
 480   0.0000       1.700962        46.2855 
 481   0.0000       1.708925        46.5022 
 482   0.0000       1.718046        46.7504 
 483   0.0000       1.723373        46.8954 
 484   0.0000       1.727785        47.0154 
 485   0.0000       1.729078        47.0506 
 486   0.0000       1.739450        47.3328 
 487   0.0000       1.743023        47.4301 
 488   0.0000       1.746075        47.5131 
 489   0.0000       1.747941        47.5639 
 490   0.0000       1.754676        47.7472 
 491   0.0000       1.762807        47.9684 
 492   0.0000       1.766664        48.0734 
 493   0.0000       1.775062        48.3019 
 494   0.0000       1.777129        48.3581 
 495   0.0000       1.782056        48.4922 
 496   0.0000       1.790156        48.7126 
 497   0.0000       1.793242        48.7966 
 498   0.0000       1.804599        49.1056 
 499   0.0000       1.807781        49.1922 
 500   0.0000       1.809271        49.2328 
 501   0.0000       1.815964        49.4149 
 502   0.0000       1.821410        49.5631 
 503   0.0000       1.828928        49.7676 
 504   0.0000       1.835279        49.9405 
 505   0.0000       1.840454        50.0813 
 506   0.0000       1.842907        50.1480 
 507   0.0000       1.846355        50.2419 
 508   0.0000       1.847398        50.2703 
 509   0.0000       1.854134        50.4536 
 510   0.0000       1.862696        50.6865 
 511   0.0000       1.864674        50.7404 
 512   0.0000       1.869010        50.8583 
 513   0.0000       1.872198        50.9451 
 514   0.0000       1.879113        51.1333 
 515   0.0000       1.884250        51.2731 
 516   0.0000       1.889884        51.4264 
 517   0.0000       1.896017        51.5932 
 518   0.0000       1.899449        51.6866 
 519   0.0000       1.906133        51.8685 
 520   0.0000       1.910393        51.9844 
 521   0.0000       1.913352        52.0650 
 522   0.0000       1.924217        52.3606 
 523   0.0000       1.929084        52.4930 
 524   0.0000       1.936064        52.6830 
 525   0.0000       1.942972        52.8709 
 526   0.0000       1.947309        52.9890 
 527   0.0000       1.949069        53.0369 
 528   0.0000       1.952386        53.1271 
 529   0.0000       1.956828        53.2480 
 530   0.0000       1.965931        53.4957 
 531   0.0000       1.971983        53.6604 
 532   0.0000       1.979548        53.8662 
 533   0.0000       1.983493        53.9736 
 534   0.0000       1.985164        54.0191 
 535   0.0000       1.993259        54.2393 
 536   0.0000       2.000167        54.4273 
 537   0.0000       2.007384        54.6237 
 538   0.0000       2.010644        54.7124 
 539   0.0000       2.021324        55.0030 
 540   0.0000       2.029302        55.2201 
 541   0.0000       2.034867        55.3715 
 542   0.0000       2.043627        55.6099 
 543   0.0000       2.047914        55.7266 
 544   0.0000       2.058420        56.0125 
 545   0.0000       2.067288        56.2538 
 546   0.0000       2.075873        56.4874 
 547   0.0000       2.078705        56.5644 
 548   0.0000       2.086856        56.7862 
 549   0.0000       2.095249        57.0146 
 550   0.0000       2.102226        57.2045 
 551   0.0000       2.107391        57.3450 
 552   0.0000       2.113627        57.5147 
 553   0.0000       2.118382        57.6441 
 554   0.0000       2.124232        57.8033 
 555   0.0000       2.133170        58.0465 
 556   0.0000       2.135585        58.1122 
 557   0.0000       2.139491        58.2185 
 558   0.0000       2.142487        58.3000 
 559   0.0000       2.152040        58.5600 
 560   0.0000       2.157502        58.7086 
 561   0.0000       2.170038        59.0497 
 562   0.0000       2.174184        59.1626 
 563   0.0000       2.183980        59.4291 
 564   0.0000       2.189316        59.5743 
 565   0.0000       2.194372        59.7119 
 566   0.0000       2.202728        59.9393 
 567   0.0000       2.209760        60.1306 
 568   0.0000       2.214954        60.2720 
 569   0.0000       2.226198        60.5779 
 570   0.0000       2.227886        60.6239 
 571   0.0000       2.241609        60.9973 
 572   0.0000       2.251009        61.2531 
 573   0.0000       2.257858        61.4394 
 574   0.0000       2.262774        61.5732 
 575   0.0000       2.266559        61.6762 
 576   0.0000       2.269847        61.7657 
 577   0.0000       2.278706        62.0067 
 578   0.0000       2.287060        62.2341 
 579   0.0000       2.291955        62.3673 
 580   0.0000       2.299029        62.5598 
 581   0.0000       2.313092        62.9424 
 582   0.0000       2.319039        63.1043 
 583   0.0000       2.328045        63.3493 
 584   0.0000       2.330977        63.4291 
 585   0.0000       2.344042        63.7846 
 586   0.0000       2.346131        63.8415 
 587   0.0000       2.354518        64.0697 
 588   0.0000       2.365165        64.3594 
 589   0.0000       2.375475        64.6399 
 590   0.0000       2.386416        64.9377 
 591   0.0000       2.386819        64.9486 
 592   0.0000       2.397332        65.2347 
 593   0.0000       2.400670        65.3256 
 594   0.0000       2.409534        65.5668 
 595   0.0000       2.415705        65.7347 
 596   0.0000       2.418522        65.8113 
 597   0.0000       2.433617        66.2221 
 598   0.0000       2.437929        66.3394 
 599   0.0000       2.442511        66.4641 
 600   0.0000       2.452470        66.7351 
 601   0.0000       2.465010        67.0763 
 602   0.0000       2.474815        67.3431 
 603   0.0000       2.489801        67.7509 
 604   0.0000       2.492710        67.8301 
 605   0.0000       2.504934        68.1627 
 606   0.0000       2.514897        68.4338 
 607   0.0000       2.526866        68.7595 
 608   0.0000       2.529310        68.8260 
 609   0.0000       2.542948        69.1971 
 610   0.0000       2.550646        69.4066 
 611   0.0000       2.558833        69.6294 
 612   0.0000       2.582252        70.2666 
 613   0.0000       2.589503        70.4640 
 614   0.0000       2.608521        70.9815 
 615   0.0000       2.612191        71.0813 
 616   0.0000       2.623088        71.3778 
 617   0.0000       2.637839        71.7793 
 618   0.0000       2.648508        72.0696 
 619   0.0000       2.654423        72.2305 
 620   0.0000       2.660824        72.4047 
 621   0.0000       2.667418        72.5841 
 622   0.0000       2.676659        72.8356 
 623   0.0000       2.687260        73.1241 
 624   0.0000       2.696701        73.3810 
 625   0.0000       2.707183        73.6662 
 626   0.0000       2.721173        74.0469 
 627   0.0000       2.723276        74.1041 
 628   0.0000       2.744074        74.6701 
 629   0.0000       2.749297        74.8122 
 630   0.0000       2.758615        75.0657 
 631   0.0000       2.770665        75.3936 
 632   0.0000       2.777564        75.5814 
 633   0.0000       2.787092        75.8406 
 634   0.0000       2.791248        75.9537 
 635   0.0000       2.801161        76.2235 
 636   0.0000       2.819985        76.7357 
 637   0.0000       2.826390        76.9100 
 638   0.0000       2.840519        77.2944 
 639   0.0000       2.848612        77.5147 
 640   0.0000       2.872688        78.1698 
 641   0.0000       2.878492        78.3277 
 642   0.0000       2.886700        78.5511 
 643   0.0000       2.898891        78.8828 
 644   0.0000       2.909761        79.1786 
 645   0.0000       2.927481        79.6608 
 646   0.0000       2.940380        80.0118 
 647   0.0000       2.942056        80.0574 
 648   0.0000       2.955712        80.4290 
 649   0.0000       2.969914        80.8155 
 650   0.0000       2.977666        81.0264 
 651   0.0000       2.989041        81.3359 
 652   0.0000       3.036834        82.6365 
 653   0.0000       3.043975        82.8308 
 654   0.0000       3.053307        83.0847 
 655   0.0000       3.074846        83.6708 
 656   0.0000       3.092725        84.1573 
 657   0.0000       3.094008        84.1922 
 658   0.0000       3.109645        84.6177 
 659   0.0000       3.127148        85.0940 
 660   0.0000       3.138155        85.3935 
 661   0.0000       3.153280        85.8051 
 662   0.0000       3.172534        86.3290 
 663   0.0000       3.176921        86.4484 
 664   0.0000       3.185024        86.6689 
 665   0.0000       3.193768        86.9069 
 666   0.0000       3.213248        87.4369 
 667   0.0000       3.220984        87.6474 
 668   0.0000       3.226137        87.7877 
 669   0.0000       3.245284        88.3087 
 670   0.0000       3.249863        88.4333 
 671   0.0000       3.259476        88.6949 
 672   0.0000       3.269130        88.9575 
 673   0.0000       3.279637        89.2435 
 674   0.0000       3.294887        89.6584 
 675   0.0000       3.296714        89.7082 
 676   0.0000       3.303687        89.8979 
 677   0.0000       3.314144        90.1825 
 678   0.0000       3.321730        90.3889 
 679   0.0000       3.332070        90.6702 
 680   0.0000       3.338685        90.8502 
 681   0.0000       3.349414        91.1422 
 682   0.0000       3.354278        91.2745 
 683   0.0000       3.365915        91.5912 
 684   0.0000       3.386224        92.1438 
 685   0.0000       3.388039        92.1932 
 686   0.0000       3.395438        92.3946 
 687   0.0000       3.400095        92.5213 
 688   0.0000       3.427409        93.2645 
 689   0.0000       3.435029        93.4719 
 690   0.0000       3.442885        93.6857 
 691   0.0000       3.447359        93.8074 
 692   0.0000       3.462185        94.2108 
 693   0.0000       3.470060        94.4251 
 694   0.0000       3.478273        94.6486 
 695   0.0000       3.491876        95.0188 
 696   0.0000       3.497177        95.1630 
 697   0.0000       3.502594        95.3104 
 698   0.0000       3.511366        95.5491 
 699   0.0000       3.514417        95.6322 
 700   0.0000       3.518545        95.7445 
 701   0.0000       3.539739        96.3212 
 702   0.0000       3.544965        96.4634 
 703   0.0000       3.554652        96.7270 
 704   0.0000       3.565185        97.0136 
 705   0.0000       3.567630        97.0801 
 706   0.0000       3.572452        97.2114 
 707   0.0000       3.580619        97.4336 
 708   0.0000       3.588826        97.6569 
 709   0.0000       3.593853        97.7937 
 710   0.0000       3.613986        98.3416 
 711   0.0000       3.620332        98.5142 
 712   0.0000       3.628791        98.7444 
 713   0.0000       3.639879        99.0461 
 714   0.0000       3.649102        99.2971 
 715   0.0000       3.659301        99.5746 
 716   0.0000       3.662353        99.6577 
 717   0.0000       3.672676        99.9386 
 718   0.0000       3.683480       100.2326 
 719   0.0000       3.687924       100.3535 
 720   0.0000       3.698058       100.6293 
 721   0.0000       3.702281       100.7442 
 722   0.0000       3.704656       100.8088 
 723   0.0000       3.710093       100.9568 
 724   0.0000       3.718021       101.1725 
 725   0.0000       3.723530       101.3224 
 726   0.0000       3.736643       101.6792 
 727   0.0000       3.743547       101.8671 
 728   0.0000       3.754340       102.1608 
 729   0.0000       3.757667       102.2513 
 730   0.0000       3.766878       102.5020 
 731   0.0000       3.778492       102.8180 
 732   0.0000       3.784097       102.9705 
 733   0.0000       3.794566       103.2554 
 734   0.0000       3.798234       103.3552 
 735   0.0000       3.803642       103.5024 
 736   0.0000       3.815609       103.8280 
 737   0.0000       3.820137       103.9512 
 738   0.0000       3.828875       104.1890 
 739   0.0000       3.834061       104.3301 
 740   0.0000       3.840560       104.5070 
 741   0.0000       3.846604       104.6714 
 742   0.0000       3.851813       104.8132 
 743   0.0000       3.858251       104.9884 
 744   0.0000       3.872329       105.3714 
 745   0.0000       3.874990       105.4438 
 746   0.0000       3.887719       105.7902 
 747   0.0000       3.894917       105.9861 
 748   0.0000       3.897694       106.0617 
 749   0.0000       3.904127       106.2367 
 750   0.0000       3.912318       106.4596 
 751   0.0000       3.918422       106.6257 
 752   0.0000       3.925255       106.8116 
 753   0.0000       3.930928       106.9660 
 754   0.0000       3.934952       107.0755 
 755   0.0000       3.942442       107.2793 
 756   0.0000       3.945151       107.3530 
 757   0.0000       3.950131       107.4885 
 758   0.0000       3.960783       107.7784 
 759   0.0000       3.971638       108.0738 
 760   0.0000       3.975840       108.1881 
 761   0.0000       3.980451       108.3136 
 762   0.0000       3.992944       108.6535 
 763   0.0000       4.008378       109.0735 
 764   0.0000       4.010365       109.1276 
 765   0.0000       4.018302       109.3436 
 766   0.0000       4.027206       109.5858 
 767   0.0000       4.029270       109.6420 
 768   0.0000       4.034326       109.7796 
 769   0.0000       4.041039       109.9623 
 770   0.0000       4.054438       110.3269 
 771   0.0000       4.058641       110.4412 
 772   0.0000       4.068685       110.7146 
 773   0.0000       4.077823       110.9632 
 774   0.0000       4.078234       110.9744 
 775   0.0000       4.085568       111.1740 
 776   0.0000       4.092768       111.3699 
 777   0.0000       4.099007       111.5397 
 778   0.0000       4.110241       111.8453 
 779   0.0000       4.117544       112.0441 
 780   0.0000       4.123970       112.2189 
 781   0.0000       4.134111       112.4949 
 782   0.0000       4.147713       112.8650 
 783   0.0000       4.157413       113.1289 
 784   0.0000       4.165715       113.3549 
 785   0.0000       4.174365       113.5902 
 786   0.0000       4.179384       113.7268 
 787   0.0000       4.188371       113.9714 
 788   0.0000       4.206967       114.4774 
 789   0.0000       4.207782       114.4996 
 790   0.0000       4.221615       114.8760 
 791   0.0000       4.224564       114.9562 
 792   0.0000       4.230372       115.1143 
 793   0.0000       4.248555       115.6090 
 794   0.0000       4.254680       115.7757 
 795   0.0000       4.266244       116.0904 
 796   0.0000       4.267643       116.1285 
 797   0.0000       4.273830       116.2968 
 798   0.0000       4.276298       116.3640 
 799   0.0000       4.288620       116.6993 
 800   0.0000       4.294236       116.8521 
 801   0.0000       4.307900       117.2239 
 802   0.0000       4.318541       117.5135 
 803   0.0000       4.322582       117.6234 
 804   0.0000       4.325992       117.7162 
 805   0.0000       4.345721       118.2531 
 806   0.0000       4.350011       118.3698 
 807   0.0000       4.361463       118.6814 
 808   0.0000       4.372316       118.9768 
 809   0.0000       4.381112       119.2161 
 810   0.0000       4.395269       119.6014 
 811   0.0000       4.402417       119.7958 
 812   0.0000       4.407701       119.9397 
 813   0.0000       4.425775       120.4315 
 814   0.0000       4.427912       120.4896 
 815   0.0000       4.432327       120.6097 
 816   0.0000       4.443722       120.9198 
 817   0.0000       4.458445       121.3204 
 818   0.0000       4.473835       121.7392 
 819   0.0000       4.478240       121.8591 
 820   0.0000       4.485887       122.0672 
 821   0.0000       4.493360       122.2705 
 822   0.0000       4.493840       122.2836 
 823   0.0000       4.503601       122.5492 
 824   0.0000       4.509997       122.7233 
 825   0.0000       4.527413       123.1972 
 826   0.0000       4.530366       123.2775 
 827   0.0000       4.541005       123.5670 
 828   0.0000       4.549453       123.7969 
 829   0.0000       4.559339       124.0659 
 830   0.0000       4.570576       124.3717 
 831   0.0000       4.581389       124.6659 
 832   0.0000       4.590111       124.9033 
 833   0.0000       4.604612       125.2979 
 834   0.0000       4.629832       125.9841 
 835   0.0000       4.634282       126.1052 
 836   0.0000       4.644370       126.3797 
 837   0.0000       4.660093       126.8076 
 838   0.0000       4.663255       126.8936 
 839   0.0000       4.675999       127.2404 
 840   0.0000       4.677781       127.2889 
 841   0.0000       4.689329       127.6031 
 842   0.0000       4.698447       127.8513 
 843   0.0000       4.704503       128.0160 
 844   0.0000       4.736824       128.8955 
 845   0.0000       4.750696       129.2730 
 846   0.0000       4.768181       129.7488 
 847   0.0000       4.771776       129.8466 
 848   0.0000       4.784119       130.1825 
 849   0.0000       4.791024       130.3704 
 850   0.0000       4.797240       130.5395 
 851   0.0000       4.821333       131.1951 
 852   0.0000       4.825065       131.2967 
 853   0.0000       4.832513       131.4994 
 854   0.0000       4.838396       131.6594 
 855   0.0000       4.848667       131.9389 
 856   0.0000       4.866667       132.4287 
 857   0.0000       4.872309       132.5823 
 858   0.0000       4.882073       132.8480 
 859   0.0000       4.890257       133.0707 
 860   0.0000       4.901319       133.3717 
 861   0.0000       4.917510       133.8122 
 862   0.0000       4.928567       134.1131 
 863   0.0000       4.936868       134.3390 
 864   0.0000       4.946043       134.5887 
 865   0.0000       4.955042       134.8335 
 866   0.0000       4.975056       135.3781 
 867   0.0000       4.979359       135.4952 
 868   0.0000       4.999392       136.0404 
 869   0.0000       5.012603       136.3999 
 870   0.0000       5.015332       136.4741 
 871   0.0000       5.028057       136.8204 
 872   0.0000       5.038647       137.1085 
 873   0.0000       5.048769       137.3840 
 874   0.0000       5.067166       137.8846 
 875   0.0000       5.082887       138.3124 
 876   0.0000       5.088408       138.4626 
 877   0.0000       5.099279       138.7584 
 878   0.0000       5.110970       139.0766 
 879   0.0000       5.127537       139.5274 
 880   0.0000       5.140073       139.8685 
 881   0.0000       5.155638       140.2921 
 882   0.0000       5.164053       140.5210 
 883   0.0000       5.173113       140.7676 
 884   0.0000       5.193168       141.3133 
 885   0.0000       5.210655       141.7891 
 886   0.0000       5.211983       141.8253 
 887   0.0000       5.225857       142.2028 
 888   0.0000       5.234156       142.4286 
 889   0.0000       5.255340       143.0051 
 890   0.0000       5.260963       143.1581 
 891   0.0000       5.273014       143.4860 
 892   0.0000       5.284494       143.7984 
 893   0.0000       5.305132       144.3600 
 894   0.0000       5.323422       144.8577 
 895   0.0000       5.330292       145.0446 
 896   0.0000       5.341773       145.3570 
 897   0.0000       5.355696       145.7359 
 898   0.0000       5.367656       146.0613 
 899   0.0000       5.370611       146.1417 
 900   0.0000       5.391397       146.7074 
 901   0.0000       5.401076       146.9707 
 902   0.0000       5.403200       147.0286 
 903   0.0000       5.415131       147.3532 
 904   0.0000       5.430153       147.7620 
 905   0.0000       5.436875       147.9449 
 906   0.0000       5.446477       148.2062 
 907   0.0000       5.447489       148.2337 
 908   0.0000       5.460460       148.5867 
 909   0.0000       5.476396       149.0203 
 910   0.0000       5.487926       149.3341 
 911   0.0000       5.510756       149.9553 
 912   0.0000       5.533165       150.5651 
 913   0.0000       5.544805       150.8818 
 914   0.0000       5.557711       151.2330 
 915   0.0000       5.565004       151.4315 
 916   0.0000       5.578802       151.8069 
 917   0.0000       5.584287       151.9562 
 918   0.0000       5.604561       152.5079 
 919   0.0000       5.616615       152.8359 
 920   0.0000       5.623389       153.0202 
 921   0.0000       5.630521       153.2143 
 922   0.0000       5.642509       153.5405 
 923   0.0000       5.654181       153.8581 
 924   0.0000       5.668411       154.2453 
 925   0.0000       5.675489       154.4379 
 926   0.0000       5.679100       154.5362 
 927   0.0000       5.700545       155.1197 
 928   0.0000       5.713425       155.4702 
 929   0.0000       5.728286       155.8746 
 930   0.0000       5.736549       156.0994 
 931   0.0000       5.743647       156.2926 
 932   0.0000       5.760505       156.7513 
 933   0.0000       5.767346       156.9375 
 934   0.0000       5.784099       157.3933 
 935   0.0000       5.793137       157.6393 
 936   0.0000       5.804606       157.9514 
 937   0.0000       5.831776       158.6907 
 938   0.0000       5.833137       158.7277 
 939   0.0000       5.844948       159.0491 
 940   0.0000       5.854675       159.3138 
 941   0.0000       5.865854       159.6180 
 942   0.0000       5.911269       160.8538 
 943   0.0000       5.917010       161.0100 
 944   0.0000       5.942397       161.7009 
 945   0.0000       5.988097       162.9444 
 946   0.0000       6.065564       165.0524 
 947   0.0000       6.082586       165.5156 
 948   0.0000       6.110699       166.2806 
 949   0.0000       6.130899       166.8302 
 950   0.0000       6.154508       167.4727 
 951   0.0000       6.173334       167.9850 
 952   0.0000       6.191452       168.4780 
 953   0.0000       6.204647       168.8370 
 954   0.0000       6.212930       169.0624 
 955   0.0000       6.223338       169.3456 
 956   0.0000       6.237014       169.7178 
 957   0.0000       6.257081       170.2638 
 958   0.0000       6.277244       170.8125 
 959   0.0000       6.317196       171.8996 
 960   0.0000       6.325368       172.1220 
 961   0.0000       6.344599       172.6453 
 962   0.0000       6.357513       172.9967 
 963   0.0000       6.380094       173.6112 
 964   0.0000       6.389348       173.8630 
 965   0.0000       6.402847       174.2303 
 966   0.0000       6.440574       175.2569 
 967   0.0000       6.457225       175.7100 
 968   0.0000       6.495035       176.7389 
 969   0.0000       6.517961       177.3627 
 970   0.0000       6.611790       179.9159 
 971   0.0000       6.738301       183.3585 
 972   0.0000       6.839238       186.1051 
 973   0.0000       6.855086       186.5364 
 974   0.0000       6.887037       187.4058 
 975   0.0000       6.922672       188.3755 
 976   0.0000       6.939109       188.8227 
 977   0.0000       6.977860       189.8772 
 978   0.0000       6.980426       189.9471 
 979   0.0000       6.990646       190.2252 
 980   0.0000       7.000239       190.4862 
 981   0.0000       7.041529       191.6097 
 982   0.0000       7.078340       192.6114 
 983   0.0000       7.091331       192.9649 
 984   0.0000       7.154754       194.6907 
 985   0.0000       7.203793       196.0252 
 986   0.0000       7.336730       199.6426 
 987   0.0000       7.370261       200.5550 
 988   0.0000       7.469747       203.2621 
 989   0.0000       7.512023       204.4125 
 990   0.0000       7.558883       205.6877 
 991   0.0000       7.664054       208.5495 
 992   0.0000       7.692515       209.3240 
 993   0.0000       7.772305       211.4952 
 994   0.0000       7.835120       213.2044 
 995   0.0000       7.916214       215.4111 
 996   0.0000       8.040921       218.8046 
 997   0.0000       8.105796       220.5699 
 998   0.0000       8.353967       227.3230 
 999   0.0000       9.435287       256.7472 
 1000   0.0000       9.452991       257.2290 
 1001   0.0000       9.470539       257.7065 
 1002   0.0000       9.476935       257.8805 
 1003   0.0000       9.491105       258.2661 
 1004   0.0000       9.526150       259.2197 
 1005   0.0000       9.752519       265.3795 
 1006   0.0000      10.104245       274.9505 
 1007   0.0000      10.127692       275.5885 
 1008   0.0000      10.143799       276.0268 
 1009   0.0000      10.220519       278.1145 
 1010   0.0000      10.230176       278.3773 
 1011   0.0000      10.252553       278.9862 
 1012   0.0000      10.396493       282.9030 
 1013   0.0000      10.436459       283.9905 
 1014   0.0000      10.555991       287.2431 
 1015   0.0000      15.453679       420.5160 
 1016   0.0000      17.599504       478.9069 
 1017   0.0000      18.354414       499.4490 
 1018   0.0000      18.468066       502.5416 
 1019   0.0000      18.693895       508.6867 
 1020   0.0000      18.928990       515.0840 
 1021   0.0000      19.093627       519.5640 
 1022   0.0000      20.231976       550.5401 
 1023   0.0000      20.517212       558.3017 
 1024   0.0000      21.938269       596.9707 

                 SPIN DOWN ORBITALS
  NO   OCC          E(Eh)            E(eV) 
   0   1.0000    -261.548252     -7117.0898 
   1   1.0000    -104.777015     -2851.1275 
   2   1.0000    -104.773295     -2851.0263 
   3   1.0000    -104.771900     -2850.9883 
   4   1.0000     -32.057621      -872.3322 
   5   1.0000     -27.535671      -749.2837 
   6   1.0000     -27.535536      -749.2800 
   7   1.0000     -27.535077      -749.2675 
   8   1.0000     -20.549598      -559.1830 
   9   1.0000     -11.385239      -309.8081 
  10   1.0000     -11.362317      -309.1844 
  11   1.0000     -11.279091      -306.9197 
  12   1.0000     -11.278105      -306.8928 
  13   1.0000     -11.262279      -306.4622 
  14   1.0000     -11.254727      -306.2567 
  15   1.0000     -11.254409      -306.2480 
  16   1.0000     -11.246785      -306.0406 
  17   1.0000     -10.503512      -285.8151 
  18   1.0000     -10.499772      -285.7133 
  19   1.0000     -10.498400      -285.6760 
  20   1.0000      -7.969362      -216.8574 
  21   1.0000      -7.968897      -216.8447 
  22   1.0000      -7.968821      -216.8426 
  23   1.0000      -7.965749      -216.7591 
  24   1.0000      -7.965050      -216.7400 
  25   1.0000      -7.964962      -216.7376 
  26   1.0000      -7.964338      -216.7207 
  27   1.0000      -7.963643      -216.7017 
  28   1.0000      -7.963563      -216.6996 
  29   1.0000      -4.132711      -112.4568 
  30   1.0000      -2.654503       -72.2327 
  31   1.0000      -2.654457       -72.2315 
  32   1.0000      -2.653573       -72.2074 
  33   1.0000      -1.383282       -37.6410 
  34   1.0000      -1.177513       -32.0417 
  35   1.0000      -1.081406       -29.4266 
  36   1.0000      -1.042394       -28.3650 
  37   1.0000      -1.034673       -28.1549 
  38   1.0000      -1.023041       -27.8384 
  39   1.0000      -1.019999       -27.7556 
  40   1.0000      -1.000778       -27.2325 
  41   1.0000      -0.980199       -26.6726 
  42   1.0000      -0.929459       -25.2919 
  43   1.0000      -0.798046       -21.7159 
  44   1.0000      -0.766546       -20.8588 
  45   1.0000      -0.699889       -19.0450 
  46   1.0000      -0.690646       -18.7934 
  47   1.0000      -0.674981       -18.3672 
  48   1.0000      -0.655428       -17.8351 
  49   1.0000      -0.648021       -17.6336 
  50   1.0000      -0.626043       -17.0355 
  51   1.0000      -0.598842       -16.2953 
  52   1.0000      -0.596165       -16.2225 
  53   1.0000      -0.588047       -16.0016 
  54   1.0000      -0.577440       -15.7129 
  55   1.0000      -0.574699       -15.6384 
  56   1.0000      -0.562157       -15.2971 
  57   1.0000      -0.554387       -15.0856 
  58   1.0000      -0.548586       -14.9278 
  59   1.0000      -0.532911       -14.5012 
  60   1.0000      -0.526636       -14.3305 
  61   1.0000      -0.504888       -13.7387 
  62   1.0000      -0.474071       -12.9001 
  63   1.0000      -0.466922       -12.7056 
  64   1.0000      -0.462595       -12.5879 
  65   1.0000      -0.438214       -11.9244 
  66   1.0000      -0.435231       -11.8432 
  67   1.0000      -0.433486       -11.7957 
  68   1.0000      -0.422259       -11.4903 
  69   1.0000      -0.413420       -11.2497 
  70   1.0000      -0.400454       -10.8969 
  71   1.0000      -0.386055       -10.5051 
  72   0.0000       0.008185         0.2227 
  73   0.0000       0.019158         0.5213 
  74   0.0000       0.021044         0.5726 
  75   0.0000       0.024751         0.6735 
  76   0.0000       0.031282         0.8512 
  77   0.0000       0.038142         1.0379 
  78   0.0000       0.039992         1.0882 
  79   0.0000       0.044334         1.2064 
  80   0.0000       0.045509         1.2384 
  81   0.0000       0.046565         1.2671 
  82   0.0000       0.056817         1.5461 
  83   0.0000       0.059164         1.6099 
  84   0.0000       0.061742         1.6801 
  85   0.0000       0.064861         1.7650 
  86   0.0000       0.065941         1.7943 
  87   0.0000       0.071743         1.9522 
  88   0.0000       0.074887         2.0378 
  89   0.0000       0.078562         2.1378 
  90   0.0000       0.088928         2.4199 
  91   0.0000       0.089491         2.4352 
  92   0.0000       0.093935         2.5561 
  93   0.0000       0.096063         2.6140 
  94   0.0000       0.099247         2.7006 
  95   0.0000       0.100712         2.7405 
  96   0.0000       0.109280         2.9737 
  97   0.0000       0.113451         3.0872 
  98   0.0000       0.121242         3.2992 
  99   0.0000       0.121751         3.3130 
 100   0.0000       0.122469         3.3326 
 101   0.0000       0.123865         3.3705 
 102   0.0000       0.125188         3.4065 
 103   0.0000       0.125456         3.4138 
 104   0.0000       0.128874         3.5068 
 105   0.0000       0.130127         3.5409 
 106   0.0000       0.132676         3.6103 
 107   0.0000       0.133656         3.6370 
 108   0.0000       0.136027         3.7015 
 109   0.0000       0.138248         3.7619 
 110   0.0000       0.139143         3.7863 
 111   0.0000       0.140285         3.8173 
 112   0.0000       0.144977         3.9450 
 113   0.0000       0.148372         4.0374 
 114   0.0000       0.152276         4.1436 
 115   0.0000       0.155579         4.2335 
 116   0.0000       0.159259         4.3337 
 117   0.0000       0.164341         4.4720 
 118   0.0000       0.164876         4.4865 
 119   0.0000       0.167633         4.5615 
 120   0.0000       0.169793         4.6203 
 121   0.0000       0.174076         4.7369 
 122   0.0000       0.176562         4.8045 
 123   0.0000       0.180127         4.9015 
 124   0.0000       0.183782         5.0010 
 125   0.0000       0.189733         5.1629 
 126   0.0000       0.190903         5.1947 
 127   0.0000       0.199113         5.4181 
 128   0.0000       0.200152         5.4464 
 129   0.0000       0.202021         5.4973 
 130   0.0000       0.205890         5.6026 
 131   0.0000       0.208609         5.6765 
 132   0.0000       0.210264         5.7216 
 133   0.0000       0.213957         5.8221 
 134   0.0000       0.216948         5.9035 
 135   0.0000       0.221459         6.0262 
 136   0.0000       0.227045         6.1782 
 137   0.0000       0.228813         6.2263 
 138   0.0000       0.229416         6.2427 
 139   0.0000       0.235452         6.4070 
 140   0.0000       0.237038         6.4501 
 141   0.0000       0.241481         6.5710 
 142   0.0000       0.245180         6.6717 
 143   0.0000       0.248416         6.7597 
 144   0.0000       0.249151         6.7797 
 145   0.0000       0.253310         6.8929 
 146   0.0000       0.255050         6.9403 
 147   0.0000       0.258955         7.0465 
 148   0.0000       0.264125         7.1872 
 149   0.0000       0.271881         7.3983 
 150   0.0000       0.274729         7.4758 
 151   0.0000       0.276998         7.5375 
 152   0.0000       0.280745         7.6395 
 153   0.0000       0.286505         7.7962 
 154   0.0000       0.288318         7.8455 
 155   0.0000       0.289393         7.8748 
 156   0.0000       0.298535         8.1236 
 157   0.0000       0.301819         8.2129 
 158   0.0000       0.303999         8.2722 
 159   0.0000       0.307851         8.3770 
 160   0.0000       0.309008         8.4085 
 161   0.0000       0.316967         8.6251 
 162   0.0000       0.324656         8.8343 
 163   0.0000       0.325849         8.8668 
 164   0.0000       0.330855         9.0030 
 165   0.0000       0.332226         9.0403 
 166   0.0000       0.336591         9.1591 
 167   0.0000       0.342735         9.3263 
 168   0.0000       0.344452         9.3730 
 169   0.0000       0.348236         9.4760 
 170   0.0000       0.352761         9.5991 
 171   0.0000       0.356339         9.6965 
 172   0.0000       0.360548         9.8110 
 173   0.0000       0.362031         9.8514 
 174   0.0000       0.363340         9.8870 
 175   0.0000       0.369151        10.0451 
 176   0.0000       0.371897        10.1198 
 177   0.0000       0.374679        10.1955 
 178   0.0000       0.379393        10.3238 
 179   0.0000       0.385213        10.4822 
 180   0.0000       0.388824        10.5804 
 181   0.0000       0.391189        10.6448 
 182   0.0000       0.392024        10.6675 
 183   0.0000       0.393532        10.7085 
 184   0.0000       0.397623        10.8199 
 185   0.0000       0.399677        10.8758 
 186   0.0000       0.402337        10.9481 
 187   0.0000       0.404273        11.0008 
 188   0.0000       0.405718        11.0402 
 189   0.0000       0.417083        11.3494 
 190   0.0000       0.419037        11.4026 
 191   0.0000       0.419364        11.4115 
 192   0.0000       0.424648        11.5553 
 193   0.0000       0.428499        11.6601 
 194   0.0000       0.431755        11.7487 
 195   0.0000       0.436288        11.8720 
 196   0.0000       0.438027        11.9193 
 197   0.0000       0.443115        12.0578 
 198   0.0000       0.448686        12.2094 
 199   0.0000       0.453704        12.3459 
 200   0.0000       0.455270        12.3885 
 201   0.0000       0.457440        12.4476 
 202   0.0000       0.463427        12.6105 
 203   0.0000       0.467546        12.7226 
 204   0.0000       0.471382        12.8270 
 205   0.0000       0.475363        12.9353 
 206   0.0000       0.479393        13.0449 
 207   0.0000       0.480321        13.0702 
 208   0.0000       0.486359        13.2345 
 209   0.0000       0.488934        13.3046 
 210   0.0000       0.489164        13.3108 
 211   0.0000       0.490354        13.3432 
 212   0.0000       0.495435        13.4815 
 213   0.0000       0.497439        13.5360 
 214   0.0000       0.500299        13.6138 
 215   0.0000       0.501944        13.6586 
 216   0.0000       0.504881        13.7385 
 217   0.0000       0.511243        13.9116 
 218   0.0000       0.513639        13.9768 
 219   0.0000       0.516025        14.0418 
 220   0.0000       0.520739        14.1700 
 221   0.0000       0.525147        14.2900 
 222   0.0000       0.526560        14.3284 
 223   0.0000       0.528768        14.3885 
 224   0.0000       0.532256        14.4834 
 225   0.0000       0.535930        14.5834 
 226   0.0000       0.539371        14.6770 
 227   0.0000       0.541870        14.7450 
 228   0.0000       0.545654        14.8480 
 229   0.0000       0.553793        15.0695 
 230   0.0000       0.554698        15.0941 
 231   0.0000       0.559116        15.2143 
 232   0.0000       0.561706        15.2848 
 233   0.0000       0.564626        15.3642 
 234   0.0000       0.569335        15.4924 
 235   0.0000       0.572184        15.5699 
 236   0.0000       0.573613        15.6088 
 237   0.0000       0.576627        15.6908 
 238   0.0000       0.583585        15.8802 
 239   0.0000       0.587079        15.9752 
 240   0.0000       0.591785        16.1033 
 241   0.0000       0.595663        16.2088 
 242   0.0000       0.597118        16.2484 
 243   0.0000       0.603954        16.4344 
 244   0.0000       0.605237        16.4693 
 245   0.0000       0.607135        16.5210 
 246   0.0000       0.609089        16.5741 
 247   0.0000       0.616876        16.7861 
 248   0.0000       0.618751        16.8371 
 249   0.0000       0.625234        17.0135 
 250   0.0000       0.630634        17.1604 
 251   0.0000       0.633818        17.2471 
 252   0.0000       0.635641        17.2967 
 253   0.0000       0.641594        17.4587 
 254   0.0000       0.644021        17.5247 
 255   0.0000       0.647670        17.6240 
 256   0.0000       0.650226        17.6935 
 257   0.0000       0.657070        17.8798 
 258   0.0000       0.661310        17.9952 
 259   0.0000       0.662638        18.0313 
 260   0.0000       0.665195        18.1009 
 261   0.0000       0.671044        18.2600 
 262   0.0000       0.675794        18.3893 
 263   0.0000       0.683278        18.5929 
 264   0.0000       0.684149        18.6166 
 265   0.0000       0.693675        18.8758 
 266   0.0000       0.694572        18.9003 
 267   0.0000       0.697890        18.9906 
 268   0.0000       0.701713        19.0946 
 269   0.0000       0.705350        19.1936 
 270   0.0000       0.712704        19.3937 
 271   0.0000       0.715608        19.4727 
 272   0.0000       0.719867        19.5886 
 273   0.0000       0.729023        19.8377 
 274   0.0000       0.730461        19.8769 
 275   0.0000       0.733553        19.9610 
 276   0.0000       0.737996        20.0819 
[...]
  | sigma^2 in % of trace(Dij) retained ...   8.79e+00
  | sigma^2 in % of trace(Dip) retained ...   1.69e+01
  | sigma^2 in % of trace(Dpq) retained ...   1.43e-01
  | Av. % of trace(Di) retained         ...  99.998511814350
  | Av. % of trace(Dp) retained         ...  99.999999200725
  | sigma^2 in % of trace(Di) retained  ...   7.54e-07
  | sigma^2 in % of trace(Dp) retained  ...   1.86e-12
 Distributions of % trace(Dij) recovered:
  |       >= 99.9  ...   103 ( 20.0 % of all IJ-pairs)
  |   [80.0, 90.0) ...    38 (  7.4 % of all IJ-pairs)
  |   [90.0, 99.0) ...   278 ( 54.0 % of all IJ-pairs)
  |   [99.0, 99.9) ...    96 ( 18.6 % of all IJ-pairs)
 Distributions of % trace(Dip) recovered:
  |   [80.0, 90.0) ...    11 (  9.2 % of all IP-pairs)
  |   [90.0, 99.0) ...    66 ( 55.5 % of all IP-pairs)
  |   [99.0, 99.9) ...    42 ( 35.3 % of all IP-pairs)
 Distributions of % trace(Dpq) recovered:
  |       >= 99.9  ...     5 ( 33.3 % of all PQ-pairs)
  |   [99.0, 99.9) ...    10 ( 66.7 % of all PQ-pairs)
 Distributions of % trace(Di) recovered :
  |       >= 99.9  ...    43 (100.0 % of all I-pairs )
 Distributions of % trace(Dp) recovered :
  |       >= 99.9  ...     5 (100.0 % of all P-pairs )

                       ===========================
                       1131 OF 1707 PAIRS ARE KEPT
                       ===========================

 Initial PAO correlation energy (all pairs)    ...  -2.6963392213 Eh
 Energy constituents in PAO basis (Eh):
  | Vijab(+0) ...  -2.2672522288
  | Viab (-1) ...  -0.1752229382
  | Vab  (-2) ...  -0.0573655704
  | Va   (-1) ...  -0.0000412656
  | Vija (+1) ...  -0.0726205276
  | Vij  (+2) ...  -0.0154908158
  | Via  (+0) ...  -0.1081879683
  | Vi   (+1) ...  -0.0001579066
 Initial PNO correlation energy                ...  -2.6617465445 Eh
 Energy constituents in PNO basis (Eh):
  | Vijab(+0) ...  -2.2486241584 (err=  0.0186280705)
  | Viab (-1) ...  -0.1609927322 (err=  0.0142302060)
  | Vab  (-2) ...  -0.0568771735 (err=  0.0004883969)
  | Va   (-1) ...  -0.0000237751 (err=  0.0000174905)
  | Vija (+1) ...  -0.0715525316 (err=  0.0010679960)
  | Vij  (+2) ...  -0.0154294593 (err=  0.0000613565)
  | Via  (+0) ...  -0.1080891100 (err=  0.0000988583)
  | Vi   (+1) ...  -0.0001576044 (err=  0.0000003022)
 Sum of total truncation errors ...   0.0345926768 Eh
  | Pair screening ...   0.0114343481 Eh
  | PNO truncation ...   0.0231583288 Eh

 UMP2 correlation energy (PAO) ...  -2.6914909030
  | alpha-alpha ...  -0.3873554292 (NP_aa=  925)
  | alpha-beta  ...  -1.9963865247 (NP_ab= 1682)
  | beta -beta  ...  -0.3077489491 (NP_bb=  724)
 UMP2 correlation energy (PNO) ...  -2.6565189573
  | alpha-alpha ...  -0.3752885888 (err=  0.0120668404, NP_aa=  601)
  | alpha-beta  ...  -1.9775678793 (err=  0.0188186454, NP_ab= 1106)
  | beta -beta  ...  -0.3036624892 (err=  0.0040864599, NP_bb=  472)
 Sum of total UMP2 truncation errors ...   0.0349719457 Eh
  | Pair screening ...   0.0114559102 Eh
  | PNO truncation ...   0.0235160355 Eh
 Timing for NEV-PNO construction (sec.)
  | Intermediate construction  ..           47.500
  | Amplitude construction     ..           68.928
  | Total time                 ..          116.427
 Making pair pair interaction lists ...      ok
 Total size for 2-ext PNO integrals ...     11.1 MB
Checking the number of SOMO/SOMO doubles PNOs ... 
 #Truncate: (72, 72)[170] -> [85] .. 
 #Truncate: (73, 73)[173] -> [85] .. 
 #Truncate: (74, 74)[171] -> [85] .. 
 #Truncate: (75, 75)[170] -> [85] .. 
 #Truncate: (76, 76)[172] -> [85] .. 

--------------------------------
LOCAL RI TRANSFORMATION (VABPAO)
--------------------------------

Number of PAOs:    1030
Basis functions:   1025 (343 shells)
Aux. functions:    2424 (644 shells)

Processing maps (0.0 sec)
Average map sizes:
   Aux shells -> PAOs           1030.0
   PAOs       -> AO shells       343.0

Calculating integrals (205.2 sec, 37370.165 MB)
Finished
-----------------------------
LOCAL RI TRANSFORMATION (IJV)
-----------------------------

Orbital window:      29 to 76
Basis functions:   1025 (343 shells)
Aux. functions:    2424 (644 shells)

Processing maps (0.0 sec)
Average map sizes:
   Aux shells -> MOs(i)           46.8
   Aux shells -> MOs(j)           48.0
   MOs        -> AO shells       339.6

Calculating integrals (23.4 sec, 41.667 MB)
Sorting integrals (0.3 sec, 41.640 MB)
Total time for the integral transformation: 24.0 sec


-------------------------------------
Pair Pair Term precalculation with     
RI-(ij|mn) and (im|jn) transformation  
ON THE FLY                             
-------------------------------------

   IBatch   1 (of   2)              ... done ( 1298.436 sec)
   IBatch   2 (of   2)              ... done ( 1013.292 sec)
Total EXT                           ...        2311.729 sec

---------------------
RI-PNO TRANSFORMATION
---------------------

Total Number of PNOs                   ... 35159
Total Number of IJ-PNOs                ... 30970
Total Number of IP-PNOs                ...  3244
Total Number of PQ-PNOs                ...   945
Total Number of IJ-pairs               ...   987
Total Number of PI-pairs               ...   119
Total Number of PQ-pairs               ...    25
Average number of PNOs per pair        ...    31
Maximal number of PNOs per pair        ...    85
>> Statistics for ij-pairs..
   #pairs with  1 -  5 PNOs   :    0
   #pairs with  6 - 10 PNOs   :    0
   #pairs with 11 - 15 PNOs   :   60
   #pairs with 16 - 20 PNOs   :  242
   #pairs with 21 - 25 PNOs   :  174
   #pairs with 26 - 30 PNOs   :  148
   #pairs with 31 - 35 PNOs   :   68
   #pairs with 36 - 40 PNOs   :   48
   #pairs with 41 - 45 PNOs   :   52
   #pairs with 46 - 50 PNOs   :   22
   #pairs with 51 - 55 PNOs   :   34
   #pairs with 56 - 60 PNOs   :   58
   #pairs with 61 - 65 PNOs   :   72
   #pairs with 66 - 70 PNOs   :    6
   #pairs with 76 - 80 PNOs   :    3
>> Statistics for ip-pairs..
   #pairs with  1 -  5 PNOs   :    0
   #pairs with  6 - 10 PNOs   :    2
   #pairs with 11 - 15 PNOs   :   16
   #pairs with 16 - 20 PNOs   :    5
   #pairs with 21 - 25 PNOs   :   25
   #pairs with 26 - 30 PNOs   :   11
   #pairs with 31 - 35 PNOs   :   48
   #pairs with 36 - 40 PNOs   :   12
   #pairs with 41 - 45 PNOs   :    0
   #pairs with 46 - 50 PNOs   :    0
>> Statistics for pq-pairs..
   #pairs with  1 -  5 PNOs   :    0
   #pairs with  6 - 10 PNOs   :    0
   #pairs with 11 - 15 PNOs   :    0
   #pairs with 16 - 20 PNOs   :    0
   #pairs with 21 - 25 PNOs   :   12
   #pairs with 26 - 30 PNOs   :    8
   #pairs with 31 - 35 PNOs   :    0
   #pairs with 36 - 40 PNOs   :    0
   #pairs with 41 - 45 PNOs   :    0
   #pairs with 46 - 50 PNOs   :    0
   #pairs with 81 - 85 PNOs   :    5

Generation of (ij|ab)[P] integrals            ... on
Generation of (ia|bc)[P],(ja|bc)[P] integrals ... on
Storage of 3 and 4 external integrals         ... on
Generation of ALL (ka|bc)[P] integrals        ... on
Keep RI integrals in memory                   ... off

Ibatch:  1 (of  1)
Starting 2-4 index PNO integral generation ... done

Timings:
Total PNO integral transformation time     ...       2444.141 sec
Size of the 3-external file                ...       290 MB
Size of the 4-external file                ...      1965 MB
Size of the IKJL file                      ...        19 MB
Size of the all 3-external file            ...      6969 MB
Size of the 1-external file                ...        22 MB

Size of the PAO/PNO coefficient matrices   ...     229.8 MB

Making pair/pair overlap matrices          ... done (  366.556 sec)
Size of the pair overlap file              ...    2514.0 MB
Total # unrestricted pairs ...       2179
  # of alpha-alpha pairs   ...        601
  # of alpha-beta pairs    ...       1106
  # of beta-beta pairs     ...        472
Constructing the guess amplitudes          ... done (    0.610 sec)

-------------------------
FINAL STARTUP INFORMATION
-------------------------

E(0)                                       ...  -3028.425417903
E(SL-UMP2 in NEV-PNO space)                ...     -2.692477939
Initial E(tot)                             ...  -3031.117895842
<T|T>                                      ...      0.535636856
Number of unrestricted pairs included      ... 2179
Total number of pairs                      ... 4095
----------------------------------------------------------
                     OPEN-SHELL COUPLED CLUSTER ITERATIONS
----------------------------------------------------------

Number of PNO amplitudes to be optimized        ...          2154044
Number of canonical amplitudes for strong pairs ...       1968091299
Untruncated number of canonical amplitudes      ...       3698645738

Iter       E(tot)           E(Corr)          Delta-E          Residual     Time
  0  -3031.125023303     -2.663646419      0.028831520      0.021579251 2072.84
                           *** Turning on DIIS ***
  1  -3031.237030624     -2.775653740     -0.112007321      0.008720422 2067.24
  2  -3031.301126565     -2.839749681     -0.064095941      0.008583061 2075.75
  3  -3031.321960040     -2.860583155     -0.020833475      0.003169076 2052.65
  4  -3031.328936978     -2.867560093     -0.006976938      0.002743975 2045.16
  5  -3031.332583602     -2.871206718     -0.003646625      0.001861817 2078.83
  6  -3031.333927818     -2.872550933     -0.001344215      0.000830800 2063.05
  7  -3031.334706971     -2.873330087     -0.000779154      0.000426243 2049.34
  8  -3031.334857871     -2.873480987     -0.000150900      0.000177912 2048.15
  9  -3031.334905175     -2.873528290     -0.000047303      0.000109130 2037.41
 10  -3031.334900554     -2.873523669      0.000004621      0.000074378 1833.90
 11  -3031.334909870     -2.873532985     -0.000009316      0.000052370 1758.78
 12  -3031.334915504     -2.873538619     -0.000005634      0.000023330 1755.86
 13  -3031.334917758     -2.873540873     -0.000002254      0.000014432 1761.09
 14  -3031.334918470     -2.873541585     -0.000000712      0.000008130 1758.74
               --- The CCSD iterations have converged ---

E(0)                                       ...  -3028.425417903
E(CORR)(strong-pairs)                      ...     -2.873541585
E(CORR)(weak-pairs)                        ...     -0.035958982
E(CORR)(corrected)                         ...     -2.909500567
E(TOT)                                     ...  -3031.334918470
Singles norm <S|S>**1/2                    ...      0.189768465 ( 0.064268654, 0.125499810)  
T1 diagnostic                              ...      0.019893140                              
<S**2>(linearized)                         ...      8.7507410 (ideal value:      8.7500000)

----------------------
LARGEST PNO AMPLITUDES
----------------------
  71a-> 77a  71b-> 77b       0.064712
  50b-> 76b  -1b-> -1b       0.056513
  71a-> 78a  71b-> 78b       0.054909
  51b-> 76b  -1b-> -1b       0.048766
  48b-> 72b  -1b-> -1b       0.048754
  48b-> 74b  -1b-> -1b       0.046758
  54a-> 77a  54b-> 77b       0.046199
  66a-> 77a  66b-> 77b       0.044666
  48b-> 75b  -1b-> -1b       0.044655
  62a-> 77a  62b-> 77b       0.044516
  70a-> 77a  70b-> 77b       0.043114
  58a-> 77a  58b-> 77b       0.042633
  61a-> 77a  61b-> 77b       0.042255
  29b-> 76b  -1b-> -1b       0.042223
  64a-> 77a  64b-> 77b       0.042172
  60a-> 77a  60b-> 77b       0.041973

Total # unrestricted pairs ...       1152
  # of alpha-alpha pairs   ...        324
  # of alpha-beta pairs    ...        576
  # of beta-beta pairs     ...        252

-------------------------------------------
DLPNO BASED TRIPLES CORRECTION
-------------------------------------------

Singles multiplier          ...  1.000000
Fragment selection                          .... not used
TCutTNO                     ... 1.000e-09
TCutMP2Pairs                ... 1.000e-05
TCutDOStrong                ... 2.000e-02
TCutMKNStrong               ... 1.000e-02
TCutDOWeak                  ... 4.000e-02
TCutMKNWeak                 ... 1.000e-01
NTCutTNO                    ... 1

Number of Triples that are to be computed         ...     35410

 . . . . . . . . .
10% done  
20% done  
30% done  
40% done  
50% done  
60% done  
70% done  
80% done  
90% done  
          Batch   1   done (  16461.171 sec)

Triples-Correction TCutTNO=   1.000e-09 (NWeakPairs = 0  1  2  3)  -0.117776163508   -0.001878308956    0.000000000000    0.000000000000
Triples-Correction  -0.119654472464

Triples timings:
Total time                      ... 17141.918 sec

Triples List generation         ...     0.000 sec
TNO generation                  ...   680.519 sec
Pair density generation         ...     0.086 sec
Look up tables                  ...     0.116 sec
Generating 3-index integrals    ... 10378.881 sec
Make 4-ind.int. from 3-ind.int  ...     3.694 sec
Projecting amplitudes (D + S)   ...  5817.758 sec
Sorting integrals for spin cases...    53.864 sec
Calculate W0/W1                 ...   168.188 sec
Energy contr. (sum over a,b,c)  ...    38.634 sec

Everything after 3-index        ...  6215.917 sec

Energy contribution AAA         ...    25.234 sec
Energy contribution AAB         ...   115.535 sec
Energy contribution ABB         ...   105.744 sec
Energy contribution BBB         ...    14.217 sec
prep                ...     3.223 sec
makeTTNO            ...  5759.205 sec
copyij              ...     0.132 sec
copyil              ...     4.200 sec
transposeij         ...     0.080 sec
newMatInDoubleProj  ...    54.703 sec
BlasInDoubleProj    ...  3108.693 sec
ProjSingles         ...    48.327 sec
ProjDoubles         ...  5769.430 sec
overall Doubles for projection      ... 3216420
used Doubles for projection         ... 3216420


Number of Triples   (0, 1, 2, 3 weak pairs; overall):  17161   12193       0       0  ( 29354)
Number of Atoms     (0, 1, 2, 3 weak pairs; overall):   20.3    15.0     0.0     0.0  (    29)
Number of PAOs      (0, 1, 2, 3 weak pairs; overall):  782.2   607.9     0.0     0.0  (  1025)
Number of AuxFcns   (0, 1, 2, 3 weak pairs; overall):  950.6   580.3     0.0     0.0  (  2424)
Number of TNOs (0, 1, 2, 3 weak pairs         ):   79.5    56.1     0.0     0.0
Aver. Number of NTNO, Atoms, PAOs, AuxFcns / Triples:  29354    69.7    18.1   709.8   796.8

Triples Correction (T)                     ...     -0.119654472
    alpha-alpha-alpha ... -0.003934791 (  3.3%)
    alpha-alpha-beta  ... -0.056181073 ( 47.0%)
    alpha-beta -beta  ... -0.055399779 ( 46.3%)
    beta -beta -beta  ... -0.004138830 (  3.5%)
Final correlation energy                   ...     -3.029155039
E(CCSD)                                    ...  -3031.334918470
E(CCSD(T))                                 ...  -3031.454572942

----------------------------
STATISTICS FOR PAIR-ENERGIES
----------------------------
Minimum, maximum and average ratios of UMP and CCSD pair-energies ... 0.55, 1.42, 1.02


------------------------------------------------------------------------------- 
                                     TIMINGS                                   
------------------------------------------------------------------------------- 


Total execution time                   ...    56263.954 sec

Localization of occupied MO's          ...       10.303 sec (  0.0%)
Fock Matrix Formation                  ...     1602.306 sec (  2.8%)
Differential overlap integrals         ...        1.672 sec (  0.0%)
Organizing maps                        ...        1.965 sec (  0.0%)
RI 3-index integral generations        ...      299.594 sec (  0.5%)
RI-PNO integral transformation         ...     5550.923 sec (  9.9%)
Initial Guess                          ...     2061.763 sec (  3.7%)
DIIS Solver                            ...       16.274 sec (  0.0%)
State Vector Update                    ...        0.761 sec (  0.0%)
Sigma-vector construction              ...    29458.795 sec ( 52.4%)
  <0|H|D>                              ...        0.030 sec (  0.0% of sigma)
  <D|H|D>(0-ext)                       ...     5533.425 sec ( 18.8% of sigma)
  <D|H|D>(2-ext Fock)                  ...        1.680 sec (  0.0% of sigma)
  <D|H|D>(2-ext)                       ...     4366.293 sec ( 14.8% of sigma)
  <D|H|D>(4-ext)                       ...      148.495 sec (  0.5% of sigma)
  <D|H|D>(4-ext-corr)                  ...      933.263 sec (  3.2% of sigma)
  CCSD doubles correction              ...      527.490 sec (  1.8% of sigma)
  <S|H|S>                              ...      734.279 sec (  2.5% of sigma)
  <S|H|D>(1-ext)                       ...      264.984 sec (  0.9% of sigma)
  <D|H|S>(1-ext)                       ...        0.773 sec (  0.0% of sigma)
  <S|H|D>(3-ext)                       ...       20.861 sec (  0.1% of sigma)
  CCSD singles correction              ...        0.004 sec (  0.0% of sigma)
  Fock-dressing                        ...     8754.421 sec ( 29.7% of sigma)
  Singles amplitudes                   ...      109.955 sec (  0.4% of sigma)
  (ik|jl)-dressing                     ...     6545.741 sec ( 22.2% of sigma)
  (ij|ab),(ia|jb)-dressing             ...     1487.478 sec (  5.0% of sigma)
  Pair energies                        ...        0.147 sec (  0.0% of sigma)
Total Time for computing (T)           ...    17675.661 sec ( 31.4% of ALL)


-------------------------   --------------------
FINAL SINGLE POINT ENERGY     -3031.454572942022
-------------------------   --------------------


                            ***************************************
                            *     ORCA property calculations      *
                            ***************************************

                                    ---------------------
                                    Active property flags
                                    ---------------------
   (+) Dipole Moment


------------------------------------------------------------------------------
                       ORCA ELECTRIC PROPERTIES CALCULATION
------------------------------------------------------------------------------

Dipole Moment Calculation                       ... on
Quadrupole Moment Calculation                   ... off
Polarizability Calculation                      ... off
GBWName                                         ... simple-grid-195-245-b3lyp_d3bj-631gd-gas-singlepoint-DLPNO_CCSD_T1-NormalPNO-augtz-gas.gbw
Electron density file                           ... simple-grid-195-245-b3lyp_d3bj-631gd-gas-singlepoint-DLPNO_CCSD_T1-NormalPNO-augtz-gas.scfp.tmp
The origin for moment calculation is the CENTER OF MASS  = ( 0.302041,  0.032899  0.015503)

-------------
DIPOLE MOMENT
-------------
                                X             Y             Z
Electronic contribution:     40.29304       4.78645       1.82820
Nuclear contribution   :    -45.00413      -4.90192      -2.30996
                        -----------------------------------------
Total Dipole Moment    :     -4.71109      -0.11547      -0.48176
                        -----------------------------------------
Magnitude (a.u.)       :      4.73707
Magnitude (Debye)      :     12.04067



--------------------
Rotational spectrum 
--------------------
 
Rotational constants in cm-1:     0.019113     0.011549     0.010766 
Rotational constants in MHz :   572.994857   346.219902   322.749222 

 Dipole components along the rotational axes: 
x,y,z [a.u.] :    -4.706596     0.119205    -0.523043 
x,y,z [Debye]:   -11.963216     0.302994    -1.329470 

 

Timings for individual modules:

Sum of individual times         ...    75331.770 sec (=1255.529 min)
GTO integral calculation        ...       11.682 sec (=   0.195 min)   0.0 %
SCF iterations                  ...    19039.249 sec (= 317.321 min)  25.3 %
MDCI module                     ...    56280.838 sec (= 938.014 min)  74.7 %
                             ****ORCA TERMINATED NORMALLY****
TOTAL RUN TIME: 0 days 20 hours 55 minutes 34 seconds 213 msec
