
                                 *****************
                                 * O   R   C   A *
                                 *****************

           --- An Ab Initio, DFT and Semiempirical electronic structure package ---

                  #######################################################
                  #                        -***-                        #
                  #          Department of theory and spectroscopy      #
                  #               Directorship: Frank Neese             #
                  #        Max Planck Institute fuer Kohlenforschung    #
                  #                Kaiser Wilhelm Platz 1               #
                  #                 D-45470 Muelheim/Ruhr               #
                  #                      Germany                        #
                  #                                                     #
                  #                  All rights reserved                #
                  #                        -***-                        #
                  #######################################################


                         Program Version 4.1.2  - RELEASE  -


 With contributions from (in alphabetic order):
   Daniel Aravena         : Magnetic Properties
   Michael Atanasov       : Ab Initio Ligand Field Theory
   Alexander A. Auer      : GIAO ZORA
   Ute Becker             : Parallelization
   Giovanni Bistoni       : ED, Open-shell LED
   Martin Brehm           : Molecular dynamics
   Dmytro Bykov           : SCF Hessian
   Vijay G. Chilkuri      : MRCI spin determinant printing
   Dipayan Datta          : RHF DLPNO-CCSD density
   Achintya Kumar Dutta   : EOM-CC, STEOM-CC
   Dmitry Ganyushin       : Spin-Orbit,Spin-Spin,Magnetic field MRCI
   Miquel Garcia          : C-PCM Hessian
   Yang Guo               : DLPNO-NEVPT2, CIM, IAO-localization
   Andreas Hansen         : Spin unrestricted coupled pair/coupled cluster methods
   Benjamin Helmich-Paris : CASSCF linear response (MC-RPA)
   Lee Huntington         : MR-EOM, pCC
   Robert Izsak           : Overlap fitted RIJCOSX, COSX-SCS-MP3, EOM
   Christian Kollmar      : KDIIS, OOCD, Brueckner-CCSD(T), CCSD density
   Simone Kossmann        : Meta GGA functionals, TD-DFT gradient, OOMP2, MP2 Hessian
   Martin Krupicka        : AUTO-CI
   Lucas Lang             : DCDCAS
   Dagmar Lenk            : GEPOL surface, SMD
   Dimitrios Liakos       : Extrapolation schemes; parallel MDCI
   Dimitrios Manganas     : ROCIS; embedding schemes
   Dimitrios Pantazis     : SARC Basis sets
   Taras Petrenko         : DFT Hessian,TD-DFT gradient, ASA, ECA, R-Raman, ABS, FL, XAS/XES, NRVS
   Peter Pinski           : DLPNO-MP2, DLPNO-MP2 Gradient
   Christoph Reimann      : Effective Core Potentials
   Marius Retegan         : Local ZFS, SOC
   Christoph Riplinger    : Optimizer, TS searches, QM/MM, DLPNO-CCSD(T), (RO)-DLPNO pert. Triples
   Tobias Risthaus        : Range-separated hybrids, TD-DFT gradient, RPA, STAB
   Michael Roemelt        : Restricted open shell CIS
   Masaaki Saitow         : Open-shell DLPNO
   Barbara Sandhoefer     : DKH picture change effects
   Avijit Sen             : IP-ROCIS
   Kantharuban Sivalingam : CASSCF convergence, NEVPT2, FIC-MRCI
   Bernardo de Souza      : ESD, SOC TD-DFT
   Georgi Stoychev        : AutoAux, RI-MP2 NMR
   Willem Van den Heuvel  : Paramagnetic NMR
   Boris Wezisla          : Elementary symmetry handling
   Frank Wennmohs         : Technical directorship


 We gratefully acknowledge several colleagues who have allowed us to
 interface, adapt or use parts of their codes:
   Stefan Grimme, W. Hujo, H. Kruse,             : VdW corrections, initial TS optimization,
                  C. Bannwarth                     DFT functionals, gCP, sTDA/sTD-DF
   Ed Valeev                                     : LibInt (2-el integral package), F12 methods
   Garnet Chan, S. Sharma, J. Yang, R. Olivares  : DMRG
   Ulf Ekstrom                                   : XCFun DFT Library
   Mihaly Kallay                                 : mrcc  (arbitrary order and MRCC methods)
   Andreas Klamt, Michael Diedenhofen            : otool_cosmo (COSMO solvation model)
   Jiri Pittner, Ondrej Demel                    : Mk-CCSD
   Frank Weinhold                                : gennbo (NPA and NBO analysis)
   Christopher J. Cramer and Donald G. Truhlar   : smd solvation model
   Lars Goerigk                                  : TD-DFT with DH, B97 family of functionals
   V. Asgeirsson, H. Jonsson                     : NEB implementation
   FAccTs GmbH                                   : IRC, NEB, NEB-TS, Multilevel


 Your calculation uses the libint2 library for the computation of 2-el integrals
 For citations please refer to: http://libint.valeyev.net

 This ORCA versions uses:
   CBLAS   interface :  Fast vector & matrix operations
   LAPACKE interface :  Fast linear algebra routines
   SCALAPACK package :  Parallel linear algebra routines


----- Orbital basis set information -----
Your calculation utilizes the basis: aug-cc-pVTZ 
    H, B-Ne : Obtained from the ccRepo (grant-hill.group.shef.ac.uk/ccrepo) Feb. 2017
              R. A. Kendall, T. H. Dunning, Jr., R. J. Harrison, J. Chem. Phys. 96, 6796 (1992)
         He : Obtained from the ccRepo (grant-hill.group.shef.ac.uk/ccrepo) Feb. 2017
              D. E. Woon, T. H. Dunning, Jr., J. Chem. Phys. 100, 2975 (1994)
  Li-Be, Na : Obtained from the ccRepo (grant-hill.group.shef.ac.uk/ccrepo) Feb. 2017
              B. P. Prascher, D. E. Woon, K. A. Peterson, T. H. Dunning, Jr., A. K. Wilson, Theor. Chem. Acc. 128, 69 (2011)
         Mg : Obtained from the Peterson Research Group Website (tyr0.chem.wsu.edu/~kipeters) Feb. 2017
              B. P. Prascher, D. E. Woon, K. A. Peterson, T. H. Dunning, Jr., A. K. Wilson, Theor. Chem. Acc. 128, 69 (2011)
      Al-Ar : Obtained from the ccRepo (grant-hill.group.shef.ac.uk/ccrepo) Feb. 2017
              D. E. Woon, T. H. Dunning, Jr., J. Chem. Phys. 98, 1358 (1993)
      Sc-Zn : Obtained from the ccRepo (grant-hill.group.shef.ac.uk/ccrepo) Feb. 2017
              N. B. Balabanov, K. A. Peterson, J. Chem. Phys. 123, 064107 (2005)
              N. B. Balabanov, K. A. Peterson, J. Chem. Phys. 125, 074110 (2006)
      Ga-Kr : Obtained from the ccRepo (grant-hill.group.shef.ac.uk/ccrepo) Feb. 2017
              A. K. Wilson, D. E. Woon, K. A. Peterson, T. H. Dunning, Jr., J. Chem. Phys. 110, 7667 (1999)
     Ag, Au : Obtained from the Peterson Research Group Website (tyr0.chem.wsu.edu/~kipeters) Feb. 2017
              K. A. Peterson, C. Puzzarini, Theor. Chem. Acc. 114, 283 (2005)

----- AuxJ basis set information -----
Your calculation utilizes the AutoAux generation procedure.
  G. L. Stoychev, A. A. Auer, F. Neese, J. Chem. Theory Comput. 13, 554 (2017)

----- AuxC basis set information -----
Your calculation utilizes the auxiliary basis: aug-cc-pVTZ/C 
  H-He, B-F, Al-Ar, Ga-Kr : Obtained from the EMSL Basis Set Exchange (bse.pnl.gov) Feb. 2017
                            F. Weigend, A. Kohn, C. Hattig, J. Chem. Phys. 116, 3175 (2002)
                   Be, Mg : Obtained from the TURBOMOLE 7.0 basis set library
                            C. Haettig, Phys. Chem. Chem. Phys. 7, 59 (2005)
                       Ne : Obtained from the EMSL Basis Set Exchange (bse.pnl.gov) Feb. 2017
                            C. Haettig, Phys. Chem. Chem. Phys. 7, 59 (2005)
                            F. Weigend, A. Kohn, C. Hattig, J. Chem. Phys. 116, 3175 (2002)
                    Sc-Zn : Obtained from the EMSL Basis Set Exchange (bse.pnl.gov) Feb. 2017
                            J. G. Hill, J. A. Platts, J. Chem. Phys. 128, 044104 (2008)

----- AuxJK basis set information -----
Your calculation utilizes the AutoAux generation procedure.
  G. L. Stoychev, A. A. Auer, F. Neese, J. Chem. Theory Comput. 13, 554 (2017)

================================================================================
                                        WARNINGS
                       Please study these warnings very carefully!
================================================================================


WARNING: your system is open-shell and RHF/RKS was chosen
  ===> : WILL SWITCH to UHF/UKS


WARNING: MDCI localization with Augmented Hessian Foster-Boys
  ===> : Switching off randomization!

WARNING: Post HF methods need fully converged wavefunctions
  ===> : Setting SCFConvForced true
         You can overwrite this default with %scf ConvForced false 


INFO   : the flag for use of LIBINT has been found!

================================================================================
                                       INPUT FILE
================================================================================
NAME = simple-grid-195-230-b3lyp_d3bj-631gd-gas-singlepoint-DLPNO_CCSD_T1-NormalPNO-augtz-gas.inp
|  1> ! aug-cc-pVTZ aug-cc-pVTZ/C DLPNO-CCSD(T1) TightSCF NormalPNO UNO MiniPrint AutoAux
|  2> %pal nproc 10 end
|  3> %maxcore 20000
|  4> %mdci
|  5>      density none
|  6> end
|  7> 
|  8> * xyz 0 6
|  9>  O     -0.32710800     -0.16826600     -0.58883400
| 10>  C     -1.31127800     -1.06828900     -0.49274600
| 11>  C     -2.94353700     -0.09520600     -0.05532400
| 12>  C     -2.21335200      1.09047000     -0.20462600
| 13>  C     -2.08031900      1.76595100     -1.52003900
| 14> Fe      1.41558300      0.05082200      0.03703700
| 15> Cl      1.89797700      2.06141900     -0.74952700
| 16>  C     -1.58348300      1.77681800      0.95247400
| 17> Cl      2.56790800     -1.64806400     -0.75281900
| 18> Cl      1.32043400      0.03263300      2.25663900
| 19>  H     -3.56344000     -0.35277700     -0.91186100
| 20>  H     -2.36049300      2.40961300      1.41081000
| 21>  H     -1.23321200      1.08577500      1.72071100
| 22>  H     -0.75543600      2.41699700      0.64192800
| 23>  H     -2.57740800      2.74418600     -1.43681900
| 24>  H     -1.02399500      1.96126100     -1.73320100
| 25>  H     -2.54257400      1.21231200     -2.33859400
| 26>  C     -3.54481600     -0.50001500      1.27538800
| 27>  H     -4.42898900      0.11518900      1.48327200
| 28>  H     -3.87267500     -1.54215900      1.25282800
| 29>  H     -2.85334500     -0.38109900      2.11170700
| 30>  C     -1.15172600     -2.06621000      0.63307100
| 31>  H     -1.99882100     -2.74929000      0.71801200
| 32>  H     -0.25810200     -2.65331100      0.38003100
| 33>  H     -0.95339400     -1.57914600      1.58847700
| 34>  C     -1.66705300     -1.68688400     -1.83162600
| 35>  H     -0.79114800     -2.27046400     -2.14241200
| 36>  H     -2.53290800     -2.35131300     -1.76689100
| 37>  H     -1.83638800     -0.92263100     -2.59270600
| 38> *
| 39> 
| 40> 
| 41>                          ****END OF INPUT****
================================================================================

                       ****************************
                       * Single Point Calculation *
                       ****************************

---------------------------------
CARTESIAN COORDINATES (ANGSTROEM)
---------------------------------
  O     -0.327108   -0.168266   -0.588834
  C     -1.311278   -1.068289   -0.492746
  C     -2.943537   -0.095206   -0.055324
  C     -2.213352    1.090470   -0.204626
  C     -2.080319    1.765951   -1.520039
  Fe     1.415583    0.050822    0.037037
  Cl     1.897977    2.061419   -0.749527
  C     -1.583483    1.776818    0.952474
  Cl     2.567908   -1.648064   -0.752819
  Cl     1.320434    0.032633    2.256639
  H     -3.563440   -0.352777   -0.911861
  H     -2.360493    2.409613    1.410810
  H     -1.233212    1.085775    1.720711
  H     -0.755436    2.416997    0.641928
  H     -2.577408    2.744186   -1.436819
  H     -1.023995    1.961261   -1.733201
  H     -2.542574    1.212312   -2.338594
  C     -3.544816   -0.500015    1.275388
  H     -4.428989    0.115189    1.483272
  H     -3.872675   -1.542159    1.252828
  H     -2.853345   -0.381099    2.111707
  C     -1.151726   -2.066210    0.633071
  H     -1.998821   -2.749290    0.718012
  H     -0.258102   -2.653311    0.380031
  H     -0.953394   -1.579146    1.588477
  C     -1.667053   -1.686884   -1.831626
  H     -0.791148   -2.270464   -2.142412
  H     -2.532908   -2.351313   -1.766891
  H     -1.836388   -0.922631   -2.592706

----------------------------
CARTESIAN COORDINATES (A.U.)
----------------------------
  NO LB      ZA    FRAG     MASS         X           Y           Z
   0 O     8.0000    0    15.999   -0.618145   -0.317977   -1.112735
   1 C     6.0000    0    12.011   -2.477956   -2.018774   -0.931155
   2 C     6.0000    0    12.011   -5.562479   -0.179913   -0.104547
   3 C     6.0000    0    12.011   -4.182629    2.060690   -0.386687
   4 C     6.0000    0    12.011   -3.931233    3.337164   -2.872457
   5 Fe   26.0000    0    55.850    2.675064    0.096040    0.069990
   6 Cl   17.0000    0    35.453    3.586657    3.895517   -1.416401
   7 C     6.0000    0    12.011   -2.992349    3.357699    1.799915
   8 Cl   17.0000    0    35.453    4.852643   -3.114390   -1.422622
   9 Cl   17.0000    0    35.453    2.495259    0.061667    4.264430
  10 H     1.0000    0     1.008   -6.733926   -0.666652   -1.723168
  11 H     1.0000    0     1.008   -4.460685    4.553509    2.666045
  12 H     1.0000    0     1.008   -2.330433    2.051817    3.251673
  13 H     1.0000    0     1.008   -1.427567    4.567462    1.213068
  14 H     1.0000    0     1.008   -4.870595    5.185760   -2.715194
  15 H     1.0000    0     1.008   -1.935070    3.706246   -3.275275
  16 H     1.0000    0     1.008   -4.804769    2.290938   -4.419302
  17 C     6.0000    0    12.011   -6.698731   -0.944891    2.410134
  18 H     1.0000    0     1.008   -8.369576    0.217676    2.802978
  19 H     1.0000    0     1.008   -7.318295   -2.914258    2.367502
  20 H     1.0000    0     1.008   -5.392041   -0.720173    3.990548
  21 C     6.0000    0    12.011   -2.176447   -3.904571    1.196331
  22 H     1.0000    0     1.008   -3.777224   -5.195405    1.356846
  23 H     1.0000    0     1.008   -0.487742   -5.014031    0.718155
  24 H     1.0000    0     1.008   -1.801654   -2.984153    3.001787
  25 C     6.0000    0    12.011   -3.150274   -3.187749   -3.461272
  26 H     1.0000    0     1.008   -1.495053   -4.290555   -4.048572
  27 H     1.0000    0     1.008   -4.786502   -4.443338   -3.338940
  28 H     1.0000    0     1.008   -3.470270   -1.743520   -4.899504



           ************************************************************
           *        Program running with 10 parallel MPI-processes    *
           *              working on a common directory               *
           ************************************************************


           ************************************************************
           *        Program running with 10 parallel MPI-processes    *
           *              working on a common directory               *
           ************************************************************

Diagonalization of the overlap matrix:
Smallest eigenvalue                        ... 6.377e-07
Time for diagonalization                   ...    0.348 sec
Threshold for overlap eigenvalues          ... 1.000e-08
Number of eigenvalues below threshold      ... 0
Time for construction of square roots      ...    0.281 sec
Total time needed                          ...    0.633 sec

-------------------
DFT GRID GENERATION
-------------------

General Integration Accuracy     IntAcc      ...  4.340
Radial Grid Type                 RadialGrid  ... Gauss-Chebyshev
Angular Grid (max. acc.)         AngularGrid ... Lebedev-110
Angular grid pruning method      GridPruning ... 3 (G Style)
Weight generation scheme         WeightScheme... Becke
Basis function cutoff            BFCut       ...    1.0000e-11
Integration weight cutoff        WCut        ...    1.0000e-14
Grids for H and He will be reduced by one unit

# of grid points (after initial pruning)     ...  36112 (   0.0 sec)
# of grid points (after weights+screening)   ...  32296 (   0.1 sec)
nearest neighbour list constructed           ...    0.0 sec
Grid point re-assignment to atoms done       ...    0.0 sec
Grid point division into batches done        ...    0.0 sec
Reduced shell lists constructed in    0.3 sec

Total number of grid points                  ...    32296
Total number of batches                      ...      523
Average number of points per batch           ...       61
Average number of grid points per atom       ...     1114
Average number of shells per batch           ...   293.96 (85.70%)
Average number of basis functions per batch  ...   874.22 (85.29%)
Average number of large shells per batch     ...   243.35 (82.78%)
Average number of large basis fcns per batch ...   722.87 (82.69%)
Maximum spatial batch extension              ...   2.68,  3.40,  4.65 au
Average spatial batch extension              ...   0.17,  0.18,  0.17 au

Time for grid setup =    0.433 sec

Loading Hartree-Fock densities                     ... done
Calculating cut-offs                               ... done
Setting up the integral package                    ... done
Initializing the effective Hamiltonian             ... done
Starting the Coulomb interaction                   ... done (   1.1 sec)
Reading the grid                                   ... done
Mapping shells                                     ... done
Starting the XC term evaluation                    ... done (   1.0 sec)
Transforming the Hamiltonian                       ... done (   0.2 sec)
Diagonalizing the Hamiltonian                      ... done (   0.4 sec)
Back transforming the eigenvectors                 ... done (   0.1 sec)
Now organizing SCF variables                       ... done
--------------
SCF ITERATIONS
--------------
ITER       Energy         Delta-E        Max-DP      RMS-DP      [F,P]     Damp
               ***  Starting incremental Fock matrix formation  ***
  0  -3027.5659917419   0.000000000000 0.29973668  0.00124966  0.2849367 0.7000
  1  -3027.8149593518  -0.248967609903 0.21256377  0.00095648  0.1686568 0.7000
                               ***Turning on DIIS***
  2  -3027.9822913867  -0.167332034944 0.14690104  0.00069600  0.1093416 0.7000
  3  -3029.6769994480  -1.694708061304 0.31500057  0.00171721  0.0822114 0.0000
  4  -3028.2899038475   1.387095600488 0.04708959  0.00023392  0.0190154 0.0000
  5  -3028.4111867711  -0.121282923546 0.03989740  0.00017358  0.0118033 0.0000
  6  -3028.4376302102  -0.026443439094 0.02048497  0.00006867  0.0054428 0.0000
  7  -3028.4509754313  -0.013345221083 0.00909771  0.00003163  0.0033181 0.0000
  8  -3028.4482828104   0.002692620862 0.00603375  0.00001837  0.0013632 0.0000
  9  -3028.4384986044   0.009784206034 0.00234986  0.00001062  0.0007138 0.0000
 10  -3028.4279058856   0.010592718731 0.00098862  0.00000346  0.0004210 0.0000
 11  -3028.4340478042  -0.006141918566 0.00035143  0.00000194  0.0000849 0.0000
 12  -3028.4312582650   0.002789539143 0.00076907  0.00000171  0.0000339 0.0000
 13  -3028.4313086321  -0.000050367047 0.00145528  0.00000267  0.0000124 0.0000
 14  -3028.4313635120  -0.000054879911 0.00147270  0.00000303  0.0000069 0.0000
 15  -3028.4312978326   0.000065679380 0.00124161  0.00000252  0.0000033 0.0000
 16  -3028.4313247120  -0.000026879365 0.00164475  0.00000328  0.0000023 0.0000
 17  -3028.4313415458  -0.000016833776 0.00122951  0.00000254  0.0000013 0.0000
                            ***DIIS convergence achieved***

               *****************************************************
               *                     SUCCESS                       *
               *           SCF CONVERGED AFTER  18 CYCLES          *
               *****************************************************

Total Energy       :        -3028.43132201 Eh          -82407.80580 eV
  Last Energy change         ...    1.9531e-05  Tolerance :   1.0000e-08
  Last MAX-Density change    ...    1.9411e-03  Tolerance :   1.0000e-07
             **** THE GBW FILE WAS UPDATED (simple-grid-195-230-b3lyp_d3bj-631gd-gas-singlepoint-DLPNO_CCSD_T1-NormalPNO-augtz-gas.gbw) ****
             **** DENSITY FILE WAS UPDATED (simple-grid-195-230-b3lyp_d3bj-631gd-gas-singlepoint-DLPNO_CCSD_T1-NormalPNO-augtz-gas.scfp.tmp) ****
             **** ENERGY FILE WAS UPDATED (simple-grid-195-230-b3lyp_d3bj-631gd-gas-singlepoint-DLPNO_CCSD_T1-NormalPNO-augtz-gas.en.tmp) ****
----------------------
UHF SPIN CONTAMINATION
----------------------

Expectation value of <S**2>     :     8.764412
Ideal value S*(S+1) for S=2.5   :     8.750000
Deviation                       :     0.014412

----------------
ORBITAL ENERGIES
----------------
                 SPIN UP ORBITALS
  NO   OCC          E(Eh)            E(eV) 
   0   1.0000    -261.550491     -7117.1507 
   1   1.0000    -104.776330     -2851.1089 
   2   1.0000    -104.775725     -2851.0924 
   3   1.0000    -104.773423     -2851.0298 
   4   1.0000     -32.218382      -876.7067 
   5   1.0000     -27.694300      -753.6002 
   6   1.0000     -27.694111      -753.5951 
   7   1.0000     -27.693831      -753.5875 
   8   1.0000     -20.551966      -559.2474 
   9   1.0000     -11.383873      -309.7709 
  10   1.0000     -11.370077      -309.3955 
  11   1.0000     -11.279916      -306.9421 
  12   1.0000     -11.272350      -306.7362 
  13   1.0000     -11.266601      -306.5798 
  14   1.0000     -11.261892      -306.4517 
  15   1.0000     -11.253784      -306.2310 
  16   1.0000     -11.248271      -306.0810 
  17   1.0000     -10.502930      -285.7993 
  18   1.0000     -10.502227      -285.7801 
  19   1.0000     -10.499962      -285.7185 
  20   1.0000      -7.969820      -216.8698 
  21   1.0000      -7.969052      -216.8489 
  22   1.0000      -7.968969      -216.8467 
  23   1.0000      -7.968924      -216.8455 
  24   1.0000      -7.968319      -216.8290 
  25   1.0000      -7.968225      -216.8264 
  26   1.0000      -7.966791      -216.7874 
  27   1.0000      -7.966073      -216.7679 
  28   1.0000      -7.965981      -216.7654 
  29   1.0000      -4.573853      -124.4609 
  30   1.0000      -3.186525       -86.7098 
  31   1.0000      -3.185933       -86.6936 
  32   1.0000      -3.185395       -86.6790 
  33   1.0000      -1.393455       -37.9178 
  34   1.0000      -1.178109       -32.0580 
  35   1.0000      -1.086037       -29.5526 
  36   1.0000      -1.047812       -28.5124 
  37   1.0000      -1.042411       -28.3654 
  38   1.0000      -1.041601       -28.3434 
  39   1.0000      -1.040180       -28.3047 
  40   1.0000      -1.003674       -27.3114 
  41   1.0000      -0.982260       -26.7287 
  42   1.0000      -0.934157       -25.4197 
  43   1.0000      -0.915345       -24.9078 
  44   1.0000      -0.903494       -24.5853 
  45   1.0000      -0.903402       -24.5828 
  46   1.0000      -0.894615       -24.3437 
  47   1.0000      -0.894432       -24.3387 
  48   1.0000      -0.785624       -21.3779 
  49   1.0000      -0.764889       -20.8137 
  50   1.0000      -0.697934       -18.9918 
  51   1.0000      -0.694092       -18.8872 
  52   1.0000      -0.675602       -18.3841 
  53   1.0000      -0.652206       -17.7474 
  54   1.0000      -0.645343       -17.5607 
  55   1.0000      -0.625893       -17.0314 
  56   1.0000      -0.600962       -16.3530 
  57   1.0000      -0.593385       -16.1468 
  58   1.0000      -0.590175       -16.0595 
  59   1.0000      -0.584234       -15.8978 
  60   1.0000      -0.574959       -15.6454 
  61   1.0000      -0.563559       -15.3352 
  62   1.0000      -0.557232       -15.1630 
  63   1.0000      -0.548144       -14.9158 
  64   1.0000      -0.537350       -14.6220 
  65   1.0000      -0.530689       -14.4408 
  66   1.0000      -0.510448       -13.8900 
  67   1.0000      -0.476983       -12.9794 
  68   1.0000      -0.462973       -12.5981 
  69   1.0000      -0.451371       -12.2824 
  70   1.0000      -0.429224       -11.6798 
  71   1.0000      -0.426082       -11.5943 
  72   1.0000      -0.423591       -11.5265 
  73   1.0000      -0.416102       -11.3227 
  74   1.0000      -0.414499       -11.2791 
  75   1.0000      -0.412795       -11.2327 
  76   1.0000      -0.390344       -10.6218 
  77   0.0000       0.008476         0.2306 
  78   0.0000       0.019502         0.5307 
  79   0.0000       0.021653         0.5892 
  80   0.0000       0.030006         0.8165 
  81   0.0000       0.032693         0.8896 
  82   0.0000       0.037872         1.0306 
  83   0.0000       0.040690         1.1072 
  84   0.0000       0.043844         1.1931 
  85   0.0000       0.044941         1.2229 
  86   0.0000       0.046954         1.2777 
  87   0.0000       0.056339         1.5331 
  88   0.0000       0.059811         1.6275 
  89   0.0000       0.061456         1.6723 
  90   0.0000       0.064637         1.7589 
  91   0.0000       0.067694         1.8421 
  92   0.0000       0.071498         1.9456 
  93   0.0000       0.073502         2.0001 
  94   0.0000       0.079346         2.1591 
  95   0.0000       0.089200         2.4273 
  96   0.0000       0.089679         2.4403 
  97   0.0000       0.091505         2.4900 
  98   0.0000       0.094266         2.5651 
  99   0.0000       0.099980         2.7206 
 100   0.0000       0.102318         2.7842 
 101   0.0000       0.110120         2.9965 
 102   0.0000       0.114790         3.1236 
 103   0.0000       0.119115         3.2413 
 104   0.0000       0.123764         3.3678 
 105   0.0000       0.124332         3.3832 
 106   0.0000       0.128012         3.4834 
 107   0.0000       0.129075         3.5123 
 108   0.0000       0.131558         3.5799 
 109   0.0000       0.133299         3.6273 
 110   0.0000       0.136710         3.7201 
 111   0.0000       0.138784         3.7765 
 112   0.0000       0.144895         3.9428 
 113   0.0000       0.149562         4.0698 
 114   0.0000       0.151199         4.1143 
 115   0.0000       0.153994         4.1904 
 116   0.0000       0.156753         4.2655 
 117   0.0000       0.158948         4.3252 
 118   0.0000       0.164232         4.4690 
 119   0.0000       0.167166         4.5488 
 120   0.0000       0.169600         4.6151 
 121   0.0000       0.173848         4.7306 
 122   0.0000       0.175283         4.7697 
 123   0.0000       0.177416         4.8277 
 124   0.0000       0.182634         4.9697 
 125   0.0000       0.188275         5.1232 
 126   0.0000       0.191423         5.2089 
 127   0.0000       0.192405         5.2356 
 128   0.0000       0.198480         5.4009 
 129   0.0000       0.199753         5.4356 
 130   0.0000       0.202720         5.5163 
 131   0.0000       0.205483         5.5915 
 132   0.0000       0.208638         5.6773 
 133   0.0000       0.210768         5.7353 
 134   0.0000       0.215089         5.8529 
 135   0.0000       0.217042         5.9060 
 136   0.0000       0.217810         5.9269 
 137   0.0000       0.223104         6.0710 
 138   0.0000       0.229659         6.2493 
 139   0.0000       0.232288         6.3209 
 140   0.0000       0.235404         6.4057 
 141   0.0000       0.238467         6.4890 
 142   0.0000       0.239320         6.5122 
 143   0.0000       0.242992         6.6122 
 144   0.0000       0.246253         6.7009 
 145   0.0000       0.252708         6.8765 
 146   0.0000       0.253206         6.8901 
 147   0.0000       0.254581         6.9275 
 148   0.0000       0.258698         7.0395 
 149   0.0000       0.263595         7.1728 
 150   0.0000       0.265014         7.2114 
 151   0.0000       0.273488         7.4420 
 152   0.0000       0.278166         7.5693 
 153   0.0000       0.282606         7.6901 
 154   0.0000       0.283545         7.7157 
 155   0.0000       0.289096         7.8667 
 156   0.0000       0.290396         7.9021 
 157   0.0000       0.299000         8.1362 
 158   0.0000       0.303641         8.2625 
 159   0.0000       0.305444         8.3115 
 160   0.0000       0.307250         8.3607 
 161   0.0000       0.308079         8.3832 
 162   0.0000       0.317815         8.6482 
 163   0.0000       0.319169         8.6850 
 164   0.0000       0.324270         8.8238 
 165   0.0000       0.330238         8.9862 
 166   0.0000       0.332706         9.0534 
 167   0.0000       0.335764         9.1366 
 168   0.0000       0.341021         9.2796 
 169   0.0000       0.344807         9.3827 
 170   0.0000       0.350089         9.5264 
 171   0.0000       0.353568         9.6211 
 172   0.0000       0.358490         9.7550 
 173   0.0000       0.362053         9.8520 
 174   0.0000       0.363537         9.8924 
 175   0.0000       0.364242         9.9115 
 176   0.0000       0.368992        10.0408 
 177   0.0000       0.371225        10.1015 
 178   0.0000       0.374605        10.1935 
 179   0.0000       0.377152        10.2628 
 180   0.0000       0.384201        10.4547 
 181   0.0000       0.384488        10.4625 
 182   0.0000       0.388212        10.5638 
 183   0.0000       0.390141        10.6163 
 184   0.0000       0.391463        10.6522 
 185   0.0000       0.394680        10.7398 
 186   0.0000       0.396592        10.7918 
 187   0.0000       0.400536        10.8991 
 188   0.0000       0.405325        11.0295 
 189   0.0000       0.409676        11.1479 
 190   0.0000       0.413382        11.2487 
 191   0.0000       0.414527        11.2799 
 192   0.0000       0.417976        11.3737 
 193   0.0000       0.424223        11.5437 
 194   0.0000       0.428787        11.6679 
 195   0.0000       0.433912        11.8073 
 196   0.0000       0.436159        11.8685 
 197   0.0000       0.444515        12.0959 
 198   0.0000       0.447297        12.1716 
 199   0.0000       0.449105        12.2208 
 200   0.0000       0.451439        12.2843 
 201   0.0000       0.456457        12.4208 
 202   0.0000       0.459980        12.5167 
 203   0.0000       0.461437        12.5563 
 204   0.0000       0.464223        12.6321 
 205   0.0000       0.468846        12.7580 
 206   0.0000       0.469963        12.7883 
 207   0.0000       0.474363        12.9081 
 208   0.0000       0.476061        12.9543 
 209   0.0000       0.479976        13.0608 
 210   0.0000       0.483827        13.1656 
 211   0.0000       0.486586        13.2407 
 212   0.0000       0.489628        13.3235 
 213   0.0000       0.496268        13.5041 
 214   0.0000       0.498240        13.5578 
 215   0.0000       0.501926        13.6581 
 216   0.0000       0.503376        13.6975 
 217   0.0000       0.504999        13.7417 
 218   0.0000       0.510418        13.8892 
 219   0.0000       0.510940        13.9034 
 220   0.0000       0.514282        13.9943 
 221   0.0000       0.516310        14.0495 
 222   0.0000       0.519227        14.1289 
 223   0.0000       0.524381        14.2691 
 224   0.0000       0.528880        14.3916 
 225   0.0000       0.534382        14.5413 
 226   0.0000       0.537669        14.6307 
 227   0.0000       0.539694        14.6858 
 228   0.0000       0.543752        14.7962 
 229   0.0000       0.545892        14.8545 
 230   0.0000       0.549777        14.9602 
 231   0.0000       0.552953        15.0466 
 232   0.0000       0.560124        15.2418 
 233   0.0000       0.565159        15.3788 
 234   0.0000       0.567838        15.4517 
 235   0.0000       0.571106        15.5406 
 236   0.0000       0.575334        15.6556 
 237   0.0000       0.578944        15.7539 
 238   0.0000       0.579854        15.7786 
 239   0.0000       0.583248        15.8710 
 240   0.0000       0.588104        16.0031 
 241   0.0000       0.594519        16.1777 
 242   0.0000       0.598626        16.2894 
 243   0.0000       0.599925        16.3248 
 244   0.0000       0.602915        16.4061 
 245   0.0000       0.609036        16.5727 
 246   0.0000       0.610502        16.6126 
 247   0.0000       0.617031        16.7903 
 248   0.0000       0.619532        16.8583 
 249   0.0000       0.624980        17.0066 
 250   0.0000       0.627148        17.0656 
 251   0.0000       0.631667        17.1885 
 252   0.0000       0.632648        17.2152 
 253   0.0000       0.637424        17.3452 
 254   0.0000       0.640150        17.4194 
 255   0.0000       0.645509        17.5652 
 256   0.0000       0.647330        17.6148 
 257   0.0000       0.651478        17.7276 
 258   0.0000       0.656710        17.8700 
 259   0.0000       0.660565        17.9749 
 260   0.0000       0.664479        18.0814 
 261   0.0000       0.670914        18.2565 
 262   0.0000       0.672239        18.2926 
 263   0.0000       0.673057        18.3148 
 264   0.0000       0.682030        18.5590 
 265   0.0000       0.683146        18.5894 
 266   0.0000       0.692579        18.8460 
 267   0.0000       0.694419        18.8961 
 268   0.0000       0.696991        18.9661 
 269   0.0000       0.702212        19.1082 
 270   0.0000       0.709108        19.2958 
 271   0.0000       0.711739        19.3674 
 272   0.0000       0.719683        19.5836 
 273   0.0000       0.722577        19.6623 
 274   0.0000       0.725583        19.7441 
 275   0.0000       0.728998        19.8370 
 276   0.0000       0.731724        19.9112 
 277   0.0000       0.742351        20.2004 
 278   0.0000       0.746513        20.3136 
 279   0.0000       0.750935        20.4340 
 280   0.0000       0.758230        20.6325 
 281   0.0000       0.760942        20.7063 
 282   0.0000       0.763495        20.7758 
 283   0.0000       0.775751        21.1092 
 284   0.0000       0.781419        21.2635 
 285   0.0000       0.782493        21.2927 
 286   0.0000       0.787780        21.4366 
 287   0.0000       0.791239        21.5307 
 288   0.0000       0.802218        21.8295 
 289   0.0000       0.805924        21.9303 
 290   0.0000       0.809364        22.0239 
 291   0.0000       0.814373        22.1602 
 292   0.0000       0.819527        22.3005 
 293   0.0000       0.824842        22.4451 
 294   0.0000       0.828510        22.5449 
 295   0.0000       0.834034        22.6952 
 296   0.0000       0.839939        22.8559 
 297   0.0000       0.845627        23.0107 
 298   0.0000       0.853256        23.2183 
 299   0.0000       0.858205        23.3530 
 300   0.0000       0.862664        23.4743 
 301   0.0000       0.871907        23.7258 
 302   0.0000       0.876937        23.8627 
 303   0.0000       0.879845        23.9418 
 304   0.0000       0.885443        24.0941 
 305   0.0000       0.888697        24.1827 
 306   0.0000       0.890308        24.2265 
 307   0.0000       0.895483        24.3673 
 308   0.0000       0.900973        24.5167 
 309   0.0000       0.904588        24.6151 
 310   0.0000       0.907406        24.6918 
 311   0.0000       0.911208        24.7952 
 312   0.0000       0.919462        25.0198 
 313   0.0000       0.924306        25.1517 
 314   0.0000       0.927834        25.2476 
 315   0.0000       0.929813        25.3015 
 316   0.0000       0.932567        25.3764 
 317   0.0000       0.936944        25.4955 
 318   0.0000       0.941258        25.6129 
 319   0.0000       0.947191        25.7744 
 320   0.0000       0.951273        25.8855 
 321   0.0000       0.954524        25.9739 
 322   0.0000       0.956371        26.0242 
 323   0.0000       0.961858        26.1735 
 324   0.0000       0.965415        26.2703 
 325   0.0000       0.968607        26.3571 
 326   0.0000       0.972498        26.4630 
 327   0.0000       0.973279        26.4843 
 328   0.0000       0.978419        26.6241 
 329   0.0000       0.980784        26.6885 
 330   0.0000       0.983222        26.7548 
 331   0.0000       0.985147        26.8072 
 332   0.0000       0.989243        26.9187 
 333   0.0000       0.992855        27.0170 
 334   0.0000       0.998039        27.1580 
 335   0.0000       1.000727        27.2312 
 336   0.0000       1.006711        27.3940 
 337   0.0000       1.012363        27.5478 
 338   0.0000       1.016092        27.6493 
 339   0.0000       1.016575        27.6624 
 340   0.0000       1.022711        27.8294 
 341   0.0000       1.025177        27.8965 
 342   0.0000       1.032412        28.0934 
 343   0.0000       1.032711        28.1015 
 344   0.0000       1.033544        28.1242 
 345   0.0000       1.036645        28.2085 
 346   0.0000       1.041249        28.3338 
 347   0.0000       1.047918        28.5153 
 348   0.0000       1.050728        28.5918 
 349   0.0000       1.054916        28.7057 
 350   0.0000       1.057684        28.7810 
 351   0.0000       1.059822        28.8392 
 352   0.0000       1.063178        28.9306 
 353   0.0000       1.064949        28.9787 
 354   0.0000       1.070948        29.1420 
 355   0.0000       1.074158        29.2293 
 356   0.0000       1.075473        29.2651 
 357   0.0000       1.087577        29.5945 
 358   0.0000       1.089627        29.6503 
 359   0.0000       1.093776        29.7632 
 360   0.0000       1.100328        29.9415 
 361   0.0000       1.102913        30.0118 
 362   0.0000       1.107355        30.1327 
 363   0.0000       1.109067        30.1793 
 364   0.0000       1.114306        30.3218 
 365   0.0000       1.121415        30.5153 
 366   0.0000       1.125071        30.6147 
 367   0.0000       1.128472        30.7073 
 368   0.0000       1.133783        30.8518 
 369   0.0000       1.137499        30.9529 
 370   0.0000       1.138574        30.9822 
 371   0.0000       1.146143        31.1881 
 372   0.0000       1.150334        31.3022 
 373   0.0000       1.154532        31.4164 
 374   0.0000       1.156588        31.4723 
 375   0.0000       1.164352        31.6836 
 376   0.0000       1.166785        31.7498 
 377   0.0000       1.170900        31.8618 
 378   0.0000       1.175238        31.9799 
 379   0.0000       1.182421        32.1753 
 380   0.0000       1.185543        32.2603 
 381   0.0000       1.190061        32.3832 
 382   0.0000       1.195062        32.5193 
 383   0.0000       1.201744        32.7011 
 384   0.0000       1.204256        32.7695 
 385   0.0000       1.211084        32.9553 
 386   0.0000       1.213482        33.0205 
 387   0.0000       1.215313        33.0704 
 388   0.0000       1.221627        33.2422 
 389   0.0000       1.223121        33.2828 
 390   0.0000       1.232793        33.5460 
 391   0.0000       1.237577        33.6762 
 392   0.0000       1.243816        33.8460 
 393   0.0000       1.244884        33.8750 
 394   0.0000       1.248222        33.9658 
 395   0.0000       1.253577        34.1116 
 396   0.0000       1.260436        34.2982 
 397   0.0000       1.262497        34.3543 
 398   0.0000       1.268345        34.5134 
 399   0.0000       1.275663        34.7125 
 400   0.0000       1.277009        34.7492 
 401   0.0000       1.283449        34.9244 
 402   0.0000       1.296123        35.2693 
 403   0.0000       1.300399        35.3857 
 404   0.0000       1.307537        35.5799 
 405   0.0000       1.310039        35.6480 
 406   0.0000       1.313594        35.7447 
 407   0.0000       1.318587        35.8806 
 408   0.0000       1.326069        36.0842 
 409   0.0000       1.328352        36.1463 
 410   0.0000       1.333520        36.2869 
 411   0.0000       1.334908        36.3247 
 412   0.0000       1.341652        36.5082 
 413   0.0000       1.346635        36.6438 
 414   0.0000       1.353449        36.8292 
 415   0.0000       1.358053        36.9545 
 416   0.0000       1.366274        37.1782 
 417   0.0000       1.369782        37.2737 
 418   0.0000       1.374326        37.3973 
 419   0.0000       1.388270        37.7767 
 420   0.0000       1.389720        37.8162 
 421   0.0000       1.396246        37.9938 
 422   0.0000       1.400008        38.0961 
 423   0.0000       1.406430        38.2709 
 424   0.0000       1.409397        38.3516 
 425   0.0000       1.420050        38.6415 
 426   0.0000       1.421981        38.6941 
 427   0.0000       1.426846        38.8265 
 428   0.0000       1.431787        38.9609 
 429   0.0000       1.434972        39.0476 
 430   0.0000       1.441067        39.2134 
 431   0.0000       1.448153        39.4062 
 432   0.0000       1.450954        39.4825 
 433   0.0000       1.453242        39.5447 
 434   0.0000       1.460253        39.7355 
 435   0.0000       1.467208        39.9248 
 436   0.0000       1.468669        39.9645 
 437   0.0000       1.477169        40.1958 
 438   0.0000       1.486800        40.4579 
 439   0.0000       1.492359        40.6091 
 440   0.0000       1.495749        40.7014 
 441   0.0000       1.499611        40.8065 
 442   0.0000       1.509420        41.0734 
 443   0.0000       1.512133        41.1472 
 444   0.0000       1.513131        41.1744 
 445   0.0000       1.521938        41.4140 
 446   0.0000       1.522194        41.4210 
 447   0.0000       1.530505        41.6471 
 448   0.0000       1.543281        41.9948 
 449   0.0000       1.543721        42.0068 
 450   0.0000       1.543851        42.0103 
 451   0.0000       1.550968        42.2040 
 452   0.0000       1.556069        42.3428 
 453   0.0000       1.561805        42.4989 
 454   0.0000       1.566071        42.6150 
 455   0.0000       1.573968        42.8299 
 456   0.0000       1.576131        42.8887 
 457   0.0000       1.579786        42.9882 
 458   0.0000       1.581663        43.0393 
 459   0.0000       1.585631        43.1472 
 460   0.0000       1.591992        43.3203 
 461   0.0000       1.595561        43.4174 
 462   0.0000       1.603562        43.6351 
 463   0.0000       1.606797        43.7232 
 464   0.0000       1.613403        43.9029 
 465   0.0000       1.620081        44.0846 
 466   0.0000       1.624053        44.1927 
 467   0.0000       1.630020        44.3551 
 468   0.0000       1.640899        44.6511 
 469   0.0000       1.648654        44.8622 
 470   0.0000       1.651485        44.9392 
 471   0.0000       1.659066        45.1455 
 472   0.0000       1.664324        45.2885 
 473   0.0000       1.667723        45.3810 
 474   0.0000       1.670349        45.4525 
 475   0.0000       1.681560        45.7576 
 476   0.0000       1.687831        45.9282 
 477   0.0000       1.694451        46.1084 
 478   0.0000       1.697965        46.2040 
 479   0.0000       1.702933        46.3392 
 480   0.0000       1.705403        46.4064 
 481   0.0000       1.705948        46.4212 
 482   0.0000       1.713850        46.6362 
 483   0.0000       1.716644        46.7123 
 484   0.0000       1.719315        46.7849 
 485   0.0000       1.732817        47.1523 
 486   0.0000       1.735576        47.2274 
 487   0.0000       1.738154        47.2976 
 488   0.0000       1.743960        47.4556 
 489   0.0000       1.751043        47.6483 
 490   0.0000       1.753299        47.7097 
 491   0.0000       1.754421        47.7402 
 492   0.0000       1.763465        47.9863 
 493   0.0000       1.774253        48.2799 
 494   0.0000       1.777491        48.3680 
 495   0.0000       1.784280        48.5527 
 496   0.0000       1.787066        48.6285 
 497   0.0000       1.791972        48.7620 
 498   0.0000       1.794558        48.8324 
 499   0.0000       1.798063        48.9278 
 500   0.0000       1.802034        49.0358 
 501   0.0000       1.804622        49.1063 
 502   0.0000       1.815115        49.3918 
 503   0.0000       1.824131        49.6371 
 504   0.0000       1.824958        49.6596 
 505   0.0000       1.830832        49.8195 
 506   0.0000       1.836082        49.9623 
 507   0.0000       1.842831        50.1460 
 508   0.0000       1.846370        50.2423 
 509   0.0000       1.853620        50.4396 
 510   0.0000       1.858363        50.5686 
 511   0.0000       1.861357        50.6501 
 512   0.0000       1.867215        50.8095 
 513   0.0000       1.873724        50.9866 
 514   0.0000       1.877437        51.0877 
 515   0.0000       1.879734        51.1502 
 516   0.0000       1.884365        51.2762 
 517   0.0000       1.889755        51.4228 
 518   0.0000       1.896561        51.6081 
 519   0.0000       1.903431        51.7950 
 520   0.0000       1.908900        51.9438 
 521   0.0000       1.916906        52.1617 
 522   0.0000       1.926010        52.4094 
 523   0.0000       1.930481        52.5311 
 524   0.0000       1.934386        52.6373 
 525   0.0000       1.936045        52.6825 
 526   0.0000       1.945685        52.9448 
 527   0.0000       1.948658        53.0257 
 528   0.0000       1.954132        53.1746 
 529   0.0000       1.961479        53.3746 
 530   0.0000       1.970450        53.6187 
 531   0.0000       1.972518        53.6749 
 532   0.0000       1.978550        53.8391 
 533   0.0000       1.987516        54.0831 
 534   0.0000       1.994514        54.2735 
 535   0.0000       1.997957        54.3672 
 536   0.0000       2.005044        54.5600 
 537   0.0000       2.012951        54.7752 
 538   0.0000       2.017817        54.9076 
 539   0.0000       2.025243        55.1097 
 540   0.0000       2.030182        55.2441 
 541   0.0000       2.033361        55.3306 
 542   0.0000       2.039248        55.4908 
 543   0.0000       2.041062        55.5401 
 544   0.0000       2.050107        55.7862 
 545   0.0000       2.066313        56.2272 
 546   0.0000       2.068622        56.2901 
 547   0.0000       2.079337        56.5816 
 548   0.0000       2.083400        56.6922 
 549   0.0000       2.089962        56.8708 
 550   0.0000       2.096649        57.0527 
 551   0.0000       2.102673        57.2166 
 552   0.0000       2.105468        57.2927 
 553   0.0000       2.110903        57.4406 
 554   0.0000       2.113305        57.5060 
 555   0.0000       2.124534        57.8115 
 556   0.0000       2.136152        58.1277 
 557   0.0000       2.140357        58.2421 
 558   0.0000       2.148177        58.4549 
 559   0.0000       2.156169        58.6723 
 560   0.0000       2.167536        58.9816 
 561   0.0000       2.172427        59.1148 
 562   0.0000       2.181097        59.3507 
 563   0.0000       2.186914        59.5090 
 564   0.0000       2.190434        59.6047 
 565   0.0000       2.202280        59.9271 
 566   0.0000       2.211388        60.1749 
 567   0.0000       2.215129        60.2767 
 568   0.0000       2.222349        60.4732 
 569   0.0000       2.227364        60.6097 
 570   0.0000       2.235098        60.8201 
 571   0.0000       2.246020        61.1173 
 572   0.0000       2.248906        61.1958 
 573   0.0000       2.259891        61.4948 
 574   0.0000       2.270771        61.7908 
 575   0.0000       2.274075        61.8807 
 576   0.0000       2.285710        62.1973 
 577   0.0000       2.289465        62.2995 
 578   0.0000       2.293327        62.4046 
 579   0.0000       2.294843        62.4459 
 580   0.0000       2.300121        62.5895 
 581   0.0000       2.313928        62.9652 
 582   0.0000       2.323779        63.2332 
 583   0.0000       2.326836        63.3164 
 584   0.0000       2.333994        63.5112 
 585   0.0000       2.338375        63.6304 
 586   0.0000       2.344810        63.8055 
 587   0.0000       2.352906        64.0258 
 588   0.0000       2.369331        64.4728 
 589   0.0000       2.372356        64.5551 
 590   0.0000       2.378227        64.7148 
 591   0.0000       2.388875        65.0046 
 592   0.0000       2.398022        65.2535 
 593   0.0000       2.404267        65.4234 
 594   0.0000       2.408801        65.5468 
 595   0.0000       2.421535        65.8933 
 596   0.0000       2.422920        65.9310 
 597   0.0000       2.430168        66.1282 
 598   0.0000       2.439597        66.3848 
 599   0.0000       2.445385        66.5423 
 600   0.0000       2.451685        66.7137 
 601   0.0000       2.466152        67.1074 
 602   0.0000       2.469611        67.2015 
 603   0.0000       2.477934        67.4280 
 604   0.0000       2.482157        67.5429 
 605   0.0000       2.494380        67.8755 
 606   0.0000       2.503339        68.1193 
 607   0.0000       2.507591        68.2350 
 608   0.0000       2.515440        68.4486 
 609   0.0000       2.542633        69.1886 
 610   0.0000       2.554366        69.5078 
 611   0.0000       2.558824        69.6291 
 612   0.0000       2.569860        69.9294 
 613   0.0000       2.586072        70.3706 
 614   0.0000       2.595136        70.6172 
 615   0.0000       2.626604        71.4735 
 616   0.0000       2.629516        71.5528 
 617   0.0000       2.632101        71.6231 
 618   0.0000       2.652633        72.1818 
 619   0.0000       2.663282        72.4716 
 620   0.0000       2.665833        72.5410 
 621   0.0000       2.680562        72.9418 
 622   0.0000       2.686720        73.1094 
 623   0.0000       2.698609        73.4329 
 624   0.0000       2.705087        73.6092 
 625   0.0000       2.708883        73.7125 
 626   0.0000       2.722846        74.0924 
 627   0.0000       2.726794        74.1998 
 628   0.0000       2.732757        74.3621 
 629   0.0000       2.738209        74.5105 
 630   0.0000       2.751758        74.8792 
 631   0.0000       2.759446        75.0883 
 632   0.0000       2.777099        75.5687 
 633   0.0000       2.780614        75.6643 
 634   0.0000       2.783214        75.7351 
 635   0.0000       2.798374        76.1476 
 636   0.0000       2.802701        76.2654 
 637   0.0000       2.834718        77.1366 
 638   0.0000       2.841426        77.3191 
 639   0.0000       2.855864        77.7120 
 640   0.0000       2.865663        77.9787 
 641   0.0000       2.875684        78.2513 
 642   0.0000       2.893475        78.7355 
 643   0.0000       2.907917        79.1284 
 644   0.0000       2.916488        79.3617 
 645   0.0000       2.923014        79.5393 
 646   0.0000       2.942821        80.0782 
 647   0.0000       2.956883        80.4609 
 648   0.0000       2.960263        80.5528 
 649   0.0000       2.969745        80.8109 
 650   0.0000       2.985916        81.2509 
 651   0.0000       3.005578        81.7859 
 652   0.0000       3.021585        82.2215 
 653   0.0000       3.043993        82.8313 
 654   0.0000       3.055258        83.1378 
 655   0.0000       3.062052        83.3227 
 656   0.0000       3.078635        83.7739 
 657   0.0000       3.081834        83.8610 
 658   0.0000       3.105569        84.5068 
 659   0.0000       3.128205        85.1228 
 660   0.0000       3.142971        85.5246 
 661   0.0000       3.158157        85.9378 
 662   0.0000       3.168610        86.2223 
 663   0.0000       3.177806        86.4725 
 664   0.0000       3.186856        86.7188 
 665   0.0000       3.194338        86.9224 
 666   0.0000       3.213994        87.4572 
 667   0.0000       3.217137        87.5428 
 668   0.0000       3.225451        87.7690 
 669   0.0000       3.236686        88.0747 
 670   0.0000       3.246912        88.3530 
 671   0.0000       3.250484        88.4502 
 672   0.0000       3.259123        88.6852 
 673   0.0000       3.272102        89.0384 
 674   0.0000       3.286226        89.4227 
 675   0.0000       3.305427        89.9452 
 676   0.0000       3.309869        90.0661 
 677   0.0000       3.319541        90.3293 
 678   0.0000       3.322299        90.4044 
 679   0.0000       3.333091        90.6980 
 680   0.0000       3.337856        90.8277 
 681   0.0000       3.341715        90.9327 
 682   0.0000       3.357883        91.3726 
 683   0.0000       3.360577        91.4460 
 684   0.0000       3.370062        91.7040 
 685   0.0000       3.382164        92.0334 
 686   0.0000       3.399081        92.4937 
 687   0.0000       3.412643        92.8627 
 688   0.0000       3.420392        93.0736 
 689   0.0000       3.425109        93.2020 
 690   0.0000       3.431109        93.3652 
 691   0.0000       3.442627        93.6786 
 692   0.0000       3.445452        93.7555 
 693   0.0000       3.461128        94.1821 
 694   0.0000       3.480692        94.7145 
 695   0.0000       3.486219        94.8648 
 696   0.0000       3.489356        94.9502 
 697   0.0000       3.501424        95.2786 
 698   0.0000       3.507428        95.4420 
 699   0.0000       3.519304        95.7651 
 700   0.0000       3.523552        95.8807 
 701   0.0000       3.529540        96.0437 
 702   0.0000       3.533447        96.1500 
 703   0.0000       3.539472        96.3139 
 704   0.0000       3.557578        96.8066 
 705   0.0000       3.571147        97.1759 
 706   0.0000       3.583204        97.5039 
 707   0.0000       3.585452        97.5651 
 708   0.0000       3.599875        97.9576 
 709   0.0000       3.605024        98.0977 
 710   0.0000       3.607784        98.1728 
 711   0.0000       3.621817        98.5546 
 712   0.0000       3.625714        98.6607 
 713   0.0000       3.630792        98.7989 
 714   0.0000       3.636875        98.9644 
 715   0.0000       3.645462        99.1981 
 716   0.0000       3.659457        99.5789 
 717   0.0000       3.667424        99.7957 
 718   0.0000       3.670260        99.8729 
 719   0.0000       3.683477       100.2325 
 720   0.0000       3.687838       100.3512 
 721   0.0000       3.692947       100.4902 
 722   0.0000       3.702589       100.7526 
 723   0.0000       3.712934       101.0341 
 724   0.0000       3.721261       101.2607 
 725   0.0000       3.729174       101.4760 
 726   0.0000       3.737057       101.6905 
 727   0.0000       3.744234       101.8858 
 728   0.0000       3.750923       102.0678 
 729   0.0000       3.755667       102.1969 
 730   0.0000       3.761135       102.3457 
 731   0.0000       3.771576       102.6298 
 732   0.0000       3.783734       102.9606 
 733   0.0000       3.788369       103.0868 
 734   0.0000       3.792923       103.2107 
 735   0.0000       3.800410       103.4144 
 736   0.0000       3.806207       103.5722 
 737   0.0000       3.815040       103.8125 
 738   0.0000       3.826024       104.1114 
 739   0.0000       3.834519       104.3426 
 740   0.0000       3.841897       104.5433 
 741   0.0000       3.852457       104.8307 
 742   0.0000       3.856492       104.9405 
 743   0.0000       3.865746       105.1923 
 744   0.0000       3.870031       105.3089 
 745   0.0000       3.876988       105.4982 
 746   0.0000       3.884317       105.6976 
 747   0.0000       3.890308       105.8606 
 748   0.0000       3.893197       105.9393 
 749   0.0000       3.900603       106.1408 
 750   0.0000       3.913136       106.4818 
 751   0.0000       3.917313       106.5955 
 752   0.0000       3.922248       106.7298 
 753   0.0000       3.927889       106.8833 
 754   0.0000       3.936272       107.1114 
 755   0.0000       3.940307       107.2212 
 756   0.0000       3.944695       107.3406 
 757   0.0000       3.947904       107.4279 
 758   0.0000       3.957108       107.6784 
 759   0.0000       3.957982       107.7022 
 760   0.0000       3.969097       108.0046 
 761   0.0000       3.972730       108.1035 
 762   0.0000       3.990540       108.5881 
 763   0.0000       3.999685       108.8370 
 764   0.0000       4.005472       108.9944 
 765   0.0000       4.006213       109.0146 
 766   0.0000       4.022610       109.4608 
 767   0.0000       4.035358       109.8077 
 768   0.0000       4.042900       110.0129 
 769   0.0000       4.047911       110.1493 
 770   0.0000       4.055014       110.3425 
 771   0.0000       4.062190       110.5378 
 772   0.0000       4.071935       110.8030 
 773   0.0000       4.080137       111.0262 
 774   0.0000       4.085819       111.1808 
 775   0.0000       4.088584       111.2560 
 776   0.0000       4.097490       111.4984 
 777   0.0000       4.105076       111.7048 
 778   0.0000       4.121049       112.1394 
 779   0.0000       4.124286       112.2275 
 780   0.0000       4.132114       112.4405 
 781   0.0000       4.132858       112.4608 
 782   0.0000       4.146391       112.8290 
 783   0.0000       4.151870       112.9781 
 784   0.0000       4.163157       113.2853 
 785   0.0000       4.169993       113.4713 
 786   0.0000       4.181287       113.7786 
 787   0.0000       4.193971       114.1238 
 788   0.0000       4.200062       114.2895 
 789   0.0000       4.203707       114.3887 
 790   0.0000       4.210345       114.5693 
 791   0.0000       4.215902       114.7205 
 792   0.0000       4.220701       114.8511 
 793   0.0000       4.240285       115.3840 
 794   0.0000       4.241476       115.4164 
 795   0.0000       4.251488       115.6889 
 796   0.0000       4.261283       115.9554 
 797   0.0000       4.264813       116.0515 
 798   0.0000       4.277521       116.3973 
 799   0.0000       4.289466       116.7223 
 800   0.0000       4.303295       117.0986 
 801   0.0000       4.306312       117.1807 
 802   0.0000       4.321808       117.6024 
 803   0.0000       4.324766       117.6829 
 804   0.0000       4.327079       117.7458 
 805   0.0000       4.339371       118.0803 
 806   0.0000       4.349073       118.3443 
 807   0.0000       4.362809       118.7181 
 808   0.0000       4.367552       118.8471 
 809   0.0000       4.371996       118.9681 
 810   0.0000       4.387544       119.3911 
 811   0.0000       4.395902       119.6186 
 812   0.0000       4.401821       119.7796 
 813   0.0000       4.413181       120.0887 
 814   0.0000       4.434512       120.6692 
 815   0.0000       4.439621       120.8082 
 816   0.0000       4.442669       120.8912 
 817   0.0000       4.445138       120.9584 
 818   0.0000       4.458492       121.3217 
 819   0.0000       4.470893       121.6592 
 820   0.0000       4.476694       121.8170 
 821   0.0000       4.478999       121.8798 
 822   0.0000       4.499584       122.4399 
 823   0.0000       4.506003       122.6146 
 824   0.0000       4.509710       122.7155 
 825   0.0000       4.516488       122.8999 
 826   0.0000       4.528473       123.2260 
 827   0.0000       4.535897       123.4280 
 828   0.0000       4.551418       123.8504 
 829   0.0000       4.564775       124.2139 
 830   0.0000       4.587231       124.8249 
 831   0.0000       4.590747       124.9206 
 832   0.0000       4.605757       125.3290 
 833   0.0000       4.608430       125.4018 
 834   0.0000       4.618481       125.6753 
 835   0.0000       4.626077       125.8820 
 836   0.0000       4.638997       126.2335 
 837   0.0000       4.644405       126.3807 
 838   0.0000       4.661148       126.8363 
 839   0.0000       4.679195       127.3274 
 840   0.0000       4.680620       127.3661 
 841   0.0000       4.704018       128.0028 
 842   0.0000       4.706943       128.0824 
 843   0.0000       4.712956       128.2461 
 844   0.0000       4.725097       128.5764 
 845   0.0000       4.737269       128.9077 
 846   0.0000       4.756147       129.4213 
 847   0.0000       4.761901       129.5779 
 848   0.0000       4.785939       130.2320 
 849   0.0000       4.786982       130.2604 
 850   0.0000       4.796237       130.5122 
 851   0.0000       4.806032       130.7788 
 852   0.0000       4.813563       130.9837 
 853   0.0000       4.825447       131.3071 
 854   0.0000       4.830041       131.4321 
 855   0.0000       4.856372       132.1486 
 856   0.0000       4.870195       132.5247 
 857   0.0000       4.894219       133.1785 
 858   0.0000       4.896877       133.2508 
 859   0.0000       4.900856       133.3591 
 860   0.0000       4.904653       133.4624 
 861   0.0000       4.924061       133.9905 
 862   0.0000       4.937455       134.3550 
 863   0.0000       4.947789       134.6362 
 864   0.0000       4.955682       134.8510 
 865   0.0000       4.962751       135.0433 
 866   0.0000       4.970619       135.2574 
 867   0.0000       4.992268       135.8465 
 868   0.0000       4.998698       136.0215 
 869   0.0000       5.009484       136.3150 
 870   0.0000       5.025745       136.7575 
 871   0.0000       5.031064       136.9022 
 872   0.0000       5.034415       136.9934 
 873   0.0000       5.051556       137.4598 
 874   0.0000       5.056009       137.5810 
 875   0.0000       5.070364       137.9716 
 876   0.0000       5.084601       138.3590 
 877   0.0000       5.097772       138.7174 
 878   0.0000       5.120599       139.3386 
 879   0.0000       5.136137       139.7614 
 880   0.0000       5.140060       139.8682 
 881   0.0000       5.152476       140.2060 
 882   0.0000       5.156898       140.3263 
 883   0.0000       5.174734       140.8117 
 884   0.0000       5.183788       141.0580 
 885   0.0000       5.205882       141.6593 
 886   0.0000       5.220266       142.0507 
 887   0.0000       5.224743       142.1725 
 888   0.0000       5.240433       142.5994 
 889   0.0000       5.250926       142.8850 
 890   0.0000       5.263546       143.2284 
 891   0.0000       5.265240       143.2745 
 892   0.0000       5.281106       143.7062 
 893   0.0000       5.295201       144.0897 
 894   0.0000       5.320504       144.7783 
 895   0.0000       5.329949       145.0353 
 896   0.0000       5.350316       145.5895 
 897   0.0000       5.365654       146.0069 
 898   0.0000       5.371707       146.1716 
 899   0.0000       5.381071       146.4264 
 900   0.0000       5.387787       146.6092 
 901   0.0000       5.396810       146.8547 
 902   0.0000       5.402841       147.0188 
 903   0.0000       5.412197       147.2734 
 904   0.0000       5.436900       147.9456 
 905   0.0000       5.440848       148.0530 
 906   0.0000       5.448596       148.2638 
 907   0.0000       5.460052       148.5756 
 908   0.0000       5.477138       149.0405 
 909   0.0000       5.484952       149.2531 
 910   0.0000       5.496606       149.5703 
 911   0.0000       5.520277       150.2144 
 912   0.0000       5.542096       150.8081 
 913   0.0000       5.554530       151.1465 
 914   0.0000       5.559749       151.2885 
 915   0.0000       5.564328       151.4131 
 916   0.0000       5.585387       151.9861 
 917   0.0000       5.591402       152.1498 
 918   0.0000       5.599499       152.3701 
 919   0.0000       5.619342       152.9101 
 920   0.0000       5.626195       153.0965 
 921   0.0000       5.637784       153.4119 
 922   0.0000       5.645729       153.6281 
 923   0.0000       5.655095       153.8830 
 924   0.0000       5.661963       154.0699 
 925   0.0000       5.672424       154.3545 
 926   0.0000       5.683048       154.6436 
 927   0.0000       5.689438       154.8175 
 928   0.0000       5.705000       155.2409 
 929   0.0000       5.712101       155.4342 
 930   0.0000       5.714365       155.4958 
 931   0.0000       5.741173       156.2252 
 932   0.0000       5.750090       156.4679 
 933   0.0000       5.757669       156.6741 
 934   0.0000       5.776970       157.1994 
 935   0.0000       5.786751       157.4655 
 936   0.0000       5.808548       158.0586 
 937   0.0000       5.818153       158.3200 
 938   0.0000       5.830161       158.6467 
 939   0.0000       5.843879       159.0200 
 940   0.0000       5.856910       159.3746 
 941   0.0000       5.890469       160.2878 
 942   0.0000       5.913841       160.9238 
 943   0.0000       5.919028       161.0649 
 944   0.0000       5.942917       161.7150 
 945   0.0000       5.977250       162.6492 
 946   0.0000       6.038992       164.3293 
 947   0.0000       6.068192       165.1239 
 948   0.0000       6.126552       166.7119 
 949   0.0000       6.138229       167.0297 
 950   0.0000       6.157647       167.5581 
 951   0.0000       6.177676       168.1031 
 952   0.0000       6.182956       168.2468 
 953   0.0000       6.200176       168.7154 
 954   0.0000       6.226127       169.4215 
 955   0.0000       6.240931       169.8244 
 956   0.0000       6.248111       170.0197 
 957   0.0000       6.254632       170.1972 
 958   0.0000       6.259970       170.3425 
 959   0.0000       6.282662       170.9599 
 960   0.0000       6.311897       171.7555 
 961   0.0000       6.335447       172.3963 
 962   0.0000       6.361036       173.0926 
 963   0.0000       6.368036       173.2831 
 964   0.0000       6.400284       174.1606 
 965   0.0000       6.405567       174.3043 
 966   0.0000       6.429764       174.9628 
 967   0.0000       6.448841       175.4819 
 968   0.0000       6.517239       177.3431 
 969   0.0000       6.521729       177.4653 
 970   0.0000       6.590994       179.3501 
 971   0.0000       6.720071       182.8624 
 972   0.0000       6.825900       185.7422 
 973   0.0000       6.866817       186.8556 
 974   0.0000       6.883903       187.3205 
 975   0.0000       6.908737       187.9963 
 976   0.0000       6.935706       188.7301 
 977   0.0000       6.944422       188.9673 
 978   0.0000       6.969362       189.6460 
 979   0.0000       6.985747       190.0918 
 980   0.0000       7.022064       191.0801 
 981   0.0000       7.027700       191.2334 
 982   0.0000       7.090973       192.9552 
 983   0.0000       7.101061       193.2297 
 984   0.0000       7.174027       195.2152 
 985   0.0000       7.204516       196.0449 
 986   0.0000       7.370681       200.5664 
 987   0.0000       7.419883       201.9053 
 988   0.0000       7.513836       204.4619 
 989   0.0000       7.538879       205.1433 
 990   0.0000       7.569731       205.9829 
 991   0.0000       7.616078       207.2440 
 992   0.0000       7.719387       210.0552 
 993   0.0000       7.772507       211.5007 
 994   0.0000       7.856002       213.7727 
 995   0.0000       7.905555       215.1211 
 996   0.0000       8.067393       219.5249 
 997   0.0000       8.161064       222.0738 
 998   0.0000       8.358916       227.4577 
 999   0.0000       9.438035       256.8220 
 1000   0.0000       9.454538       257.2711 
 1001   0.0000       9.470871       257.7155 
 1002   0.0000       9.485876       258.1238 
 1003   0.0000       9.488951       258.2075 
 1004   0.0000       9.526466       259.2283 
 1005   0.0000       9.777268       266.0530 
 1006   0.0000      10.100491       274.8483 
 1007   0.0000      10.132519       275.7199 
 1008   0.0000      10.149888       276.1925 
 1009   0.0000      10.221943       278.1532 
 1010   0.0000      10.226874       278.2874 
 1011   0.0000      10.262546       279.2581 
 1012   0.0000      10.406279       283.1693 
 1013   0.0000      10.439900       284.0841 
 1014   0.0000      10.571946       287.6773 
 1015   0.0000      17.247477       469.3277 
 1016   0.0000      18.072515       491.7781 
 1017   0.0000      18.536982       504.4169 
 1018   0.0000      18.662937       507.8443 
 1019   0.0000      18.904299       514.4121 
 1020   0.0000      19.078427       519.1504 
 1021   0.0000      19.595068       533.2089 
 1022   0.0000      20.233881       550.5919 
 1023   0.0000      20.763777       565.0111 
 1024   0.0000      22.016427       599.0974 

                 SPIN DOWN ORBITALS
  NO   OCC          E(Eh)            E(eV) 
   0   1.0000    -261.546946     -7117.0542 
   1   1.0000    -104.774965     -2851.0717 
   2   1.0000    -104.774393     -2851.0562 
   3   1.0000    -104.771986     -2850.9907 
   4   1.0000     -32.056326      -872.2970 
   5   1.0000     -27.534393      -749.2489 
   6   1.0000     -27.534234      -749.2446 
   7   1.0000     -27.533764      -749.2318 
   8   1.0000     -20.546450      -559.0973 
   9   1.0000     -11.383815      -309.7694 
  10   1.0000     -11.370045      -309.3947 
  11   1.0000     -11.279621      -306.9341 
  12   1.0000     -11.272344      -306.7361 
  13   1.0000     -11.266627      -306.5805 
  14   1.0000     -11.261922      -306.4525 
  15   1.0000     -11.253681      -306.2282 
  16   1.0000     -11.248231      -306.0799 
  17   1.0000     -10.501462      -285.7593 
  18   1.0000     -10.500799      -285.7413 
  19   1.0000     -10.498424      -285.6766 
  20   1.0000      -7.967336      -216.8022 
  21   1.0000      -7.966817      -216.7881 
  22   1.0000      -7.966759      -216.7865 
  23   1.0000      -7.966743      -216.7861 
  24   1.0000      -7.966133      -216.7695 
  25   1.0000      -7.966036      -216.7669 
  26   1.0000      -7.964372      -216.7216 
  27   1.0000      -7.963673      -216.7026 
  28   1.0000      -7.963592      -216.7004 
  29   1.0000      -4.131579      -112.4260 
  30   1.0000      -2.653360       -72.2016 
  31   1.0000      -2.653271       -72.1992 
  32   1.0000      -2.652697       -72.1836 
  33   1.0000      -1.379278       -37.5321 
  34   1.0000      -1.176934       -32.0260 
  35   1.0000      -1.083341       -29.4792 
  36   1.0000      -1.040572       -28.3154 
  37   1.0000      -1.033459       -28.1218 
  38   1.0000      -1.022434       -27.8218 
  39   1.0000      -1.020006       -27.7558 
  40   1.0000      -1.003315       -27.3016 
  41   1.0000      -0.981633       -26.7116 
  42   1.0000      -0.931673       -25.3521 
  43   1.0000      -0.797614       -21.7042 
  44   1.0000      -0.766792       -20.8655 
  45   1.0000      -0.698152       -18.9977 
  46   1.0000      -0.693235       -18.8639 
  47   1.0000      -0.677688       -18.4408 
  48   1.0000      -0.652636       -17.7591 
  49   1.0000      -0.644168       -17.5287 
  50   1.0000      -0.625915       -17.0320 
  51   1.0000      -0.600042       -16.3280 
  52   1.0000      -0.593314       -16.1449 
  53   1.0000      -0.590065       -16.0565 
  54   1.0000      -0.583585       -15.8802 
  55   1.0000      -0.574847       -15.6424 
  56   1.0000      -0.563595       -15.3362 
  57   1.0000      -0.556552       -15.1446 
  58   1.0000      -0.547410       -14.8958 
  59   1.0000      -0.532856       -14.4998 
  60   1.0000      -0.529059       -14.3964 
  61   1.0000      -0.503678       -13.7058 
  62   1.0000      -0.474114       -12.9013 
  63   1.0000      -0.466429       -12.6922 
  64   1.0000      -0.461550       -12.5594 
  65   1.0000      -0.437667       -11.9095 
  66   1.0000      -0.434247       -11.8165 
  67   1.0000      -0.433245       -11.7892 
  68   1.0000      -0.422998       -11.5104 
  69   1.0000      -0.412697       -11.2301 
  70   1.0000      -0.400253       -10.8914 
  71   1.0000      -0.386230       -10.5098 
  72   0.0000       0.008478         0.2307 
  73   0.0000       0.019450         0.5293 
  74   0.0000       0.021635         0.5887 
  75   0.0000       0.030018         0.8168 
  76   0.0000       0.032428         0.8824 
  77   0.0000       0.037852         1.0300 
  78   0.0000       0.040661         1.1064 
  79   0.0000       0.043725         1.1898 
  80   0.0000       0.044820         1.2196 
  81   0.0000       0.046881         1.2757 
  82   0.0000       0.056311         1.5323 
  83   0.0000       0.059818         1.6277 
  84   0.0000       0.061405         1.6709 
  85   0.0000       0.064545         1.7564 
  86   0.0000       0.067695         1.8421 
  87   0.0000       0.071400         1.9429 
  88   0.0000       0.073453         1.9988 
  89   0.0000       0.079154         2.1539 
  90   0.0000       0.088918         2.4196 
  91   0.0000       0.089583         2.4377 
  92   0.0000       0.091336         2.4854 
  93   0.0000       0.094207         2.5635 
  94   0.0000       0.099793         2.7155 
  95   0.0000       0.102320         2.7843 
  96   0.0000       0.109569         2.9815 
  97   0.0000       0.114689         3.1208 
  98   0.0000       0.118749         3.2313 
  99   0.0000       0.122161         3.3242 
 100   0.0000       0.123216         3.3529 
 101   0.0000       0.124855         3.3975 
 102   0.0000       0.125115         3.4045 
 103   0.0000       0.126532         3.4431 
 104   0.0000       0.129137         3.5140 
 105   0.0000       0.129499         3.5238 
 106   0.0000       0.132817         3.6141 
 107   0.0000       0.133385         3.6296 
 108   0.0000       0.137134         3.7316 
 109   0.0000       0.137274         3.7354 
 110   0.0000       0.139307         3.7907 
 111   0.0000       0.141739         3.8569 
 112   0.0000       0.148164         4.0318 
 113   0.0000       0.149849         4.0776 
 114   0.0000       0.152783         4.1574 
 115   0.0000       0.155071         4.2197 
 116   0.0000       0.157208         4.2778 
 117   0.0000       0.160624         4.3708 
 118   0.0000       0.164810         4.4847 
 119   0.0000       0.168028         4.5723 
 120   0.0000       0.170211         4.6317 
 121   0.0000       0.174258         4.7418 
 122   0.0000       0.177379         4.8267 
 123   0.0000       0.178340         4.8529 
 124   0.0000       0.185210         5.0398 
 125   0.0000       0.188788         5.1372 
 126   0.0000       0.192921         5.2497 
 127   0.0000       0.194157         5.2833 
 128   0.0000       0.200298         5.4504 
 129   0.0000       0.202372         5.5068 
 130   0.0000       0.206482         5.6187 
 131   0.0000       0.207419         5.6442 
 132   0.0000       0.209945         5.7129 
 133   0.0000       0.212219         5.7748 
 134   0.0000       0.216739         5.8978 
 135   0.0000       0.220066         5.9883 
 136   0.0000       0.225506         6.1363 
 137   0.0000       0.227983         6.2037 
 138   0.0000       0.234413         6.3787 
 139   0.0000       0.235988         6.4216 
 140   0.0000       0.237235         6.4555 
 141   0.0000       0.241218         6.5639 
 142   0.0000       0.244213         6.6454 
 143   0.0000       0.246260         6.7011 
 144   0.0000       0.248200         6.7539 
 145   0.0000       0.254047         6.9130 
 146   0.0000       0.256515         6.9801 
 147   0.0000       0.260427         7.0866 
 148   0.0000       0.262333         7.1384 
 149   0.0000       0.265807         7.2330 
 150   0.0000       0.270478         7.3601 
 151   0.0000       0.279115         7.5951 
 152   0.0000       0.283424         7.7124 
 153   0.0000       0.285949         7.7811 
 154   0.0000       0.289416         7.8754 
 155   0.0000       0.295552         8.0424 
 156   0.0000       0.301959         8.2167 
 157   0.0000       0.305204         8.3050 
 158   0.0000       0.308093         8.3836 
 159   0.0000       0.309513         8.4223 
 160   0.0000       0.311109         8.4657 
 161   0.0000       0.316328         8.6077 
 162   0.0000       0.320757         8.7282 
 163   0.0000       0.325112         8.8468 
 164   0.0000       0.330188         8.9849 
 165   0.0000       0.331436         9.0188 
 166   0.0000       0.335329         9.1248 
 167   0.0000       0.342495         9.3198 
 168   0.0000       0.343588         9.3495 
 169   0.0000       0.347808         9.4643 
 170   0.0000       0.351797         9.5729 
 171   0.0000       0.355794         9.6816 
 172   0.0000       0.362268         9.8578 
 173   0.0000       0.363825         9.9002 
 174   0.0000       0.365998         9.9593 
 175   0.0000       0.370284        10.0759 
 176   0.0000       0.371482        10.1085 
 177   0.0000       0.375367        10.2142 
 178   0.0000       0.377490        10.2720 
 179   0.0000       0.380291        10.3483 
 180   0.0000       0.387581        10.5466 
 181   0.0000       0.389304        10.5935 
 182   0.0000       0.390358        10.6222 
 183   0.0000       0.393330        10.7031 
 184   0.0000       0.396097        10.7783 
 185   0.0000       0.401985        10.9386 
 186   0.0000       0.404439        11.0053 
 187   0.0000       0.405240        11.0271 
 188   0.0000       0.409605        11.1459 
 189   0.0000       0.414041        11.2666 
 190   0.0000       0.416734        11.3399 
 191   0.0000       0.418655        11.3922 
 192   0.0000       0.424354        11.5473 
 193   0.0000       0.425519        11.5790 
 194   0.0000       0.429725        11.6934 
 195   0.0000       0.437628        11.9085 
 196   0.0000       0.438601        11.9350 
 197   0.0000       0.447755        12.1840 
 198   0.0000       0.450858        12.2685 
 199   0.0000       0.454934        12.3794 
 200   0.0000       0.458838        12.4856 
 201   0.0000       0.460342        12.5265 
 202   0.0000       0.462042        12.5728 
 203   0.0000       0.467306        12.7160 
 204   0.0000       0.470357        12.7991 
 205   0.0000       0.472552        12.8588 
 206   0.0000       0.474672        12.9165 
 207   0.0000       0.478128        13.0105 
 208   0.0000       0.479928        13.0595 
 209   0.0000       0.483884        13.1671 
 210   0.0000       0.488183        13.2841 
 211   0.0000       0.491703        13.3799 
 212   0.0000       0.492879        13.4119 
 213   0.0000       0.498795        13.5729 
 214   0.0000       0.502727        13.6799 
 215   0.0000       0.504139        13.7183 
 216   0.0000       0.506209        13.7746 
 217   0.0000       0.509436        13.8625 
 218   0.0000       0.511759        13.9257 
 219   0.0000       0.515504        14.0276 
 220   0.0000       0.516821        14.0634 
 221   0.0000       0.520115        14.1530 
 222   0.0000       0.524268        14.2660 
 223   0.0000       0.529934        14.4202 
 224   0.0000       0.533202        14.5092 
 225   0.0000       0.536215        14.5912 
 226   0.0000       0.540197        14.6995 
 227   0.0000       0.542815        14.7707 
 228   0.0000       0.547847        14.9077 
 229   0.0000       0.549493        14.9525 
 230   0.0000       0.552060        15.0223 
 231   0.0000       0.556441        15.1415 
 232   0.0000       0.562381        15.3032 
 233   0.0000       0.567335        15.4380 
 234   0.0000       0.569499        15.4969 
 235   0.0000       0.573343        15.6015 
 236   0.0000       0.577987        15.7278 
 237   0.0000       0.580103        15.7854 
 238   0.0000       0.583296        15.8723 
 239   0.0000       0.584064        15.8932 
 240   0.0000       0.591153        16.0861 
 241   0.0000       0.595624        16.2078 
 242   0.0000       0.601465        16.3667 
 243   0.0000       0.601703        16.3732 
 244   0.0000       0.605439        16.4748 
 245   0.0000       0.611288        16.6340 
 246   0.0000       0.612396        16.6641 
 247   0.0000       0.619253        16.8507 
 248   0.0000       0.622746        16.9458 
 249   0.0000       0.627239        17.0680 
 250   0.0000       0.628677        17.1072 
 251   0.0000       0.634585        17.2679 
 252   0.0000       0.634970        17.2784 
 253   0.0000       0.638148        17.3649 
 254   0.0000       0.642602        17.4861 
 255   0.0000       0.648269        17.6403 
 256   0.0000       0.649234        17.6665 
 257   0.0000       0.653383        17.7795 
 258   0.0000       0.659657        17.9502 
 259   0.0000       0.662827        18.0364 
 260   0.0000       0.666711        18.1421 
 261   0.0000       0.673678        18.3317 
 262   0.0000       0.675219        18.3736 
 263   0.0000       0.675580        18.3835 
 264   0.0000       0.685775        18.6609 
 265   0.0000       0.687317        18.7028 
 266   0.0000       0.696473        18.9520 
 267   0.0000       0.697303        18.9746 
 268   0.0000       0.699426        19.0323 
 269   0.0000       0.705265        19.1912 
 270   0.0000       0.713412        19.4129 
 271   0.0000       0.715237        19.4626 
 272   0.0000       0.721779        19.6406 
 273   0.0000       0.725619        19.7451 
 274   0.0000       0.729341        19.8464 
 275   0.0000       0.734354        19.9828 
 276   0.0000       0.736765        20.0484 
 277   0.0000       0.745351        20.2820 
 278   0.0000       0.750972        20.4350 
 279   0.0000       0.754876        20.5412 
 280   0.0000       0.762947        20.7609 
 281   0.0000       0.765429        20.8284 
 282   0.0000       0.767604        20.8876 
 283   0.0000       0.779448        21.2099 
 284   0.0000       0.784608        21.3503 
[...]
  | sigma^2 in % of trace(Dip) retained ...   1.73e+01
  | sigma^2 in % of trace(Dpq) retained ...   1.33e-01
  | Av. % of trace(Di) retained         ...  99.998488161118
  | Av. % of trace(Dp) retained         ...  99.999999308890
  | sigma^2 in % of trace(Di) retained  ...   7.87e-07
  | sigma^2 in % of trace(Dp) retained  ...   5.04e-13
 Distributions of % trace(Dij) recovered:
  |       >= 99.9  ...   104 ( 19.9 % of all IJ-pairs)
  |   [80.0, 90.0) ...    34 (  6.5 % of all IJ-pairs)
  |   [90.0, 99.0) ...   291 ( 55.7 % of all IJ-pairs)
  |   [99.0, 99.9) ...    93 ( 17.8 % of all IJ-pairs)
 Distributions of % trace(Dip) recovered:
  |   [80.0, 90.0) ...    11 (  9.3 % of all IP-pairs)
  |   [90.0, 99.0) ...    65 ( 55.1 % of all IP-pairs)
  |   [99.0, 99.9) ...    42 ( 35.6 % of all IP-pairs)
 Distributions of % trace(Dpq) recovered:
  |       >= 99.9  ...     5 ( 33.3 % of all PQ-pairs)
  |   [99.0, 99.9) ...    10 ( 66.7 % of all PQ-pairs)
 Distributions of % trace(Di) recovered :
  |       >= 99.9  ...    43 (100.0 % of all I-pairs )
 Distributions of % trace(Dp) recovered :
  |       >= 99.9  ...     5 (100.0 % of all P-pairs )

                       ===========================
                       1144 OF 1727 PAIRS ARE KEPT
                       ===========================

 Initial PAO correlation energy (all pairs)    ...  -2.6937727239 Eh
 Energy constituents in PAO basis (Eh):
  | Vijab(+0) ...  -2.2639484671
  | Viab (-1) ...  -0.1755508471
  | Vab  (-2) ...  -0.0573649838
  | Va   (-1) ...  -0.0000417227
  | Vija (+1) ...  -0.0729686186
  | Vij  (+2) ...  -0.0155061211
  | Via  (+0) ...  -0.1082325975
  | Vi   (+1) ...  -0.0001593661
 Initial PNO correlation energy                ...  -2.6595072221 Eh
 Energy constituents in PNO basis (Eh):
  | Vijab(+0) ...  -2.2457388931 (err=  0.0182095740)
  | Viab (-1) ...  -0.1611809139 (err=  0.0143699331)
  | Vab  (-2) ...  -0.0568949369 (err=  0.0004700469)
  | Va   (-1) ...  -0.0000239811 (err=  0.0000177416)
  | Vija (+1) ...  -0.0719387517 (err=  0.0010298669)
  | Vij  (+2) ...  -0.0154490264 (err=  0.0000570947)
  | Via  (+0) ...  -0.1081217643 (err=  0.0001108332)
  | Vi   (+1) ...  -0.0001589546 (err=  0.0000004115)
 Sum of total truncation errors ...   0.0342655018 Eh
  | Pair screening ...   0.0110701547 Eh
  | PNO truncation ...   0.0231953471 Eh

 UMP2 correlation energy (PAO) ...  -2.6889214877
  | alpha-alpha ...  -0.3867336589 (NP_aa=  939)
  | alpha-beta  ...  -1.9950023674 (NP_ab= 1702)
  | beta -beta  ...  -0.3071854614 (NP_bb=  730)
 UMP2 correlation energy (PNO) ...  -2.6542856957
  | alpha-alpha ...  -0.3747220062 (err=  0.0120116527, NP_aa=  607)
  | alpha-beta  ...  -1.9763395683 (err=  0.0186627991, NP_ab= 1119)
  | beta -beta  ...  -0.3032241212 (err=  0.0039613402, NP_bb=  479)
 Sum of total UMP2 truncation errors ...   0.0346357920 Eh
  | Pair screening ...   0.0110847418 Eh
  | PNO truncation ...   0.0235510502 Eh
 Timing for NEV-PNO construction (sec.)
  | Intermediate construction  ..           56.654
  | Amplitude construction     ..           75.371
  | Total time                 ..          132.025
 Making pair pair interaction lists ...      ok
 Total size for 2-ext PNO integrals ...     11.1 MB
Checking the number of SOMO/SOMO doubles PNOs ... 
 #Truncate: (72, 72)[169] -> [84] .. 
 #Truncate: (73, 73)[172] -> [84] .. 
 #Truncate: (74, 74)[171] -> [84] .. 
 #Truncate: (75, 75)[170] -> [84] .. 
 #Truncate: (76, 76)[172] -> [84] .. 

--------------------------------
LOCAL RI TRANSFORMATION (VABPAO)
--------------------------------

Number of PAOs:    1030
Basis functions:   1025 (343 shells)
Aux. functions:    2424 (644 shells)

Processing maps (0.0 sec)
Average map sizes:
   Aux shells -> PAOs           1030.0
   PAOs       -> AO shells       343.0

Calculating integrals (182.1 sec, 37370.165 MB)
Finished
-----------------------------
LOCAL RI TRANSFORMATION (IJV)
-----------------------------

Orbital window:      29 to 76
Basis functions:   1025 (343 shells)
Aux. functions:    2424 (644 shells)

Processing maps (0.0 sec)
Average map sizes:
   Aux shells -> MOs(i)           46.4
   Aux shells -> MOs(j)           48.0
   MOs        -> AO shells       340.8

Calculating integrals (22.0 sec, 41.290 MB)
Sorting integrals (0.4 sec, 41.263 MB)
Total time for the integral transformation: 22.5 sec


-------------------------------------
Pair Pair Term precalculation with     
RI-(ij|mn) and (im|jn) transformation  
ON THE FLY                             
-------------------------------------

   IBatch   1 (of   3)              ... done ( 1001.420 sec)
   IBatch   2 (of   3)              ... done ( 1400.399 sec)
   IBatch   3 (of   3)              ... done (   65.968 sec)
Total EXT                           ...        2467.786 sec

---------------------
RI-PNO TRANSFORMATION
---------------------

Total Number of PNOs                   ... 35257
Total Number of IJ-PNOs                ... 31074
Total Number of IP-PNOs                ...  3239
Total Number of PQ-PNOs                ...   944
Total Number of IJ-pairs               ...  1001
Total Number of PI-pairs               ...   118
Total Number of PQ-pairs               ...    25
Average number of PNOs per pair        ...    30
Maximal number of PNOs per pair        ...    84
>> Statistics for ij-pairs..
   #pairs with  1 -  5 PNOs   :    0
   #pairs with  6 - 10 PNOs   :    0
   #pairs with 11 - 15 PNOs   :   68
   #pairs with 16 - 20 PNOs   :  254
   #pairs with 21 - 25 PNOs   :  170
   #pairs with 26 - 30 PNOs   :  152
   #pairs with 31 - 35 PNOs   :   64
   #pairs with 36 - 40 PNOs   :   52
   #pairs with 41 - 45 PNOs   :   48
   #pairs with 46 - 50 PNOs   :   19
   #pairs with 51 - 55 PNOs   :   39
   #pairs with 56 - 60 PNOs   :   52
   #pairs with 61 - 65 PNOs   :   74
   #pairs with 66 - 70 PNOs   :    6
   #pairs with 71 - 75 PNOs   :    1
   #pairs with 76 - 80 PNOs   :    2
>> Statistics for ip-pairs..
   #pairs with  1 -  5 PNOs   :    0
   #pairs with  6 - 10 PNOs   :    2
   #pairs with 11 - 15 PNOs   :   14
   #pairs with 16 - 20 PNOs   :    5
   #pairs with 21 - 25 PNOs   :   26
   #pairs with 26 - 30 PNOs   :   10
   #pairs with 31 - 35 PNOs   :   49
   #pairs with 36 - 40 PNOs   :   12
   #pairs with 41 - 45 PNOs   :    0
   #pairs with 46 - 50 PNOs   :    0
>> Statistics for pq-pairs..
   #pairs with  1 -  5 PNOs   :    0
   #pairs with  6 - 10 PNOs   :    0
   #pairs with 11 - 15 PNOs   :    0
   #pairs with 16 - 20 PNOs   :    0
   #pairs with 21 - 25 PNOs   :   10
   #pairs with 26 - 30 PNOs   :   10
   #pairs with 31 - 35 PNOs   :    0
   #pairs with 36 - 40 PNOs   :    0
   #pairs with 41 - 45 PNOs   :    0
   #pairs with 46 - 50 PNOs   :    0
   #pairs with 81 - 85 PNOs   :    5

Generation of (ij|ab)[P] integrals            ... on
Generation of (ia|bc)[P],(ja|bc)[P] integrals ... on
Storage of 3 and 4 external integrals         ... on
Generation of ALL (ka|bc)[P] integrals        ... on
Keep RI integrals in memory                   ... off

Ibatch:  1 (of  1)
Starting 2-4 index PNO integral generation ... done

Timings:
Total PNO integral transformation time     ...       2155.633 sec
Size of the 3-external file                ...       288 MB
Size of the 4-external file                ...      1941 MB
Size of the IKJL file                      ...        19 MB
Size of the all 3-external file            ...      6915 MB
Size of the 1-external file                ...        22 MB

Size of the PAO/PNO coefficient matrices   ...     232.9 MB

Making pair/pair overlap matrices          ... done (  323.713 sec)
Size of the pair overlap file              ...    2519.0 MB
Total # unrestricted pairs ...       2205
  # of alpha-alpha pairs   ...        607
  # of alpha-beta pairs    ...       1119
  # of beta-beta pairs     ...        479
Constructing the guess amplitudes          ... done (    0.569 sec)

-------------------------
FINAL STARTUP INFORMATION
-------------------------

E(0)                                       ...  -3028.423346645
E(SL-UMP2 in NEV-PNO space)                ...     -2.689837358
Initial E(tot)                             ...  -3031.113184003
<T|T>                                      ...      0.534922226
Number of unrestricted pairs included      ... 2205
Total number of pairs                      ... 4095
----------------------------------------------------------
                     OPEN-SHELL COUPLED CLUSTER ITERATIONS
----------------------------------------------------------

Number of PNO amplitudes to be optimized        ...          2146580
Number of canonical amplitudes for strong pairs ...       1991585758
Untruncated number of canonical amplitudes      ...       3698645738

Iter       E(tot)           E(Corr)          Delta-E          Residual     Time
  0  -3031.120322542     -2.661424234      0.028413124      0.022250908 1821.57
                           *** Turning on DIIS ***
  1  -3031.232721036     -2.773822728     -0.112398494      0.009027145 1872.80
  2  -3031.296830306     -2.837931998     -0.064109270      0.008827332 1918.11
  3  -3031.317688658     -2.858790350     -0.020858352      0.003580036 1903.66
  4  -3031.324645211     -2.865746903     -0.006956554      0.002803215 2158.44
  5  -3031.328251307     -2.869353000     -0.003606096      0.002156598 2213.21
  6  -3031.329573068     -2.870674760     -0.001321760      0.000939894 2204.59
  7  -3031.330351379     -2.871453071     -0.000778311      0.000521081 2223.12
  8  -3031.330501799     -2.871603491     -0.000150420      0.000186337 2233.32
  9  -3031.330547053     -2.871648745     -0.000045254      0.000079722 2239.50
 10  -3031.330542045     -2.871643737      0.000005008      0.000059259 2249.40
 11  -3031.330551061     -2.871652753     -0.000009017      0.000031462 2226.97
 12  -3031.330556317     -2.871658010     -0.000005256      0.000018277 2249.47
 13  -3031.330558515     -2.871660208     -0.000002198      0.000010657 2226.90
 14  -3031.330559089     -2.871660781     -0.000000573      0.000006025 2215.61
               --- The CCSD iterations have converged ---

E(0)                                       ...  -3028.423346645
E(CORR)(strong-pairs)                      ...     -2.871660781
E(CORR)(weak-pairs)                        ...     -0.035551663
E(CORR)(corrected)                         ...     -2.907212443
E(TOT)                                     ...  -3031.330559089
Singles norm <S|S>**1/2                    ...      0.187248443 ( 0.062464471, 0.124783971)  
T1 diagnostic                              ...      0.019628970                              
<S**2>(linearized)                         ...      8.7507391 (ideal value:      8.7500000)

----------------------
LARGEST PNO AMPLITUDES
----------------------
  45a-> 77a  45b-> 77b       0.059079
  45a-> 78a  45b-> 78b       0.058244
  51b-> 76b  -1b-> -1b       0.057991
  49b-> 72b  -1b-> -1b       0.046903
  52b-> 76b  -1b-> -1b       0.046765
  49b-> 74b  -1b-> -1b       0.045822
  56a-> 77a  56b-> 77b       0.044828
  67a-> 77a  67b-> 77b       0.044249
  63a-> 77a  63b-> 77b       0.043492
  49b-> 75b  -1b-> -1b       0.043185
  71a-> 77a  71b-> 77b       0.042743
  59a-> 77a  59b-> 77b       0.042681
  39b-> 73b  -1b-> -1b       0.042480
  44a-> 78a  44b-> 78b       0.042466
  30b-> 76b  -1b-> -1b       0.042415
  65a-> 77a  65b-> 77b       0.042407

Total # unrestricted pairs ...       1166
  # of alpha-alpha pairs   ...        332
  # of alpha-beta pairs    ...        583
  # of beta-beta pairs     ...        251

-------------------------------------------
DLPNO BASED TRIPLES CORRECTION
-------------------------------------------

Singles multiplier          ...  1.000000
Fragment selection                          .... not used
TCutTNO                     ... 1.000e-09
TCutMP2Pairs                ... 1.000e-05
TCutDOStrong                ... 2.000e-02
TCutMKNStrong               ... 1.000e-02
TCutDOWeak                  ... 4.000e-02
TCutMKNWeak                 ... 1.000e-01
NTCutTNO                    ... 1

Number of Triples that are to be computed         ...     36206

 . . . . . . . . .
10% done  
20% done  
30% done  
40% done  
50% done  
60% done  
70% done  
80% done  
90% done  
          Batch   1   done (  17770.093 sec)

Triples-Correction TCutTNO=   1.000e-09 (NWeakPairs = 0  1  2  3)  -0.117420366275   -0.001779909674    0.000000000000    0.000000000000
Triples-Correction  -0.119200275949

Triples timings:
Total time                      ... 18509.869 sec

Triples List generation         ...     0.000 sec
TNO generation                  ...   739.474 sec
Pair density generation         ...     0.086 sec
Look up tables                  ...     0.122 sec
Generating 3-index integrals    ... 11274.372 sec
Make 4-ind.int. from 3-ind.int  ...     3.914 sec
Projecting amplitudes (D + S)   ...  6215.191 sec
Sorting integrals for spin cases...    57.142 sec
Calculate W0/W1                 ...   177.017 sec
Energy contr. (sum over a,b,c)  ...    42.294 sec

Everything after 3-index        ...  6638.840 sec

Energy contribution AAA         ...    26.991 sec
Energy contribution AAB         ...   121.984 sec
Energy contribution ABB         ...   112.078 sec
Energy contribution BBB         ...    15.448 sec
prep                ...     3.381 sec
makeTTNO            ...  6152.439 sec
copyij              ...     0.138 sec
copyil              ...     4.428 sec
transposeij         ...     0.083 sec
newMatInDoubleProj  ...    59.668 sec
BlasInDoubleProj    ...  3311.138 sec
ProjSingles         ...    51.951 sec
ProjDoubles         ...  6163.239 sec
overall Doubles for projection      ... 3325812
used Doubles for projection         ... 3325812


Number of Triples   (0, 1, 2, 3 weak pairs; overall):  17845   12185       0       0  ( 30030)
Number of Atoms     (0, 1, 2, 3 weak pairs; overall):   20.4    14.7     0.0     0.0  (    29)
Number of PAOs      (0, 1, 2, 3 weak pairs; overall):  784.7   593.9     0.0     0.0  (  1025)
Number of AuxFcns   (0, 1, 2, 3 weak pairs; overall):  975.2   580.7     0.0     0.0  (  2424)
Number of TNOs (0, 1, 2, 3 weak pairs         ):   78.6    55.5     0.0     0.0
Aver. Number of NTNO, Atoms, PAOs, AuxFcns / Triples:  30030    69.2    18.1   707.3   815.1

Triples Correction (T)                     ...     -0.119200276
    alpha-alpha-alpha ... -0.003919412 (  3.3%)
    alpha-alpha-beta  ... -0.055958097 ( 46.9%)
    alpha-beta -beta  ... -0.055192369 ( 46.3%)
    beta -beta -beta  ... -0.004130398 (  3.5%)
Final correlation energy                   ...     -3.026412719
E(CCSD)                                    ...  -3031.330559089
E(CCSD(T))                                 ...  -3031.449759365

----------------------------
STATISTICS FOR PAIR-ENERGIES
----------------------------
Minimum, maximum and average ratios of UMP and CCSD pair-energies ... 0.51, 1.43, 1.02


------------------------------------------------------------------------------- 
                                     TIMINGS                                   
------------------------------------------------------------------------------- 


Total execution time                   ...    58988.313 sec

Localization of occupied MO's          ...       10.470 sec (  0.0%)
Fock Matrix Formation                  ...     1438.125 sec (  2.4%)
Differential overlap integrals         ...        1.407 sec (  0.0%)
Organizing maps                        ...        1.703 sec (  0.0%)
RI 3-index integral generations        ...      267.217 sec (  0.5%)
RI-PNO integral transformation         ...     4973.083 sec (  8.4%)
Initial Guess                          ...     1887.497 sec (  3.2%)
DIIS Solver                            ...       16.918 sec (  0.0%)
State Vector Update                    ...        0.772 sec (  0.0%)
Sigma-vector construction              ...    31956.671 sec ( 54.2%)
  <0|H|D>                              ...        0.032 sec (  0.0% of sigma)
  <D|H|D>(0-ext)                       ...     5413.918 sec ( 16.9% of sigma)
  <D|H|D>(2-ext Fock)                  ...        1.737 sec (  0.0% of sigma)
  <D|H|D>(2-ext)                       ...     4949.414 sec ( 15.5% of sigma)
  <D|H|D>(4-ext)                       ...      152.074 sec (  0.5% of sigma)
  <D|H|D>(4-ext-corr)                  ...      943.789 sec (  3.0% of sigma)
  CCSD doubles correction              ...      548.209 sec (  1.7% of sigma)
  <S|H|S>                              ...      819.609 sec (  2.6% of sigma)
  <S|H|D>(1-ext)                       ...      276.529 sec (  0.9% of sigma)
  <D|H|S>(1-ext)                       ...        1.118 sec (  0.0% of sigma)
  <S|H|D>(3-ext)                       ...       22.702 sec (  0.1% of sigma)
  CCSD singles correction              ...        0.004 sec (  0.0% of sigma)
  Fock-dressing                        ...     9646.652 sec ( 30.2% of sigma)
  Singles amplitudes                   ...      115.271 sec (  0.4% of sigma)
  (ik|jl)-dressing                     ...     7361.551 sec ( 23.0% of sigma)
  (ij|ab),(ia|jb)-dressing             ...     1629.346 sec (  5.1% of sigma)
  Pair energies                        ...        0.148 sec (  0.0% of sigma)
Total Time for computing (T)           ...    18804.658 sec ( 31.9% of ALL)


-------------------------   --------------------
FINAL SINGLE POINT ENERGY     -3031.449759364586
-------------------------   --------------------


                            ***************************************
                            *     ORCA property calculations      *
                            ***************************************

                                    ---------------------
                                    Active property flags
                                    ---------------------
   (+) Dipole Moment


------------------------------------------------------------------------------
                       ORCA ELECTRIC PROPERTIES CALCULATION
------------------------------------------------------------------------------

Dipole Moment Calculation                       ... on
Quadrupole Moment Calculation                   ... off
Polarizability Calculation                      ... off
GBWName                                         ... simple-grid-195-230-b3lyp_d3bj-631gd-gas-singlepoint-DLPNO_CCSD_T1-NormalPNO-augtz-gas.gbw
Electron density file                           ... simple-grid-195-230-b3lyp_d3bj-631gd-gas-singlepoint-DLPNO_CCSD_T1-NormalPNO-augtz-gas.scfp.tmp
The origin for moment calculation is the CENTER OF MASS  = ( 0.305754,  0.023875  0.018396)

-------------
DIPOLE MOMENT
-------------
                                X             Y             Z
Electronic contribution:     40.88886       3.61783       2.27157
Nuclear contribution   :    -45.55737      -3.55737      -2.74108
                        -----------------------------------------
Total Dipole Moment    :     -4.66851       0.06046      -0.46951
                        -----------------------------------------
Magnitude (a.u.)       :      4.69245
Magnitude (Debye)      :     11.92726



--------------------
Rotational spectrum 
--------------------
 
Rotational constants in cm-1:     0.019317     0.011511     0.010632 
Rotational constants in MHz :   579.117092   345.091500   318.745652 

 Dipole components along the rotational axes: 
x,y,z [a.u.] :    -4.668859     0.026688    -0.469171 
x,y,z [Debye]:   -11.867297     0.067836    -1.192537 

 

Timings for individual modules:

Sum of individual times         ...    75518.435 sec (=1258.641 min)
GTO integral calculation        ...       12.343 sec (=   0.206 min)   0.0 %
SCF iterations                  ...    16499.680 sec (= 274.995 min)  21.8 %
MDCI module                     ...    59006.412 sec (= 983.440 min)  78.1 %
                             ****ORCA TERMINATED NORMALLY****
TOTAL RUN TIME: 0 days 20 hours 58 minutes 41 seconds 129 msec
