
                                 *****************
                                 * O   R   C   A *
                                 *****************

           --- An Ab Initio, DFT and Semiempirical electronic structure package ---

                  #######################################################
                  #                        -***-                        #
                  #          Department of theory and spectroscopy      #
                  #               Directorship: Frank Neese             #
                  #        Max Planck Institute fuer Kohlenforschung    #
                  #                Kaiser Wilhelm Platz 1               #
                  #                 D-45470 Muelheim/Ruhr               #
                  #                      Germany                        #
                  #                                                     #
                  #                  All rights reserved                #
                  #                        -***-                        #
                  #######################################################


                         Program Version 4.1.2  - RELEASE  -


 With contributions from (in alphabetic order):
   Daniel Aravena         : Magnetic Properties
   Michael Atanasov       : Ab Initio Ligand Field Theory
   Alexander A. Auer      : GIAO ZORA
   Ute Becker             : Parallelization
   Giovanni Bistoni       : ED, Open-shell LED
   Martin Brehm           : Molecular dynamics
   Dmytro Bykov           : SCF Hessian
   Vijay G. Chilkuri      : MRCI spin determinant printing
   Dipayan Datta          : RHF DLPNO-CCSD density
   Achintya Kumar Dutta   : EOM-CC, STEOM-CC
   Dmitry Ganyushin       : Spin-Orbit,Spin-Spin,Magnetic field MRCI
   Miquel Garcia          : C-PCM Hessian
   Yang Guo               : DLPNO-NEVPT2, CIM, IAO-localization
   Andreas Hansen         : Spin unrestricted coupled pair/coupled cluster methods
   Benjamin Helmich-Paris : CASSCF linear response (MC-RPA)
   Lee Huntington         : MR-EOM, pCC
   Robert Izsak           : Overlap fitted RIJCOSX, COSX-SCS-MP3, EOM
   Christian Kollmar      : KDIIS, OOCD, Brueckner-CCSD(T), CCSD density
   Simone Kossmann        : Meta GGA functionals, TD-DFT gradient, OOMP2, MP2 Hessian
   Martin Krupicka        : AUTO-CI
   Lucas Lang             : DCDCAS
   Dagmar Lenk            : GEPOL surface, SMD
   Dimitrios Liakos       : Extrapolation schemes; parallel MDCI
   Dimitrios Manganas     : ROCIS; embedding schemes
   Dimitrios Pantazis     : SARC Basis sets
   Taras Petrenko         : DFT Hessian,TD-DFT gradient, ASA, ECA, R-Raman, ABS, FL, XAS/XES, NRVS
   Peter Pinski           : DLPNO-MP2, DLPNO-MP2 Gradient
   Christoph Reimann      : Effective Core Potentials
   Marius Retegan         : Local ZFS, SOC
   Christoph Riplinger    : Optimizer, TS searches, QM/MM, DLPNO-CCSD(T), (RO)-DLPNO pert. Triples
   Tobias Risthaus        : Range-separated hybrids, TD-DFT gradient, RPA, STAB
   Michael Roemelt        : Restricted open shell CIS
   Masaaki Saitow         : Open-shell DLPNO
   Barbara Sandhoefer     : DKH picture change effects
   Avijit Sen             : IP-ROCIS
   Kantharuban Sivalingam : CASSCF convergence, NEVPT2, FIC-MRCI
   Bernardo de Souza      : ESD, SOC TD-DFT
   Georgi Stoychev        : AutoAux, RI-MP2 NMR
   Willem Van den Heuvel  : Paramagnetic NMR
   Boris Wezisla          : Elementary symmetry handling
   Frank Wennmohs         : Technical directorship


 We gratefully acknowledge several colleagues who have allowed us to
 interface, adapt or use parts of their codes:
   Stefan Grimme, W. Hujo, H. Kruse,             : VdW corrections, initial TS optimization,
                  C. Bannwarth                     DFT functionals, gCP, sTDA/sTD-DF
   Ed Valeev                                     : LibInt (2-el integral package), F12 methods
   Garnet Chan, S. Sharma, J. Yang, R. Olivares  : DMRG
   Ulf Ekstrom                                   : XCFun DFT Library
   Mihaly Kallay                                 : mrcc  (arbitrary order and MRCC methods)
   Andreas Klamt, Michael Diedenhofen            : otool_cosmo (COSMO solvation model)
   Jiri Pittner, Ondrej Demel                    : Mk-CCSD
   Frank Weinhold                                : gennbo (NPA and NBO analysis)
   Christopher J. Cramer and Donald G. Truhlar   : smd solvation model
   Lars Goerigk                                  : TD-DFT with DH, B97 family of functionals
   V. Asgeirsson, H. Jonsson                     : NEB implementation
   FAccTs GmbH                                   : IRC, NEB, NEB-TS, Multilevel


 Your calculation uses the libint2 library for the computation of 2-el integrals
 For citations please refer to: http://libint.valeyev.net

 This ORCA versions uses:
   CBLAS   interface :  Fast vector & matrix operations
   LAPACKE interface :  Fast linear algebra routines
   SCALAPACK package :  Parallel linear algebra routines


----- Orbital basis set information -----
Your calculation utilizes the basis: aug-cc-pVTZ 
    H, B-Ne : Obtained from the ccRepo (grant-hill.group.shef.ac.uk/ccrepo) Feb. 2017
              R. A. Kendall, T. H. Dunning, Jr., R. J. Harrison, J. Chem. Phys. 96, 6796 (1992)
         He : Obtained from the ccRepo (grant-hill.group.shef.ac.uk/ccrepo) Feb. 2017
              D. E. Woon, T. H. Dunning, Jr., J. Chem. Phys. 100, 2975 (1994)
  Li-Be, Na : Obtained from the ccRepo (grant-hill.group.shef.ac.uk/ccrepo) Feb. 2017
              B. P. Prascher, D. E. Woon, K. A. Peterson, T. H. Dunning, Jr., A. K. Wilson, Theor. Chem. Acc. 128, 69 (2011)
         Mg : Obtained from the Peterson Research Group Website (tyr0.chem.wsu.edu/~kipeters) Feb. 2017
              B. P. Prascher, D. E. Woon, K. A. Peterson, T. H. Dunning, Jr., A. K. Wilson, Theor. Chem. Acc. 128, 69 (2011)
      Al-Ar : Obtained from the ccRepo (grant-hill.group.shef.ac.uk/ccrepo) Feb. 2017
              D. E. Woon, T. H. Dunning, Jr., J. Chem. Phys. 98, 1358 (1993)
      Sc-Zn : Obtained from the ccRepo (grant-hill.group.shef.ac.uk/ccrepo) Feb. 2017
              N. B. Balabanov, K. A. Peterson, J. Chem. Phys. 123, 064107 (2005)
              N. B. Balabanov, K. A. Peterson, J. Chem. Phys. 125, 074110 (2006)
      Ga-Kr : Obtained from the ccRepo (grant-hill.group.shef.ac.uk/ccrepo) Feb. 2017
              A. K. Wilson, D. E. Woon, K. A. Peterson, T. H. Dunning, Jr., J. Chem. Phys. 110, 7667 (1999)
     Ag, Au : Obtained from the Peterson Research Group Website (tyr0.chem.wsu.edu/~kipeters) Feb. 2017
              K. A. Peterson, C. Puzzarini, Theor. Chem. Acc. 114, 283 (2005)

----- AuxJ basis set information -----
Your calculation utilizes the AutoAux generation procedure.
  G. L. Stoychev, A. A. Auer, F. Neese, J. Chem. Theory Comput. 13, 554 (2017)

----- AuxC basis set information -----
Your calculation utilizes the auxiliary basis: aug-cc-pVTZ/C 
  H-He, B-F, Al-Ar, Ga-Kr : Obtained from the EMSL Basis Set Exchange (bse.pnl.gov) Feb. 2017
                            F. Weigend, A. Kohn, C. Hattig, J. Chem. Phys. 116, 3175 (2002)
                   Be, Mg : Obtained from the TURBOMOLE 7.0 basis set library
                            C. Haettig, Phys. Chem. Chem. Phys. 7, 59 (2005)
                       Ne : Obtained from the EMSL Basis Set Exchange (bse.pnl.gov) Feb. 2017
                            C. Haettig, Phys. Chem. Chem. Phys. 7, 59 (2005)
                            F. Weigend, A. Kohn, C. Hattig, J. Chem. Phys. 116, 3175 (2002)
                    Sc-Zn : Obtained from the EMSL Basis Set Exchange (bse.pnl.gov) Feb. 2017
                            J. G. Hill, J. A. Platts, J. Chem. Phys. 128, 044104 (2008)

----- AuxJK basis set information -----
Your calculation utilizes the AutoAux generation procedure.
  G. L. Stoychev, A. A. Auer, F. Neese, J. Chem. Theory Comput. 13, 554 (2017)

================================================================================
                                        WARNINGS
                       Please study these warnings very carefully!
================================================================================


WARNING: your system is open-shell and RHF/RKS was chosen
  ===> : WILL SWITCH to UHF/UKS


WARNING: MDCI localization with Augmented Hessian Foster-Boys
  ===> : Switching off randomization!

WARNING: Post HF methods need fully converged wavefunctions
  ===> : Setting SCFConvForced true
         You can overwrite this default with %scf ConvForced false 


INFO   : the flag for use of LIBINT has been found!

================================================================================
                                       INPUT FILE
================================================================================
NAME = simple-grid-195-250-b3lyp_d3bj-631gd-gas-singlepoint-DLPNO_CCSD_T1-NormalPNO-augtz-gas.inp
|  1> ! aug-cc-pVTZ aug-cc-pVTZ/C DLPNO-CCSD(T1) TightSCF NormalPNO UNO MiniPrint AutoAux
|  2> %pal nproc 10 end
|  3> %maxcore 20000
|  4> %mdci
|  5>      density none
|  6> end
|  7> 
|  8> * xyz 0 6
|  9>  O     -0.32187000     -0.17238100     -0.71403000
| 10>  C     -1.25546400     -1.09210700     -0.56522200
| 11>  C     -2.76037400     -0.29120600      0.38151200
| 12>  C     -2.45637900      0.97672400     -0.10295200
| 13>  C     -2.91953500      1.45017400     -1.43549200
| 14> Fe      1.40242700      0.11283000     -0.01649800
| 15> Cl      1.93652700      2.11090200     -0.76709900
| 16>  C     -1.60387600      1.93127800      0.64781000
| 17> Cl      2.64090400     -1.55297900     -0.73574000
| 18> Cl      1.19001100      0.08910500      2.20087100
| 19>  H     -3.56828000     -0.80146500     -0.14050800
| 20>  H     -2.27398300      2.68508500      1.09152200
| 21>  H     -1.03440800      1.47294900      1.45441100
| 22>  H     -0.92059800      2.46184400     -0.02317600
| 23>  H     -3.31602300      2.46853900     -1.33956200
| 24>  H     -2.04767700      1.52455700     -2.10033900
| 25>  H     -3.67897900      0.81061900     -1.88730500
| 26>  C     -2.69463300     -0.58743500      1.87037600
| 27>  H     -3.46731600     -0.01050200      2.39214200
| 28>  H     -2.88955900     -1.64402400      2.06339600
| 29>  H     -1.72907300     -0.33493800      2.31325000
| 30>  C     -0.90433400     -2.25857000      0.34323500
| 31>  H     -1.74082200     -2.94746200      0.48043700
| 32>  H     -0.09349300     -2.79200500     -0.16999100
| 33>  H     -0.51912600     -1.93190600      1.30843100
| 34>  C     -1.86086500     -1.54491700     -1.88713100
| 35>  H     -1.07311000     -2.10939900     -2.40001700
| 36>  H     -2.72346100     -2.20173700     -1.74916800
| 37>  H     -2.12597700     -0.70780500     -2.53169200
| 38> *
| 39> 
| 40> 
| 41>                          ****END OF INPUT****
================================================================================

                       ****************************
                       * Single Point Calculation *
                       ****************************

---------------------------------
CARTESIAN COORDINATES (ANGSTROEM)
---------------------------------
  O     -0.321870   -0.172381   -0.714030
  C     -1.255464   -1.092107   -0.565222
  C     -2.760374   -0.291206    0.381512
  C     -2.456379    0.976724   -0.102952
  C     -2.919535    1.450174   -1.435492
  Fe     1.402427    0.112830   -0.016498
  Cl     1.936527    2.110902   -0.767099
  C     -1.603876    1.931278    0.647810
  Cl     2.640904   -1.552979   -0.735740
  Cl     1.190011    0.089105    2.200871
  H     -3.568280   -0.801465   -0.140508
  H     -2.273983    2.685085    1.091522
  H     -1.034408    1.472949    1.454411
  H     -0.920598    2.461844   -0.023176
  H     -3.316023    2.468539   -1.339562
  H     -2.047677    1.524557   -2.100339
  H     -3.678979    0.810619   -1.887305
  C     -2.694633   -0.587435    1.870376
  H     -3.467316   -0.010502    2.392142
  H     -2.889559   -1.644024    2.063396
  H     -1.729073   -0.334938    2.313250
  C     -0.904334   -2.258570    0.343235
  H     -1.740822   -2.947462    0.480437
  H     -0.093493   -2.792005   -0.169991
  H     -0.519126   -1.931906    1.308431
  C     -1.860865   -1.544917   -1.887131
  H     -1.073110   -2.109399   -2.400017
  H     -2.723461   -2.201737   -1.749168
  H     -2.125977   -0.707805   -2.531692

----------------------------
CARTESIAN COORDINATES (A.U.)
----------------------------
  NO LB      ZA    FRAG     MASS         X           Y           Z
   0 O     8.0000    0    15.999   -0.608246   -0.325753   -1.349321
   1 C     6.0000    0    12.011   -2.372483   -2.063783   -1.068115
   2 C     6.0000    0    12.011   -5.216351   -0.550300    0.720953
   3 C     6.0000    0    12.011   -4.641884    1.845741   -0.194551
   4 C     6.0000    0    12.011   -5.517122    2.740432   -2.712687
   5 Fe   26.0000    0    55.850    2.650203    0.213218   -0.031177
   6 Cl   17.0000    0    35.453    3.659506    3.989027   -1.449607
   7 C     6.0000    0    12.011   -3.030886    3.649587    1.224183
   8 Cl   17.0000    0    35.453    4.990585   -2.934705   -1.390347
   9 Cl   17.0000    0    35.453    2.248795    0.168384    4.159043
  10 H     1.0000    0     1.008   -6.743072   -1.514549   -0.265522
  11 H     1.0000    0     1.008   -4.297205    5.074075    2.062678
  12 H     1.0000    0     1.008   -1.954748    2.783470    2.748438
  13 H     1.0000    0     1.008   -1.739678    4.652211   -0.043796
  14 H     1.0000    0     1.008   -6.266375    4.664863   -2.531405
  15 H     1.0000    0     1.008   -3.869549    2.880995   -3.969065
  16 H     1.0000    0     1.008   -6.952263    1.531848   -3.566490
  17 C     6.0000    0    12.011   -5.092118   -1.110091    3.534498
  18 H     1.0000    0     1.008   -6.552278   -0.019846    4.520493
  19 H     1.0000    0     1.008   -5.460475   -3.106755    3.899253
  20 H     1.0000    0     1.008   -3.267474   -0.632941    4.371409
  21 C     6.0000    0    12.011   -1.708944   -4.268079    0.648620
  22 H     1.0000    0     1.008   -3.289677   -5.569896    0.907894
  23 H     1.0000    0     1.008   -0.176676   -5.276125   -0.321236
  24 H     1.0000    0     1.008   -0.981006   -3.650773    2.472576
  25 C     6.0000    0    12.011   -3.516525   -2.919470   -3.566161
  26 H     1.0000    0     1.008   -2.027884   -3.986186   -4.535375
  27 H     1.0000    0     1.008   -5.146595   -4.160680   -3.305448
  28 H     1.0000    0     1.008   -4.017514   -1.337558   -4.784205



           ************************************************************
           *        Program running with 10 parallel MPI-processes    *
           *              working on a common directory               *
           ************************************************************


           ************************************************************
           *        Program running with 10 parallel MPI-processes    *
           *              working on a common directory               *
           ************************************************************

Diagonalization of the overlap matrix:
Smallest eigenvalue                        ... 6.426e-07
Time for diagonalization                   ...    0.344 sec
Threshold for overlap eigenvalues          ... 1.000e-08
Number of eigenvalues below threshold      ... 0
Time for construction of square roots      ...    0.280 sec
Total time needed                          ...    0.631 sec

-------------------
DFT GRID GENERATION
-------------------

General Integration Accuracy     IntAcc      ...  4.340
Radial Grid Type                 RadialGrid  ... Gauss-Chebyshev
Angular Grid (max. acc.)         AngularGrid ... Lebedev-110
Angular grid pruning method      GridPruning ... 3 (G Style)
Weight generation scheme         WeightScheme... Becke
Basis function cutoff            BFCut       ...    1.0000e-11
Integration weight cutoff        WCut        ...    1.0000e-14
Grids for H and He will be reduced by one unit

# of grid points (after initial pruning)     ...  36112 (   0.0 sec)
# of grid points (after weights+screening)   ...  32294 (   0.1 sec)
nearest neighbour list constructed           ...    0.0 sec
Grid point re-assignment to atoms done       ...    0.0 sec
Grid point division into batches done        ...    0.0 sec
Reduced shell lists constructed in    0.3 sec

Total number of grid points                  ...    32294
Total number of batches                      ...      519
Average number of points per batch           ...       62
Average number of grid points per atom       ...     1114
Average number of shells per batch           ...   293.75 (85.64%)
Average number of basis functions per batch  ...   874.25 (85.29%)
Average number of large shells per batch     ...   242.00 (82.38%)
Average number of large basis fcns per batch ...   720.57 (82.42%)
Maximum spatial batch extension              ...   3.47,  3.98,  3.33 au
Average spatial batch extension              ...   0.18,  0.17,  0.17 au

Time for grid setup =    0.437 sec

Loading Hartree-Fock densities                     ... done
Calculating cut-offs                               ... done
Setting up the integral package                    ... done
Initializing the effective Hamiltonian             ... done
Starting the Coulomb interaction                   ... done (   1.1 sec)
Reading the grid                                   ... done
Mapping shells                                     ... done
Starting the XC term evaluation                    ... done (   0.9 sec)
Transforming the Hamiltonian                       ... done (   0.2 sec)
Diagonalizing the Hamiltonian                      ... done (   0.4 sec)
Back transforming the eigenvectors                 ... done (   0.1 sec)
Now organizing SCF variables                       ... done
--------------
SCF ITERATIONS
--------------
ITER       Energy         Delta-E        Max-DP      RMS-DP      [F,P]     Damp
               ***  Starting incremental Fock matrix formation  ***
  0  -3027.5708633408   0.000000000000 0.34367992  0.00120198  0.2872195 0.7000
  1  -3027.8193056746  -0.248442333865 0.25138806  0.00093125  0.1668056 0.7000
                               ***Turning on DIIS***
  2  -3027.9860989774  -0.166793302771 0.17640125  0.00068350  0.1095117 0.7000
  3  -3029.6528592256  -1.666760248162 0.39906564  0.00170680  0.0823384 0.0000
  4  -3028.2915207620   1.361338463584 0.04682685  0.00022217  0.0195539 0.0000
  5  -3028.4095342159  -0.118013453919 0.04024249  0.00017188  0.0117264 0.0000
  6  -3028.4417661527  -0.032231936781 0.02050149  0.00007020  0.0053813 0.0000
  7  -3028.4543510157  -0.012584863003 0.00910392  0.00003204  0.0033246 0.0000
  8  -3028.4495465638   0.004804451933 0.00588326  0.00001866  0.0014352 0.0000
  9  -3028.4417313460   0.007815217778 0.00231878  0.00001097  0.0007104 0.0000
 10  -3028.4311801956   0.010551150379 0.00089503  0.00000340  0.0004000 0.0000
 11  -3028.4368247191  -0.005644523471 0.00058553  0.00000201  0.0000832 0.0000
 12  -3028.4339700924   0.002854626686 0.00052606  0.00000148  0.0000334 0.0000
 13  -3028.4341404903  -0.000170397934 0.00141941  0.00000269  0.0000121 0.0000
 14  -3028.4342787252  -0.000138234846 0.00074347  0.00000223  0.0000072 0.0000
 15  -3028.4341729762   0.000105748952 0.00125420  0.00000241  0.0000033 0.0000
 16  -3028.4342131025  -0.000040126244 0.00111255  0.00000248  0.0000023 0.0000
 17  -3028.4342293643  -0.000016261861 0.00121584  0.00000237  0.0000019 0.0000
 18  -3028.4342060942   0.000023270110 0.00213062  0.00000404  0.0000017 0.0000
 19  -3028.4342173965  -0.000011302266 0.00165414  0.00000347  0.0000015 0.0000
               *** Restarting incremental Fock matrix formation ***
                                   *** Resetting DIIS ***
 20  -3028.4342175354  -0.000000138876 0.00862383  0.00001622  0.0000012 0.0000
 21  -3028.4342180473  -0.000000511928 0.00186728  0.00000329  0.0000011 0.0000
                            ***DIIS convergence achieved***

               *****************************************************
               *                     SUCCESS                       *
               *           SCF CONVERGED AFTER  22 CYCLES          *
               *****************************************************

Total Energy       :        -3028.43421821 Eh          -82407.88461 eV
  Last Energy change         ...   -1.6467e-07  Tolerance :   1.0000e-08
  Last MAX-Density change    ...    2.1706e-03  Tolerance :   1.0000e-07
             **** THE GBW FILE WAS UPDATED (simple-grid-195-250-b3lyp_d3bj-631gd-gas-singlepoint-DLPNO_CCSD_T1-NormalPNO-augtz-gas.gbw) ****
             **** DENSITY FILE WAS UPDATED (simple-grid-195-250-b3lyp_d3bj-631gd-gas-singlepoint-DLPNO_CCSD_T1-NormalPNO-augtz-gas.scfp.tmp) ****
             **** ENERGY FILE WAS UPDATED (simple-grid-195-250-b3lyp_d3bj-631gd-gas-singlepoint-DLPNO_CCSD_T1-NormalPNO-augtz-gas.en.tmp) ****
----------------------
UHF SPIN CONTAMINATION
----------------------

Expectation value of <S**2>     :     8.764319
Ideal value S*(S+1) for S=2.5   :     8.750000
Deviation                       :     0.014319

----------------
ORBITAL ENERGIES
----------------
                 SPIN UP ORBITALS
  NO   OCC          E(Eh)            E(eV) 
   0   1.0000    -261.551788     -7117.1860 
   1   1.0000    -104.778521     -2851.1685 
   2   1.0000    -104.774454     -2851.0578 
   3   1.0000    -104.773129     -2851.0218 
   4   1.0000     -32.219684      -876.7422 
   5   1.0000     -27.695645      -753.6368 
   6   1.0000     -27.695356      -753.6289 
   7   1.0000     -27.695115      -753.6224 
   8   1.0000     -20.555503      -559.3437 
   9   1.0000     -11.385550      -309.8166 
  10   1.0000     -11.361116      -309.1517 
  11   1.0000     -11.280045      -306.9456 
  12   1.0000     -11.278120      -306.8932 
  13   1.0000     -11.262222      -306.4607 
  14   1.0000     -11.254976      -306.2635 
  15   1.0000     -11.253169      -306.2143 
  16   1.0000     -11.247155      -306.0507 
  17   1.0000     -10.505128      -285.8591 
  18   1.0000     -10.501034      -285.7477 
  19   1.0000     -10.499740      -285.7125 
  20   1.0000      -7.972022      -216.9297 
  21   1.0000      -7.971144      -216.9059 
  22   1.0000      -7.971108      -216.9049 
  23   1.0000      -7.967849      -216.8162 
  24   1.0000      -7.967138      -216.7968 
  25   1.0000      -7.967057      -216.7946 
  26   1.0000      -7.966580      -216.7817 
  27   1.0000      -7.965843      -216.7616 
  28   1.0000      -7.965767      -216.7595 
  29   1.0000      -4.575009      -124.4923 
  30   1.0000      -3.187588       -86.7387 
  31   1.0000      -3.187027       -86.7234 
  32   1.0000      -3.186599       -86.7118 
  33   1.0000      -1.397168       -38.0189 
  34   1.0000      -1.178363       -32.0649 
  35   1.0000      -1.083671       -29.4882 
  36   1.0000      -1.048958       -28.5436 
  37   1.0000      -1.043867       -28.4051 
  38   1.0000      -1.042317       -28.3629 
  39   1.0000      -1.040448       -28.3120 
  40   1.0000      -1.000844       -27.2344 
  41   1.0000      -0.981129       -26.6979 
  42   1.0000      -0.930681       -25.3251 
  43   1.0000      -0.916549       -24.9406 
  44   1.0000      -0.904420       -24.6105 
  45   1.0000      -0.904303       -24.6073 
  46   1.0000      -0.895727       -24.3740 
  47   1.0000      -0.894984       -24.3537 
  48   1.0000      -0.787067       -21.4172 
  49   1.0000      -0.764847       -20.8126 
  50   1.0000      -0.699250       -19.0275 
  51   1.0000      -0.690433       -18.7876 
  52   1.0000      -0.673044       -18.3145 
  53   1.0000      -0.655206       -17.8291 
  54   1.0000      -0.649734       -17.6802 
  55   1.0000      -0.627330       -17.0705 
  56   1.0000      -0.599575       -16.3153 
  57   1.0000      -0.596045       -16.2192 
  58   1.0000      -0.587759       -15.9937 
  59   1.0000      -0.577353       -15.7106 
  60   1.0000      -0.574381       -15.6297 
  61   1.0000      -0.562822       -15.3152 
  62   1.0000      -0.554401       -15.0860 
  63   1.0000      -0.548936       -14.9373 
  64   1.0000      -0.538749       -14.6601 
  65   1.0000      -0.526320       -14.3219 
  66   1.0000      -0.513920       -13.9845 
  67   1.0000      -0.475246       -12.9321 
  68   1.0000      -0.462208       -12.5773 
  69   1.0000      -0.453676       -12.3452 
  70   1.0000      -0.428073       -11.6485 
  71   1.0000      -0.426611       -11.6087 
  72   1.0000      -0.424578       -11.5533 
  73   1.0000      -0.415488       -11.3060 
  74   1.0000      -0.414303       -11.2738 
  75   1.0000      -0.413108       -11.2412 
  76   1.0000      -0.391079       -10.6418 
  77   0.0000       0.008071         0.2196 
  78   0.0000       0.018863         0.5133 
  79   0.0000       0.021012         0.5718 
  80   0.0000       0.023370         0.6359 
  81   0.0000       0.031252         0.8504 
  82   0.0000       0.038167         1.0386 
  83   0.0000       0.039924         1.0864 
  84   0.0000       0.044357         1.2070 
  85   0.0000       0.045685         1.2432 
  86   0.0000       0.046536         1.2663 
  87   0.0000       0.056939         1.5494 
  88   0.0000       0.059391         1.6161 
  89   0.0000       0.061685         1.6785 
  90   0.0000       0.064307         1.7499 
  91   0.0000       0.065746         1.7890 
  92   0.0000       0.071721         1.9516 
  93   0.0000       0.075284         2.0486 
  94   0.0000       0.079123         2.1531 
  95   0.0000       0.089122         2.4251 
  96   0.0000       0.089627         2.4389 
  97   0.0000       0.093823         2.5531 
  98   0.0000       0.095972         2.6115 
  99   0.0000       0.098822         2.6891 
 100   0.0000       0.100865         2.7447 
 101   0.0000       0.109377         2.9763 
 102   0.0000       0.113685         3.0935 
 103   0.0000       0.121599         3.3089 
 104   0.0000       0.122566         3.3352 
 105   0.0000       0.125303         3.4097 
 106   0.0000       0.128124         3.4864 
 107   0.0000       0.130166         3.5420 
 108   0.0000       0.131154         3.5689 
 109   0.0000       0.133298         3.6272 
 110   0.0000       0.137616         3.7447 
 111   0.0000       0.138919         3.7802 
 112   0.0000       0.143023         3.8919 
 113   0.0000       0.145940         3.9712 
 114   0.0000       0.151174         4.1136 
 115   0.0000       0.154485         4.2038 
 116   0.0000       0.158410         4.3106 
 117   0.0000       0.163073         4.4374 
 118   0.0000       0.164071         4.4646 
 119   0.0000       0.167007         4.5445 
 120   0.0000       0.169713         4.6181 
 121   0.0000       0.171188         4.6583 
 122   0.0000       0.176168         4.7938 
 123   0.0000       0.179474         4.8837 
 124   0.0000       0.180631         4.9152 
 125   0.0000       0.188737         5.1358 
 126   0.0000       0.189223         5.1490 
 127   0.0000       0.196743         5.3537 
 128   0.0000       0.198633         5.4051 
 129   0.0000       0.200260         5.4494 
 130   0.0000       0.202189         5.5018 
 131   0.0000       0.206252         5.6124 
 132   0.0000       0.208636         5.6773 
 133   0.0000       0.211644         5.7591 
 134   0.0000       0.213719         5.8156 
 135   0.0000       0.218481         5.9452 
 136   0.0000       0.223980         6.0948 
 137   0.0000       0.224817         6.1176 
 138   0.0000       0.226946         6.1755 
 139   0.0000       0.231777         6.3070 
 140   0.0000       0.234801         6.3893 
 141   0.0000       0.238417         6.4876 
 142   0.0000       0.241865         6.5815 
 143   0.0000       0.244437         6.6515 
 144   0.0000       0.246665         6.7121 
 145   0.0000       0.249179         6.7805 
 146   0.0000       0.252136         6.8610 
 147   0.0000       0.257753         7.0138 
 148   0.0000       0.260935         7.1004 
 149   0.0000       0.263170         7.1612 
 150   0.0000       0.267327         7.2744 
 151   0.0000       0.269936         7.3453 
 152   0.0000       0.278530         7.5792 
 153   0.0000       0.280365         7.6291 
 154   0.0000       0.282714         7.6930 
 155   0.0000       0.286242         7.7890 
 156   0.0000       0.290004         7.8914 
 157   0.0000       0.291333         7.9276 
 158   0.0000       0.298293         8.1170 
 159   0.0000       0.302753         8.2383 
 160   0.0000       0.307895         8.3782 
 161   0.0000       0.316093         8.6013 
 162   0.0000       0.318757         8.6738 
 163   0.0000       0.322231         8.7683 
 164   0.0000       0.322940         8.7876 
 165   0.0000       0.328119         8.9286 
 166   0.0000       0.332217         9.0401 
 167   0.0000       0.338636         9.2148 
 168   0.0000       0.340621         9.2688 
 169   0.0000       0.343158         9.3378 
 170   0.0000       0.348433         9.4813 
 171   0.0000       0.353957         9.6317 
 172   0.0000       0.355086         9.6624 
 173   0.0000       0.360021         9.7967 
 174   0.0000       0.361919         9.8483 
 175   0.0000       0.364603         9.9214 
 176   0.0000       0.370649        10.0859 
 177   0.0000       0.372665        10.1407 
 178   0.0000       0.378305        10.2942 
 179   0.0000       0.379323        10.3219 
 180   0.0000       0.382009        10.3950 
 181   0.0000       0.383816        10.4442 
 182   0.0000       0.384806        10.4711 
 183   0.0000       0.389689        10.6040 
 184   0.0000       0.391753        10.6601 
 185   0.0000       0.394816        10.7435 
 186   0.0000       0.395579        10.7642 
 187   0.0000       0.400851        10.9077 
 188   0.0000       0.404793        11.0150 
 189   0.0000       0.412649        11.2288 
 190   0.0000       0.415427        11.3043 
 191   0.0000       0.417391        11.3578 
 192   0.0000       0.420226        11.4349 
 193   0.0000       0.423425        11.5220 
 194   0.0000       0.427067        11.6211 
 195   0.0000       0.433534        11.7971 
 196   0.0000       0.435479        11.8500 
 197   0.0000       0.439128        11.9493 
 198   0.0000       0.443145        12.0586 
 199   0.0000       0.452765        12.3204 
 200   0.0000       0.453644        12.3443 
 201   0.0000       0.455607        12.3977 
 202   0.0000       0.457960        12.4617 
 203   0.0000       0.459944        12.5157 
 204   0.0000       0.463539        12.6135 
 205   0.0000       0.469535        12.7767 
 206   0.0000       0.473898        12.8954 
 207   0.0000       0.476601        12.9690 
 208   0.0000       0.480266        13.0687 
 209   0.0000       0.483924        13.1682 
 210   0.0000       0.485588        13.2135 
 211   0.0000       0.488925        13.3043 
 212   0.0000       0.491518        13.3749 
 213   0.0000       0.494115        13.4456 
 214   0.0000       0.496320        13.5055 
 215   0.0000       0.500043        13.6069 
 216   0.0000       0.500705        13.6249 
 217   0.0000       0.508148        13.8274 
 218   0.0000       0.511629        13.9221 
 219   0.0000       0.513746        13.9797 
 220   0.0000       0.514427        13.9983 
 221   0.0000       0.518932        14.1209 
 222   0.0000       0.523387        14.2421 
 223   0.0000       0.524869        14.2824 
 224   0.0000       0.529809        14.4168 
 225   0.0000       0.531994        14.4763 
 226   0.0000       0.535926        14.5833 
 227   0.0000       0.539528        14.6813 
 228   0.0000       0.541545        14.7362 
 229   0.0000       0.549418        14.9504 
 230   0.0000       0.550622        14.9832 
 231   0.0000       0.556092        15.1320 
 232   0.0000       0.561028        15.2664 
 233   0.0000       0.562598        15.3091 
 234   0.0000       0.567287        15.4367 
 235   0.0000       0.568818        15.4783 
 236   0.0000       0.570759        15.5311 
 237   0.0000       0.574033        15.6202 
 238   0.0000       0.581673        15.8281 
 239   0.0000       0.584342        15.9008 
 240   0.0000       0.588596        16.0165 
 241   0.0000       0.592002        16.1092 
 242   0.0000       0.594331        16.1726 
 243   0.0000       0.600462        16.3394 
 244   0.0000       0.602108        16.3842 
 245   0.0000       0.606436        16.5020 
 246   0.0000       0.606779        16.5113 
 247   0.0000       0.613584        16.6965 
 248   0.0000       0.615780        16.7562 
 249   0.0000       0.622898        16.9499 
 250   0.0000       0.627330        17.0705 
 251   0.0000       0.630840        17.1660 
 252   0.0000       0.631756        17.1910 
 253   0.0000       0.638268        17.3682 
 254   0.0000       0.641088        17.4449 
 255   0.0000       0.643669        17.5151 
 256   0.0000       0.649138        17.6639 
 257   0.0000       0.654524        17.8105 
 258   0.0000       0.660083        17.9618 
 259   0.0000       0.660847        17.9826 
 260   0.0000       0.661697        18.0057 
 261   0.0000       0.666537        18.1374 
 262   0.0000       0.673343        18.3226 
 263   0.0000       0.680213        18.5095 
 264   0.0000       0.681069        18.5328 
 265   0.0000       0.690154        18.7800 
 266   0.0000       0.691717        18.8226 
 267   0.0000       0.695484        18.9251 
 268   0.0000       0.698206        18.9992 
 269   0.0000       0.701251        19.0820 
 270   0.0000       0.707107        19.2413 
 271   0.0000       0.712413        19.3857 
 272   0.0000       0.716003        19.4834 
 273   0.0000       0.722777        19.6678 
 274   0.0000       0.726238        19.7619 
 275   0.0000       0.729431        19.8488 
 276   0.0000       0.732453        19.9310 
 277   0.0000       0.735401        20.0113 
 278   0.0000       0.741548        20.1785 
 279   0.0000       0.746786        20.3211 
 280   0.0000       0.752224        20.4690 
 281   0.0000       0.757912        20.6238 
 282   0.0000       0.762285        20.7428 
 283   0.0000       0.765706        20.8359 
 284   0.0000       0.774721        21.0812 
 285   0.0000       0.787086        21.4177 
 286   0.0000       0.792778        21.5726 
 287   0.0000       0.797826        21.7100 
 288   0.0000       0.801815        21.8185 
 289   0.0000       0.805918        21.9301 
 290   0.0000       0.814890        22.1743 
 291   0.0000       0.818138        22.2627 
 292   0.0000       0.821171        22.3452 
 293   0.0000       0.829923        22.5834 
 294   0.0000       0.831164        22.6171 
 295   0.0000       0.839658        22.8483 
 296   0.0000       0.842586        22.9279 
 297   0.0000       0.846082        23.0231 
 298   0.0000       0.852200        23.1895 
 299   0.0000       0.858085        23.3497 
 300   0.0000       0.859855        23.3978 
 301   0.0000       0.865110        23.5408 
 302   0.0000       0.868933        23.6449 
 303   0.0000       0.877935        23.8898 
 304   0.0000       0.882239        24.0069 
 305   0.0000       0.887443        24.1486 
 306   0.0000       0.894591        24.3431 
 307   0.0000       0.895058        24.3558 
 308   0.0000       0.902270        24.5520 
 309   0.0000       0.904187        24.6042 
 310   0.0000       0.910167        24.7669 
 311   0.0000       0.913076        24.8461 
 312   0.0000       0.921135        25.0654 
 313   0.0000       0.923367        25.1261 
 314   0.0000       0.927054        25.2264 
 315   0.0000       0.929439        25.2913 
 316   0.0000       0.930464        25.3192 
 317   0.0000       0.935841        25.4655 
 318   0.0000       0.941108        25.6088 
 319   0.0000       0.945907        25.7394 
 320   0.0000       0.948900        25.8209 
 321   0.0000       0.956477        26.0271 
 322   0.0000       0.959102        26.0985 
 323   0.0000       0.962337        26.1865 
 324   0.0000       0.966793        26.3078 
 325   0.0000       0.967956        26.3394 
 326   0.0000       0.970351        26.4046 
 327   0.0000       0.977047        26.5868 
 328   0.0000       0.978884        26.6368 
 329   0.0000       0.982766        26.7424 
 330   0.0000       0.985186        26.8083 
 331   0.0000       0.986894        26.8547 
 332   0.0000       0.989394        26.9228 
 333   0.0000       0.996698        27.1215 
 334   0.0000       1.001543        27.2534 
 335   0.0000       1.004609        27.3368 
 336   0.0000       1.009949        27.4821 
 337   0.0000       1.012100        27.5406 
 338   0.0000       1.017704        27.6931 
 339   0.0000       1.026514        27.9329 
 340   0.0000       1.028603        27.9897 
 341   0.0000       1.029357        28.0102 
 342   0.0000       1.032792        28.1037 
 343   0.0000       1.038384        28.2559 
 344   0.0000       1.041652        28.3448 
 345   0.0000       1.042589        28.3703 
 346   0.0000       1.045796        28.4576 
 347   0.0000       1.048348        28.5270 
 348   0.0000       1.052672        28.6447 
 349   0.0000       1.053838        28.6764 
 350   0.0000       1.057921        28.7875 
 351   0.0000       1.060717        28.8636 
 352   0.0000       1.065852        29.0033 
 353   0.0000       1.071268        29.1507 
 354   0.0000       1.074716        29.2445 
 355   0.0000       1.079237        29.3675 
 356   0.0000       1.085471        29.5372 
 357   0.0000       1.087225        29.5849 
 358   0.0000       1.091919        29.7126 
 359   0.0000       1.094866        29.7928 
 360   0.0000       1.096873        29.8474 
 361   0.0000       1.106040        30.0969 
 362   0.0000       1.107647        30.1406 
 363   0.0000       1.114304        30.3218 
 364   0.0000       1.117399        30.4060 
 365   0.0000       1.120967        30.5030 
 366   0.0000       1.124961        30.6118 
 367   0.0000       1.131142        30.7799 
 368   0.0000       1.134812        30.8798 
 369   0.0000       1.138774        30.9876 
 370   0.0000       1.141062        31.0499 
 371   0.0000       1.144399        31.1407 
 372   0.0000       1.150966        31.3194 
 373   0.0000       1.155648        31.4468 
 374   0.0000       1.158596        31.5270 
 375   0.0000       1.166174        31.7332 
 376   0.0000       1.169364        31.8200 
 377   0.0000       1.171471        31.8773 
 378   0.0000       1.177269        32.0351 
 379   0.0000       1.180126        32.1129 
 380   0.0000       1.183221        32.1971 
 381   0.0000       1.189136        32.3580 
 382   0.0000       1.196465        32.5575 
 383   0.0000       1.203262        32.7424 
 384   0.0000       1.209439        32.9105 
 385   0.0000       1.211785        32.9743 
 386   0.0000       1.215965        33.0881 
 387   0.0000       1.218998        33.1706 
 388   0.0000       1.223287        33.2873 
 389   0.0000       1.229114        33.4459 
 390   0.0000       1.233238        33.5581 
 391   0.0000       1.239042        33.7160 
 392   0.0000       1.242911        33.8213 
 393   0.0000       1.245993        33.9052 
 394   0.0000       1.258536        34.2465 
 395   0.0000       1.260135        34.2900 
 396   0.0000       1.267590        34.4929 
 397   0.0000       1.270080        34.5606 
 398   0.0000       1.272089        34.6153 
 399   0.0000       1.274797        34.6890 
 400   0.0000       1.278899        34.8006 
 401   0.0000       1.287598        35.0373 
 402   0.0000       1.291092        35.1324 
 403   0.0000       1.299360        35.3574 
 404   0.0000       1.303007        35.4566 
 405   0.0000       1.309511        35.6336 
 406   0.0000       1.311398        35.6850 
 407   0.0000       1.317071        35.8393 
 408   0.0000       1.319717        35.9113 
 409   0.0000       1.325566        36.0705 
 410   0.0000       1.338601        36.4252 
 411   0.0000       1.341286        36.4982 
 412   0.0000       1.343094        36.5475 
 413   0.0000       1.344748        36.5925 
 414   0.0000       1.351327        36.7715 
 415   0.0000       1.356502        36.9123 
 416   0.0000       1.364302        37.1246 
 417   0.0000       1.373995        37.3883 
 418   0.0000       1.376595        37.4591 
 419   0.0000       1.381179        37.5838 
 420   0.0000       1.382677        37.6246 
 421   0.0000       1.386296        37.7230 
 422   0.0000       1.401702        38.1423 
 423   0.0000       1.403213        38.1834 
 424   0.0000       1.415289        38.5120 
 425   0.0000       1.415846        38.5271 
 426   0.0000       1.419421        38.6244 
 427   0.0000       1.426521        38.8176 
 428   0.0000       1.429009        38.8853 
 429   0.0000       1.433286        39.0017 
 430   0.0000       1.440696        39.2033 
 431   0.0000       1.448536        39.4167 
 432   0.0000       1.451387        39.4942 
 433   0.0000       1.458678        39.6926 
 434   0.0000       1.467420        39.9305 
 435   0.0000       1.471533        40.0424 
 436   0.0000       1.475559        40.1520 
 437   0.0000       1.482970        40.3537 
 438   0.0000       1.487173        40.4680 
 439   0.0000       1.494701        40.6729 
 440   0.0000       1.495644        40.6986 
 441   0.0000       1.496711        40.7276 
 442   0.0000       1.500864        40.8406 
 443   0.0000       1.509452        41.0743 
 444   0.0000       1.516000        41.2525 
 445   0.0000       1.520800        41.3831 
 446   0.0000       1.522875        41.4395 
 447   0.0000       1.527572        41.5674 
 448   0.0000       1.532933        41.7132 
 449   0.0000       1.537895        41.8483 
 450   0.0000       1.543653        42.0049 
 451   0.0000       1.551003        42.2049 
 452   0.0000       1.555034        42.3146 
 453   0.0000       1.564618        42.5754 
 454   0.0000       1.567877        42.6641 
 455   0.0000       1.572128        42.7798 
 456   0.0000       1.577589        42.9284 
 457   0.0000       1.581041        43.0223 
 458   0.0000       1.586003        43.1573 
 459   0.0000       1.590669        43.2843 
 460   0.0000       1.591380        43.3036 
 461   0.0000       1.599122        43.5143 
 462   0.0000       1.607393        43.7394 
 463   0.0000       1.616687        43.9923 
 464   0.0000       1.617660        44.0188 
 465   0.0000       1.623424        44.1756 
 466   0.0000       1.627531        44.2874 
 467   0.0000       1.631412        44.3930 
 468   0.0000       1.639293        44.6074 
 469   0.0000       1.642288        44.6889 
 470   0.0000       1.652506        44.9670 
 471   0.0000       1.656509        45.0759 
 472   0.0000       1.665662        45.3250 
 473   0.0000       1.667422        45.3729 
 474   0.0000       1.673238        45.5311 
 475   0.0000       1.677962        45.6597 
 476   0.0000       1.678688        45.6794 
 477   0.0000       1.685766        45.8720 
 478   0.0000       1.692220        46.0477 
 479   0.0000       1.701045        46.2878 
 480   0.0000       1.703037        46.3420 
 481   0.0000       1.704959        46.3943 
 482   0.0000       1.715396        46.6783 
 483   0.0000       1.721508        46.8446 
 484   0.0000       1.725731        46.9595 
 485   0.0000       1.732938        47.1556 
 486   0.0000       1.737259        47.2732 
 487   0.0000       1.743131        47.4330 
 488   0.0000       1.746489        47.5244 
 489   0.0000       1.747988        47.5652 
 490   0.0000       1.751962        47.6733 
 491   0.0000       1.763479        47.9867 
 492   0.0000       1.767819        48.1048 
 493   0.0000       1.770445        48.1763 
 494   0.0000       1.774568        48.2885 
 495   0.0000       1.775798        48.3219 
 496   0.0000       1.787121        48.6300 
 497   0.0000       1.791585        48.7515 
 498   0.0000       1.799918        48.9783 
 499   0.0000       1.805465        49.1292 
 500   0.0000       1.811860        49.3032 
 501   0.0000       1.815288        49.3965 
 502   0.0000       1.820217        49.5306 
 503   0.0000       1.828526        49.7567 
 504   0.0000       1.834736        49.9257 
 505   0.0000       1.839486        50.0550 
 506   0.0000       1.842592        50.1395 
 507   0.0000       1.847899        50.2839 
 508   0.0000       1.851979        50.3949 
 509   0.0000       1.855366        50.4871 
 510   0.0000       1.863349        50.7043 
 511   0.0000       1.864735        50.7420 
 512   0.0000       1.869624        50.8751 
 513   0.0000       1.870768        50.9062 
 514   0.0000       1.874593        51.0103 
 515   0.0000       1.886176        51.3255 
 516   0.0000       1.887822        51.3702 
 517   0.0000       1.892481        51.4970 
 518   0.0000       1.894693        51.5572 
 519   0.0000       1.902567        51.7715 
 520   0.0000       1.907822        51.9145 
 521   0.0000       1.911753        52.0214 
 522   0.0000       1.923422        52.3390 
 523   0.0000       1.932961        52.5985 
 524   0.0000       1.933597        52.6159 
 525   0.0000       1.940136        52.7938 
 526   0.0000       1.944636        52.9162 
 527   0.0000       1.950378        53.0725 
 528   0.0000       1.951690        53.1082 
 529   0.0000       1.955262        53.2054 
 530   0.0000       1.964383        53.4536 
 531   0.0000       1.967690        53.5436 
 532   0.0000       1.973066        53.6898 
 533   0.0000       1.983691        53.9790 
 534   0.0000       1.985687        54.0333 
 535   0.0000       1.996263        54.3211 
 536   0.0000       1.998186        54.3734 
 537   0.0000       2.002409        54.4883 
 538   0.0000       2.011988        54.7490 
 539   0.0000       2.019804        54.9617 
 540   0.0000       2.028627        55.2018 
 541   0.0000       2.041377        55.5487 
 542   0.0000       2.043987        55.6197 
 543   0.0000       2.046871        55.6982 
 544   0.0000       2.057687        55.9925 
 545   0.0000       2.061010        56.0829 
 546   0.0000       2.074127        56.4399 
 547   0.0000       2.079204        56.5780 
 548   0.0000       2.083043        56.6825 
 549   0.0000       2.093142        56.9573 
 550   0.0000       2.100909        57.1687 
 551   0.0000       2.105967        57.3063 
 552   0.0000       2.110411        57.4272 
 553   0.0000       2.115867        57.5757 
 554   0.0000       2.122909        57.7673 
 555   0.0000       2.126435        57.8632 
 556   0.0000       2.135243        58.1029 
 557   0.0000       2.138242        58.1845 
 558   0.0000       2.142388        58.2974 
 559   0.0000       2.152394        58.5696 
 560   0.0000       2.160050        58.7780 
 561   0.0000       2.163889        58.8824 
 562   0.0000       2.171776        59.0970 
 563   0.0000       2.180479        59.3339 
 564   0.0000       2.187073        59.5133 
 565   0.0000       2.190499        59.6065 
 566   0.0000       2.204739        59.9940 
 567   0.0000       2.208422        60.0942 
 568   0.0000       2.217018        60.3281 
 569   0.0000       2.222309        60.4721 
 570   0.0000       2.232678        60.7543 
 571   0.0000       2.238274        60.9065 
 572   0.0000       2.253240        61.3138 
 573   0.0000       2.256447        61.4011 
 574   0.0000       2.262664        61.5702 
 575   0.0000       2.267646        61.7058 
 576   0.0000       2.269005        61.7428 
 577   0.0000       2.283542        62.1383 
 578   0.0000       2.285868        62.2016 
 579   0.0000       2.291355        62.3509 
 580   0.0000       2.297333        62.5136 
 581   0.0000       2.313807        62.9619 
 582   0.0000       2.320559        63.1456 
 583   0.0000       2.331131        63.4333 
 584   0.0000       2.333052        63.4856 
 585   0.0000       2.342342        63.7384 
 586   0.0000       2.346587        63.8539 
 587   0.0000       2.359026        64.1924 
 588   0.0000       2.364501        64.3414 
 589   0.0000       2.375532        64.6415 
 590   0.0000       2.381592        64.8064 
 591   0.0000       2.387362        64.9634 
 592   0.0000       2.393061        65.1185 
 593   0.0000       2.398966        65.2792 
 594   0.0000       2.404023        65.4168 
 595   0.0000       2.413234        65.6674 
 596   0.0000       2.419066        65.8261 
 597   0.0000       2.429564        66.1118 
 598   0.0000       2.437128        66.3176 
 599   0.0000       2.443514        66.4914 
 600   0.0000       2.451472        66.7079 
 601   0.0000       2.461250        66.9740 
 602   0.0000       2.477196        67.4079 
 603   0.0000       2.485989        67.6472 
 604   0.0000       2.493103        67.8408 
 605   0.0000       2.499732        68.0212 
 606   0.0000       2.515885        68.4607 
 607   0.0000       2.522912        68.6519 
 608   0.0000       2.525935        68.7342 
 609   0.0000       2.542235        69.1777 
 610   0.0000       2.547462        69.3200 
 611   0.0000       2.561639        69.7057 
 612   0.0000       2.581350        70.2421 
 613   0.0000       2.587375        70.4061 
 614   0.0000       2.604760        70.8791 
 615   0.0000       2.615358        71.1675 
 616   0.0000       2.622705        71.3674 
 617   0.0000       2.637422        71.7679 
 618   0.0000       2.645039        71.9752 
 619   0.0000       2.647243        72.0352 
 620   0.0000       2.658425        72.3394 
 621   0.0000       2.663192        72.4691 
 622   0.0000       2.676033        72.8186 
 623   0.0000       2.689660        73.1894 
 624   0.0000       2.696648        73.3795 
 625   0.0000       2.706555        73.6491 
 626   0.0000       2.720567        74.0304 
 627   0.0000       2.722375        74.0796 
 628   0.0000       2.741319        74.5951 
 629   0.0000       2.751155        74.8627 
 630   0.0000       2.757568        75.0372 
 631   0.0000       2.772318        75.4386 
 632   0.0000       2.777630        75.5832 
 633   0.0000       2.782435        75.7139 
 634   0.0000       2.793726        76.0211 
 635   0.0000       2.800942        76.2175 
 636   0.0000       2.820131        76.7397 
 637   0.0000       2.828593        76.9699 
 638   0.0000       2.841775        77.3286 
 639   0.0000       2.848435        77.5099 
 640   0.0000       2.871064        78.1256 
 641   0.0000       2.878645        78.3319 
 642   0.0000       2.884282        78.4853 
 643   0.0000       2.893657        78.7404 
 644   0.0000       2.907836        79.1262 
 645   0.0000       2.927180        79.6526 
 646   0.0000       2.934444        79.8503 
 647   0.0000       2.938227        79.9532 
 648   0.0000       2.952661        80.3460 
 649   0.0000       2.969658        80.8085 
 650   0.0000       2.977315        81.0168 
 651   0.0000       2.985131        81.2296 
 652   0.0000       3.028460        82.4086 
 653   0.0000       3.041940        82.7754 
 654   0.0000       3.052425        83.0607 
 655   0.0000       3.074126        83.6512 
 656   0.0000       3.089348        84.0654 
 657   0.0000       3.090915        84.1081 
 658   0.0000       3.108956        84.5990 
 659   0.0000       3.131308        85.2072 
 660   0.0000       3.134664        85.2985 
 661   0.0000       3.148563        85.6768 
 662   0.0000       3.168915        86.2306 
 663   0.0000       3.179960        86.5311 
 664   0.0000       3.182922        86.6117 
 665   0.0000       3.197112        86.9978 
 666   0.0000       3.218578        87.5820 
 667   0.0000       3.220567        87.6361 
 668   0.0000       3.224952        87.7554 
 669   0.0000       3.244396        88.2845 
 670   0.0000       3.249638        88.4271 
 671   0.0000       3.261780        88.7575 
 672   0.0000       3.267766        88.9204 
 673   0.0000       3.278774        89.2200 
 674   0.0000       3.291152        89.5568 
 675   0.0000       3.296052        89.6901 
 676   0.0000       3.303079        89.8813 
 677   0.0000       3.311572        90.1124 
 678   0.0000       3.321152        90.3731 
 679   0.0000       3.333180        90.7004 
 680   0.0000       3.339308        90.8672 
 681   0.0000       3.344291        91.0028 
 682   0.0000       3.354669        91.2852 
 683   0.0000       3.359137        91.4068 
 684   0.0000       3.379475        91.9602 
 685   0.0000       3.387838        92.1877 
 686   0.0000       3.393545        92.3431 
 687   0.0000       3.397646        92.4547 
 688   0.0000       3.427854        93.2766 
 689   0.0000       3.432212        93.3953 
 690   0.0000       3.441362        93.6442 
 691   0.0000       3.451282        93.9141 
 692   0.0000       3.462981        94.2325 
 693   0.0000       3.471047        94.4520 
 694   0.0000       3.476043        94.5879 
 695   0.0000       3.494028        95.0773 
 696   0.0000       3.496198        95.1364 
 697   0.0000       3.502012        95.2946 
 698   0.0000       3.510276        95.5195 
 699   0.0000       3.516210        95.6809 
 700   0.0000       3.522220        95.8445 
 701   0.0000       3.538568        96.2893 
 702   0.0000       3.544101        96.4399 
 703   0.0000       3.557772        96.8119 
 704   0.0000       3.563860        96.9775 
 705   0.0000       3.568144        97.0941 
 706   0.0000       3.573498        97.2398 
 707   0.0000       3.575958        97.3068 
 708   0.0000       3.581980        97.4706 
 709   0.0000       3.592018        97.7438 
 710   0.0000       3.614148        98.3460 
 711   0.0000       3.622688        98.5784 
 712   0.0000       3.629775        98.7712 
 713   0.0000       3.639261        99.0293 
 714   0.0000       3.648274        99.2746 
 715   0.0000       3.657832        99.5347 
 716   0.0000       3.660890        99.6179 
 717   0.0000       3.670822        99.8882 
 718   0.0000       3.681553       100.1802 
 719   0.0000       3.688681       100.3741 
 720   0.0000       3.694659       100.5368 
 721   0.0000       3.697531       100.6149 
 722   0.0000       3.702714       100.7560 
 723   0.0000       3.707719       100.8922 
 724   0.0000       3.719137       101.2029 
 725   0.0000       3.723342       101.3173 
 726   0.0000       3.732305       101.5612 
 727   0.0000       3.735542       101.6493 
 728   0.0000       3.747349       101.9705 
 729   0.0000       3.754972       102.1780 
 730   0.0000       3.764641       102.4411 
 731   0.0000       3.779262       102.8389 
 732   0.0000       3.784720       102.9875 
 733   0.0000       3.793624       103.2298 
 734   0.0000       3.796896       103.3188 
 735   0.0000       3.804613       103.5288 
 736   0.0000       3.812823       103.7522 
 737   0.0000       3.820579       103.9632 
 738   0.0000       3.829008       104.1926 
 739   0.0000       3.835946       104.3814 
 740   0.0000       3.842193       104.5514 
 741   0.0000       3.843973       104.5998 
 742   0.0000       3.850392       104.7745 
 743   0.0000       3.859312       105.0172 
 744   0.0000       3.871778       105.3564 
 745   0.0000       3.873060       105.3913 
 746   0.0000       3.881923       105.6325 
 747   0.0000       3.893330       105.9429 
 748   0.0000       3.896598       106.0318 
 749   0.0000       3.906185       106.2927 
 750   0.0000       3.912295       106.4590 
 751   0.0000       3.916496       106.5733 
 752   0.0000       3.925606       106.8212 
 753   0.0000       3.929616       106.9303 
 754   0.0000       3.935401       107.0877 
 755   0.0000       3.942025       107.2680 
 756   0.0000       3.946452       107.3884 
 757   0.0000       3.951553       107.5272 
 758   0.0000       3.956877       107.6721 
 759   0.0000       3.969760       108.0226 
 760   0.0000       3.971227       108.0626 
 761   0.0000       3.978676       108.2653 
 762   0.0000       3.994059       108.6839 
 763   0.0000       4.003127       108.9306 
 764   0.0000       4.012671       109.1903 
 765   0.0000       4.017912       109.3329 
 766   0.0000       4.019672       109.3808 
 767   0.0000       4.025335       109.5349 
 768   0.0000       4.033009       109.7438 
 769   0.0000       4.038087       109.8819 
 770   0.0000       4.053778       110.3089 
 771   0.0000       4.059274       110.4585 
 772   0.0000       4.064829       110.6096 
 773   0.0000       4.072914       110.8296 
 774   0.0000       4.077784       110.9621 
 775   0.0000       4.084900       111.1558 
 776   0.0000       4.086292       111.1937 
 777   0.0000       4.098702       111.5314 
 778   0.0000       4.105292       111.7107 
 779   0.0000       4.118557       112.0716 
 780   0.0000       4.124514       112.2337 
 781   0.0000       4.127568       112.3168 
 782   0.0000       4.144617       112.7808 
 783   0.0000       4.158432       113.1567 
 784   0.0000       4.162477       113.2667 
 785   0.0000       4.171334       113.5078 
 786   0.0000       4.175357       113.6172 
 787   0.0000       4.186787       113.9283 
 788   0.0000       4.198358       114.2431 
 789   0.0000       4.203999       114.3966 
 790   0.0000       4.220579       114.8478 
 791   0.0000       4.224818       114.9632 
 792   0.0000       4.230770       115.1251 
 793   0.0000       4.241884       115.4275 
 794   0.0000       4.252942       115.7284 
 795   0.0000       4.265035       116.0575 
 796   0.0000       4.268366       116.1481 
 797   0.0000       4.271405       116.2308 
 798   0.0000       4.275327       116.3376 
 799   0.0000       4.290608       116.7534 
 800   0.0000       4.295918       116.8979 
 801   0.0000       4.303758       117.1112 
 802   0.0000       4.320310       117.5616 
 803   0.0000       4.322147       117.6116 
 804   0.0000       4.326980       117.7431 
 805   0.0000       4.343656       118.1969 
 806   0.0000       4.352154       118.4281 
 807   0.0000       4.362350       118.7056 
 808   0.0000       4.375294       119.0578 
 809   0.0000       4.377852       119.1274 
 810   0.0000       4.396768       119.6421 
 811   0.0000       4.403582       119.8276 
 812   0.0000       4.406052       119.8948 
 813   0.0000       4.420467       120.2870 
 814   0.0000       4.426271       120.4449 
 815   0.0000       4.428967       120.5183 
 816   0.0000       4.444306       120.9357 
 817   0.0000       4.461144       121.3939 
 818   0.0000       4.472695       121.7082 
 819   0.0000       4.478537       121.8672 
 820   0.0000       4.489177       122.1567 
 821   0.0000       4.491287       122.2141 
 822   0.0000       4.495642       122.3326 
 823   0.0000       4.503298       122.5410 
 824   0.0000       4.512059       122.7794 
 825   0.0000       4.526349       123.1682 
 826   0.0000       4.533175       123.3540 
 827   0.0000       4.533418       123.3606 
 828   0.0000       4.548646       123.7749 
 829   0.0000       4.559128       124.0602 
 830   0.0000       4.566387       124.2577 
 831   0.0000       4.573857       124.4610 
 832   0.0000       4.588361       124.8556 
 833   0.0000       4.599628       125.1622 
 834   0.0000       4.628960       125.9604 
 835   0.0000       4.632547       126.0580 
 836   0.0000       4.645043       126.3980 
 837   0.0000       4.658286       126.7584 
 838   0.0000       4.662005       126.8596 
 839   0.0000       4.675030       127.2140 
 840   0.0000       4.683854       127.4542 
 841   0.0000       4.690203       127.6269 
 842   0.0000       4.697324       127.8207 
 843   0.0000       4.711904       128.2174 
 844   0.0000       4.735359       128.8557 
 845   0.0000       4.753417       129.3471 
 846   0.0000       4.762387       129.5911 
 847   0.0000       4.765505       129.6760 
 848   0.0000       4.782915       130.1497 
 849   0.0000       4.788914       130.3130 
 850   0.0000       4.797001       130.5330 
 851   0.0000       4.818876       131.1283 
 852   0.0000       4.822844       131.2363 
 853   0.0000       4.829402       131.4147 
 854   0.0000       4.837802       131.6433 
 855   0.0000       4.851900       132.0269 
 856   0.0000       4.864694       132.3751 
 857   0.0000       4.872995       132.6009 
 858   0.0000       4.884823       132.9228 
 859   0.0000       4.892289       133.1260 
 860   0.0000       4.893551       133.1603 
 861   0.0000       4.913124       133.6929 
 862   0.0000       4.928220       134.1037 
 863   0.0000       4.938532       134.3843 
 864   0.0000       4.942347       134.4881 
 865   0.0000       4.951098       134.7262 
 866   0.0000       4.973696       135.3412 
 867   0.0000       4.987438       135.7151 
 868   0.0000       5.003228       136.1448 
 869   0.0000       5.008079       136.2768 
 870   0.0000       5.009169       136.3064 
 871   0.0000       5.030126       136.8767 
 872   0.0000       5.039010       137.1184 
 873   0.0000       5.046261       137.3157 
 874   0.0000       5.063709       137.7905 
 875   0.0000       5.081086       138.2634 
 876   0.0000       5.087798       138.4460 
 877   0.0000       5.100807       138.8000 
 878   0.0000       5.114264       139.1662 
 879   0.0000       5.129842       139.5901 
 880   0.0000       5.135915       139.7553 
 881   0.0000       5.151836       140.1886 
 882   0.0000       5.162333       140.4742 
 883   0.0000       5.173551       140.7795 
 884   0.0000       5.192324       141.2903 
 885   0.0000       5.206307       141.6708 
 886   0.0000       5.211226       141.8047 
 887   0.0000       5.223027       142.1258 
 888   0.0000       5.232860       142.3934 
 889   0.0000       5.254090       142.9710 
 890   0.0000       5.262801       143.2081 
 891   0.0000       5.274424       143.5244 
 892   0.0000       5.282788       143.7520 
 893   0.0000       5.301203       144.2531 
 894   0.0000       5.319116       144.7405 
 895   0.0000       5.323812       144.8683 
 896   0.0000       5.338224       145.2605 
 897   0.0000       5.356384       145.7546 
 898   0.0000       5.365538       146.0037 
 899   0.0000       5.369941       146.1235 
 900   0.0000       5.385386       146.5438 
 901   0.0000       5.397596       146.8760 
 902   0.0000       5.400601       146.9578 
 903   0.0000       5.414678       147.3409 
 904   0.0000       5.431665       147.8031 
 905   0.0000       5.439123       148.0061 
 906   0.0000       5.442893       148.1086 
 907   0.0000       5.448917       148.2726 
 908   0.0000       5.462265       148.6358 
 909   0.0000       5.478295       149.0720 
 910   0.0000       5.489614       149.3800 
 911   0.0000       5.510952       149.9606 
 912   0.0000       5.531327       150.5151 
 913   0.0000       5.535896       150.6394 
 914   0.0000       5.553927       151.1300 
 915   0.0000       5.559748       151.2884 
 916   0.0000       5.577960       151.7840 
 917   0.0000       5.587267       152.0373 
 918   0.0000       5.599972       152.3830 
 919   0.0000       5.618321       152.8823 
 920   0.0000       5.625141       153.0679 
 921   0.0000       5.631019       153.2278 
 922   0.0000       5.644783       153.6024 
 923   0.0000       5.651433       153.7833 
 924   0.0000       5.666385       154.1902 
 925   0.0000       5.675232       154.4309 
 926   0.0000       5.677993       154.5060 
 927   0.0000       5.701474       155.1450 
 928   0.0000       5.713419       155.4700 
 929   0.0000       5.729488       155.9073 
 930   0.0000       5.731437       155.9603 
 931   0.0000       5.739991       156.1931 
 932   0.0000       5.757319       156.6646 
 933   0.0000       5.763786       156.8406 
 934   0.0000       5.783905       157.3880 
 935   0.0000       5.795972       157.7164 
 936   0.0000       5.803202       157.9132 
 937   0.0000       5.828452       158.6002 
 938   0.0000       5.832638       158.7142 
 939   0.0000       5.844400       159.0342 
 940   0.0000       5.854547       159.3103 
 941   0.0000       5.865288       159.6026 
 942   0.0000       5.910681       160.8378 
 943   0.0000       5.911778       160.8676 
 944   0.0000       5.936826       161.5493 
 945   0.0000       5.987687       162.9332 
 946   0.0000       6.059887       164.8979 
 947   0.0000       6.083926       165.5520 
 948   0.0000       6.106437       166.1646 
 949   0.0000       6.127649       166.7418 
 950   0.0000       6.154397       167.4697 
 951   0.0000       6.180689       168.1851 
 952   0.0000       6.192847       168.5159 
 953   0.0000       6.203301       168.8004 
 954   0.0000       6.210640       169.0001 
 955   0.0000       6.228759       169.4931 
 956   0.0000       6.235605       169.6794 
 957   0.0000       6.258385       170.2993 
 958   0.0000       6.277500       170.8195 
 959   0.0000       6.313038       171.7865 
 960   0.0000       6.323218       172.0635 
 961   0.0000       6.342125       172.5780 
 962   0.0000       6.360723       173.0841 
 963   0.0000       6.380131       173.6122 
 964   0.0000       6.389902       173.8781 
 965   0.0000       6.398779       174.1196 
 966   0.0000       6.433661       175.0688 
 967   0.0000       6.449472       175.4991 
 968   0.0000       6.491019       176.6296 
 969   0.0000       6.519068       177.3929 
 970   0.0000       6.597575       179.5291 
 971   0.0000       6.733926       183.2394 
 972   0.0000       6.835355       185.9995 
 973   0.0000       6.856213       186.5671 
 974   0.0000       6.887314       187.4134 
 975   0.0000       6.921670       188.3482 
 976   0.0000       6.937573       188.7810 
 977   0.0000       6.980485       189.9487 
 978   0.0000       6.986178       190.1036 
 979   0.0000       6.989138       190.1841 
 980   0.0000       7.000736       190.4997 
 981   0.0000       7.041626       191.6124 
 982   0.0000       7.074419       192.5047 
 983   0.0000       7.087426       192.8587 
 984   0.0000       7.142320       194.3524 
 985   0.0000       7.197402       195.8513 
 986   0.0000       7.327362       199.3877 
 987   0.0000       7.363555       200.3725 
 988   0.0000       7.465696       203.1519 
 989   0.0000       7.505566       204.2368 
 990   0.0000       7.548647       205.4091 
 991   0.0000       7.660492       208.4526 
 992   0.0000       7.685766       209.1403 
 993   0.0000       7.769670       211.4235 
 994   0.0000       7.828888       213.0349 
 995   0.0000       7.914833       215.3736 
 996   0.0000       8.038981       218.7518 
 997   0.0000       8.100720       220.4318 
 998   0.0000       8.356248       227.3851 
 999   0.0000       9.434528       256.7266 
 1000   0.0000       9.451738       257.1949 
 1001   0.0000       9.469396       257.6754 
 1002   0.0000       9.475446       257.8400 
 1003   0.0000       9.489984       258.2356 
 1004   0.0000       9.525072       259.1904 
 1005   0.0000       9.752616       265.3822 
 1006   0.0000      10.104595       274.9600 
 1007   0.0000      10.126622       275.5594 
 1008   0.0000      10.142362       275.9877 
 1009   0.0000      10.220282       278.1080 
 1010   0.0000      10.230190       278.3776 
 1011   0.0000      10.250565       278.9320 
 1012   0.0000      10.396270       282.8969 
 1013   0.0000      10.435670       283.9690 
 1014   0.0000      10.554608       287.2055 
 1015   0.0000      15.001021       408.1985 
 1016   0.0000      17.554536       477.6832 
 1017   0.0000      18.239379       496.3187 
 1018   0.0000      18.456334       502.2224 
 1019   0.0000      18.658325       507.7188 
 1020   0.0000      18.927567       515.0453 
 1021   0.0000      19.102450       519.8041 
 1022   0.0000      20.239083       550.7334 
 1023   0.0000      20.471179       557.0491 
 1024   0.0000      21.929880       596.7424 

                 SPIN DOWN ORBITALS
  NO   OCC          E(Eh)            E(eV) 
   0   1.0000    -261.548241     -7117.0895 
   1   1.0000    -104.777185     -2851.1322 
   2   1.0000    -104.773070     -2851.0202 
   3   1.0000    -104.771674     -2850.9822 
   4   1.0000     -32.057606      -872.3318 
   5   1.0000     -27.535656      -749.2833 
   6   1.0000     -27.535521      -749.2796 
   7   1.0000     -27.535067      -749.2673 
   8   1.0000     -20.550307      -559.2023 
   9   1.0000     -11.385525      -309.8159 
  10   1.0000     -11.361036      -309.1495 
  11   1.0000     -11.280056      -306.9459 
  12   1.0000     -11.277949      -306.8886 
  13   1.0000     -11.262258      -306.4616 
  14   1.0000     -11.254862      -306.2604 
  15   1.0000     -11.253188      -306.2148 
  16   1.0000     -11.247124      -306.0498 
  17   1.0000     -10.503689      -285.8199 
  18   1.0000     -10.499553      -285.7074 
  19   1.0000     -10.498183      -285.6701 
  20   1.0000      -7.969541      -216.8622 
  21   1.0000      -7.969071      -216.8494 
  22   1.0000      -7.968998      -216.8475 
  23   1.0000      -7.965531      -216.7531 
  24   1.0000      -7.964830      -216.7340 
  25   1.0000      -7.964740      -216.7316 
  26   1.0000      -7.964121      -216.7147 
  27   1.0000      -7.963424      -216.6958 
  28   1.0000      -7.963343      -216.6936 
  29   1.0000      -4.132684      -112.4561 
  30   1.0000      -2.654491       -72.2324 
  31   1.0000      -2.654423       -72.2305 
  32   1.0000      -2.653530       -72.2062 
  33   1.0000      -1.383867       -37.6569 
  34   1.0000      -1.177454       -32.0402 
  35   1.0000      -1.080957       -29.4143 
  36   1.0000      -1.042327       -28.3632 
  37   1.0000      -1.034659       -28.1545 
  38   1.0000      -1.022984       -27.8368 
  39   1.0000      -1.019796       -27.7500 
  40   1.0000      -1.000643       -27.2289 
  41   1.0000      -0.980320       -26.6759 
  42   1.0000      -0.928769       -25.2731 
  43   1.0000      -0.798528       -21.7291 
  44   1.0000      -0.766695       -20.8628 
  45   1.0000      -0.699820       -19.0431 
  46   1.0000      -0.689613       -18.7653 
  47   1.0000      -0.674671       -18.3587 
  48   1.0000      -0.655850       -17.8466 
  49   1.0000      -0.648514       -17.6470 
  50   1.0000      -0.626825       -17.0568 
  51   1.0000      -0.598562       -16.2877 
  52   1.0000      -0.596286       -16.2258 
  53   1.0000      -0.587570       -15.9886 
  54   1.0000      -0.576968       -15.7001 
  55   1.0000      -0.574160       -15.6237 
  56   1.0000      -0.562314       -15.3013 
  57   1.0000      -0.554176       -15.0799 
  58   1.0000      -0.548261       -14.9189 
  59   1.0000      -0.533287       -14.5115 
  60   1.0000      -0.526254       -14.3201 
  61   1.0000      -0.504930       -13.7399 
  62   1.0000      -0.473899       -12.8955 
  63   1.0000      -0.466842       -12.7034 
  64   1.0000      -0.462516       -12.5857 
  65   1.0000      -0.438362       -11.9284 
  66   1.0000      -0.435305       -11.8452 
  67   1.0000      -0.433390       -11.7931 
  68   1.0000      -0.422200       -11.4886 
  69   1.0000      -0.413306       -11.2466 
  70   1.0000      -0.400333       -10.8936 
  71   1.0000      -0.386122       -10.5069 
  72   0.0000       0.008071         0.2196 
  73   0.0000       0.018755         0.5104 
  74   0.0000       0.021002         0.5715 
  75   0.0000       0.023138         0.6296 
  76   0.0000       0.031220         0.8495 
  77   0.0000       0.038143         1.0379 
  78   0.0000       0.039926         1.0865 
  79   0.0000       0.044240         1.2038 
  80   0.0000       0.045552         1.2395 
  81   0.0000       0.046554         1.2668 
  82   0.0000       0.056936         1.5493 
  83   0.0000       0.059322         1.6142 
  84   0.0000       0.061646         1.6775 
  85   0.0000       0.064263         1.7487 
  86   0.0000       0.065704         1.7879 
  87   0.0000       0.071651         1.9497 
  88   0.0000       0.075189         2.0460 
  89   0.0000       0.078973         2.1490 
  90   0.0000       0.088959         2.4207 
  91   0.0000       0.089322         2.4306 
  92   0.0000       0.093795         2.5523 
  93   0.0000       0.095973         2.6115 
  94   0.0000       0.098826         2.6892 
  95   0.0000       0.100848         2.7442 
  96   0.0000       0.108920         2.9639 
  97   0.0000       0.113546         3.0897 
  98   0.0000       0.121481         3.3057 
  99   0.0000       0.121767         3.3134 
 100   0.0000       0.122531         3.3342 
 101   0.0000       0.123724         3.3667 
 102   0.0000       0.125143         3.4053 
 103   0.0000       0.125586         3.4174 
 104   0.0000       0.129153         3.5144 
 105   0.0000       0.130059         3.5391 
 106   0.0000       0.131968         3.5910 
 107   0.0000       0.133797         3.6408 
 108   0.0000       0.136036         3.7017 
 109   0.0000       0.138371         3.7653 
 110   0.0000       0.139042         3.7835 
 111   0.0000       0.139903         3.8070 
 112   0.0000       0.145228         3.9518 
 113   0.0000       0.148543         4.0421 
 114   0.0000       0.152301         4.1443 
 115   0.0000       0.155642         4.2352 
 116   0.0000       0.159802         4.3484 
 117   0.0000       0.164001         4.4627 
 118   0.0000       0.164252         4.4695 
 119   0.0000       0.167783         4.5656 
 120   0.0000       0.170238         4.6324 
 121   0.0000       0.174748         4.7551 
 122   0.0000       0.176979         4.8158 
 123   0.0000       0.180544         4.9129 
 124   0.0000       0.183574         4.9953 
 125   0.0000       0.189567         5.1584 
 126   0.0000       0.190584         5.1861 
 127   0.0000       0.198595         5.4041 
 128   0.0000       0.199842         5.4380 
 129   0.0000       0.201676         5.4879 
 130   0.0000       0.205979         5.6050 
 131   0.0000       0.208457         5.6724 
 132   0.0000       0.209969         5.7135 
 133   0.0000       0.214437         5.8351 
 134   0.0000       0.216230         5.8839 
 135   0.0000       0.222586         6.0569 
 136   0.0000       0.227165         6.1815 
 137   0.0000       0.229293         6.2394 
 138   0.0000       0.229826         6.2539 
 139   0.0000       0.235499         6.4083 
 140   0.0000       0.237231         6.4554 
 141   0.0000       0.241365         6.5679 
 142   0.0000       0.244970         6.6660 
 143   0.0000       0.247947         6.7470 
 144   0.0000       0.248584         6.7643 
 145   0.0000       0.253037         6.8855 
 146   0.0000       0.255311         6.9474 
 147   0.0000       0.259687         7.0664 
 148   0.0000       0.263599         7.1729 
 149   0.0000       0.272087         7.4039 
 150   0.0000       0.275120         7.4864 
 151   0.0000       0.278313         7.5733 
 152   0.0000       0.280553         7.6342 
 153   0.0000       0.286217         7.7883 
 154   0.0000       0.288226         7.8430 
 155   0.0000       0.290302         7.8995 
 156   0.0000       0.296952         8.0805 
 157   0.0000       0.301661         8.2086 
 158   0.0000       0.303078         8.2472 
 159   0.0000       0.306903         8.3513 
 160   0.0000       0.308999         8.4083 
 161   0.0000       0.317058         8.6276 
 162   0.0000       0.324922         8.8416 
 163   0.0000       0.325768         8.8646 
 164   0.0000       0.329546         8.9674 
 165   0.0000       0.331972         9.0334 
 166   0.0000       0.336398         9.1539 
 167   0.0000       0.342605         9.3227 
 168   0.0000       0.344501         9.3744 
 169   0.0000       0.347834         9.4650 
 170   0.0000       0.353497         9.6191 
 171   0.0000       0.356235         9.6936 
 172   0.0000       0.359751         9.7893 
 173   0.0000       0.362283         9.8582 
 174   0.0000       0.363333         9.8868 
 175   0.0000       0.369111        10.0440 
 176   0.0000       0.372325        10.1315 
 177   0.0000       0.374541        10.1918 
 178   0.0000       0.379920        10.3382 
 179   0.0000       0.385033        10.4773 
 180   0.0000       0.389464        10.5979 
 181   0.0000       0.390061        10.6141 
 182   0.0000       0.392723        10.6865 
 183   0.0000       0.393199        10.6995 
 184   0.0000       0.396961        10.8019 
 185   0.0000       0.399668        10.8755 
 186   0.0000       0.401984        10.9385 
 187   0.0000       0.402904        10.9636 
 188   0.0000       0.406409        11.0589 
 189   0.0000       0.416617        11.3367 
 190   0.0000       0.419102        11.4044 
 191   0.0000       0.419958        11.4276 
 192   0.0000       0.424177        11.5424 
 193   0.0000       0.427720        11.6388 
 194   0.0000       0.432054        11.7568 
 195   0.0000       0.436568        11.8796 
 196   0.0000       0.437822        11.9137 
 197   0.0000       0.442224        12.0335 
 198   0.0000       0.447011        12.1638 
 199   0.0000       0.453570        12.3423 
 200   0.0000       0.456692        12.4272 
 201   0.0000       0.458350        12.4723 
 202   0.0000       0.462055        12.5732 
 203   0.0000       0.467523        12.7220 
 204   0.0000       0.471760        12.8372 
 205   0.0000       0.474115        12.9013 
 206   0.0000       0.479501        13.0479 
 207   0.0000       0.480451        13.0737 
 208   0.0000       0.485205        13.2031 
 209   0.0000       0.488206        13.2848 
 210   0.0000       0.489177        13.3112 
 211   0.0000       0.491740        13.3809 
 212   0.0000       0.496051        13.4982 
 213   0.0000       0.497877        13.5479 
 214   0.0000       0.498512        13.5652 
 215   0.0000       0.501920        13.6579 
 216   0.0000       0.505005        13.7419 
 217   0.0000       0.512725        13.9520 
 218   0.0000       0.514053        13.9881 
 219   0.0000       0.515937        14.0394 
 220   0.0000       0.520035        14.1509 
 221   0.0000       0.524460        14.2713 
 222   0.0000       0.526411        14.3244 
 223   0.0000       0.529305        14.4031 
 224   0.0000       0.532712        14.4958 
 225   0.0000       0.536490        14.5986 
 226   0.0000       0.539979        14.6936 
 227   0.0000       0.540389        14.7047 
 228   0.0000       0.545217        14.8361 
 229   0.0000       0.551878        15.0174 
 230   0.0000       0.553716        15.0674 
 231   0.0000       0.559313        15.2197 
 232   0.0000       0.562946        15.3185 
 233   0.0000       0.564905        15.3718 
 234   0.0000       0.569416        15.4946 
 235   0.0000       0.570606        15.5270 
 236   0.0000       0.572764        15.5857 
 237   0.0000       0.575413        15.6578 
 238   0.0000       0.582655        15.8549 
 239   0.0000       0.587026        15.9738 
 240   0.0000       0.591606        16.0984 
 241   0.0000       0.594156        16.1678 
 242   0.0000       0.595406        16.2018 
 243   0.0000       0.602518        16.3954 
 244   0.0000       0.604540        16.4504 
 245   0.0000       0.607640        16.5347 
 246   0.0000       0.607886        16.5414 
 247   0.0000       0.615949        16.7608 
 248   0.0000       0.618684        16.8352 
 249   0.0000       0.624760        17.0006 
 250   0.0000       0.630028        17.1439 
 251   0.0000       0.632350        17.2071 
 252   0.0000       0.636220        17.3124 
 253   0.0000       0.641334        17.4516 
 254   0.0000       0.643083        17.4992 
 255   0.0000       0.645780        17.5726 
 256   0.0000       0.650311        17.6959 
 257   0.0000       0.657837        17.9007 
 258   0.0000       0.662254        18.0208 
 259   0.0000       0.664190        18.0735 
 260   0.0000       0.665540        18.1103 
 261   0.0000       0.668541        18.1919 
 262   0.0000       0.676888        18.4191 
 263   0.0000       0.682036        18.5591 
 264   0.0000       0.683909        18.6101 
 265   0.0000       0.692260        18.8373 
 266   0.0000       0.694676        18.9031 
 267   0.0000       0.697376        18.9766 
 268   0.0000       0.701205        19.0807 
 269   0.0000       0.705205        19.1896 
 270   0.0000       0.712323        19.3833 
 271   0.0000       0.716529        19.4977 
 272   0.0000       0.720345        19.6016 
 273   0.0000       0.727353        19.7923 
 274   0.0000       0.729394        19.8478 
[...]
  | sigma^2 in % of trace(Dij) retained ...   8.78e+00
  | sigma^2 in % of trace(Dip) retained ...   1.64e+01
  | sigma^2 in % of trace(Dpq) retained ...   1.43e-01
  | Av. % of trace(Di) retained         ...  99.998509387222
  | Av. % of trace(Dp) retained         ...  99.999998732625
  | sigma^2 in % of trace(Di) retained  ...   7.48e-07
  | sigma^2 in % of trace(Dp) retained  ...   3.06e-12
 Distributions of % trace(Dij) recovered:
  |       >= 99.9  ...   103 ( 20.0 % of all IJ-pairs)
  |   [80.0, 90.0) ...    38 (  7.4 % of all IJ-pairs)
  |   [90.0, 99.0) ...   277 ( 53.9 % of all IJ-pairs)
  |   [99.0, 99.9) ...    96 ( 18.7 % of all IJ-pairs)
 Distributions of % trace(Dip) recovered:
  |   [80.0, 90.0) ...    12 ( 10.1 % of all IP-pairs)
  |   [90.0, 99.0) ...    65 ( 54.6 % of all IP-pairs)
  |   [99.0, 99.9) ...    42 ( 35.3 % of all IP-pairs)
 Distributions of % trace(Dpq) recovered:
  |       >= 99.9  ...     5 ( 33.3 % of all PQ-pairs)
  |   [99.0, 99.9) ...    10 ( 66.7 % of all PQ-pairs)
 Distributions of % trace(Di) recovered :
  |       >= 99.9  ...    43 (100.0 % of all I-pairs )
 Distributions of % trace(Dp) recovered :
  |       >= 99.9  ...     5 (100.0 % of all P-pairs )

                       ===========================
                       1129 OF 1695 PAIRS ARE KEPT
                       ===========================

 Initial PAO correlation energy (all pairs)    ...  -2.6964676781 Eh
 Energy constituents in PAO basis (Eh):
  | Vijab(+0) ...  -2.2675097334
  | Viab (-1) ...  -0.1751608843
  | Vab  (-2) ...  -0.0573657999
  | Va   (-1) ...  -0.0000412890
  | Vija (+1) ...  -0.0725586220
  | Vij  (+2) ...  -0.0154897405
  | Via  (+0) ...  -0.1081837454
  | Vi   (+1) ...  -0.0001578637
 Initial PNO correlation energy                ...  -2.6619563226 Eh
 Energy constituents in PNO basis (Eh):
  | Vijab(+0) ...  -2.2489279252 (err=  0.0185818082)
  | Viab (-1) ...  -0.1609553760 (err=  0.0142055083)
  | Vab  (-2) ...  -0.0568773910 (err=  0.0004884089)
  | Va   (-1) ...  -0.0000237910 (err=  0.0000174979)
  | Vija (+1) ...  -0.0714994539 (err=  0.0010591681)
  | Vij  (+2) ...  -0.0154289640 (err=  0.0000607765)
  | Via  (+0) ...  -0.1080858518 (err=  0.0000978936)
  | Vi   (+1) ...  -0.0001575698 (err=  0.0000002939)
 Sum of total truncation errors ...   0.0345113555 Eh
  | Pair screening ...   0.0113785173 Eh
  | PNO truncation ...   0.0231328382 Eh

 UMP2 correlation energy (PAO) ...  -2.6915955119
  | alpha-alpha ...  -0.3873563937 (NP_aa=  918)
  | alpha-beta  ...  -1.9964806711 (NP_ab= 1670)
  | beta -beta  ...  -0.3077584471 (NP_bb=  719)
 UMP2 correlation energy (PNO) ...  -2.6567051167
  | alpha-alpha ...  -0.3753118450 (err=  0.0120445487, NP_aa=  600)
  | alpha-beta  ...  -1.9777053345 (err=  0.0187753367, NP_ab= 1104)
  | beta -beta  ...  -0.3036879373 (err=  0.0040705098, NP_bb=  471)
 Sum of total UMP2 truncation errors ...   0.0348903952 Eh
  | Pair screening ...   0.0114002248 Eh
  | PNO truncation ...   0.0234901704 Eh
 Timing for NEV-PNO construction (sec.)
  | Intermediate construction  ..           43.917
  | Amplitude construction     ..           64.899
  | Total time                 ..          108.816
 Making pair pair interaction lists ...      ok
 Total size for 2-ext PNO integrals ...     11.1 MB
Checking the number of SOMO/SOMO doubles PNOs ... 
 #Truncate: (72, 72)[170] -> [85] .. 
 #Truncate: (73, 73)[172] -> [85] .. 
 #Truncate: (74, 74)[172] -> [85] .. 
 #Truncate: (75, 75)[171] -> [85] .. 
 #Truncate: (76, 76)[174] -> [85] .. 

--------------------------------
LOCAL RI TRANSFORMATION (VABPAO)
--------------------------------

Number of PAOs:    1030
Basis functions:   1025 (343 shells)
Aux. functions:    2424 (644 shells)

Processing maps (0.0 sec)
Average map sizes:
   Aux shells -> PAOs           1030.0
   PAOs       -> AO shells       343.0

Calculating integrals (193.6 sec, 37370.165 MB)
Finished
-----------------------------
LOCAL RI TRANSFORMATION (IJV)
-----------------------------

Orbital window:      29 to 76
Basis functions:   1025 (343 shells)
Aux. functions:    2424 (644 shells)

Processing maps (0.0 sec)
Average map sizes:
   Aux shells -> MOs(i)           47.0
   Aux shells -> MOs(j)           48.0
   MOs        -> AO shells       339.4

Calculating integrals (22.0 sec, 41.802 MB)
Sorting integrals (0.3 sec, 41.775 MB)
Total time for the integral transformation: 22.4 sec


-------------------------------------
Pair Pair Term precalculation with     
RI-(ij|mn) and (im|jn) transformation  
ON THE FLY                             
-------------------------------------

   IBatch   1 (of   2)              ... done ( 1092.023 sec)
   IBatch   2 (of   2)              ... done ( 1151.225 sec)
Total EXT                           ...        2243.249 sec

---------------------
RI-PNO TRANSFORMATION
---------------------

Total Number of PNOs                   ... 35122
Total Number of IJ-PNOs                ... 30934
Total Number of IP-PNOs                ...  3243
Total Number of PQ-PNOs                ...   945
Total Number of IJ-pairs               ...   985
Total Number of PI-pairs               ...   119
Total Number of PQ-pairs               ...    25
Average number of PNOs per pair        ...    31
Maximal number of PNOs per pair        ...    85
>> Statistics for ij-pairs..
   #pairs with  1 -  5 PNOs   :    0
   #pairs with  6 - 10 PNOs   :    0
   #pairs with 11 - 15 PNOs   :   56
   #pairs with 16 - 20 PNOs   :  242
   #pairs with 21 - 25 PNOs   :  174
   #pairs with 26 - 30 PNOs   :  146
   #pairs with 31 - 35 PNOs   :   72
   #pairs with 36 - 40 PNOs   :   46
   #pairs with 41 - 45 PNOs   :   50
   #pairs with 46 - 50 PNOs   :   26
   #pairs with 51 - 55 PNOs   :   34
   #pairs with 56 - 60 PNOs   :   58
   #pairs with 61 - 65 PNOs   :   72
   #pairs with 66 - 70 PNOs   :    6
   #pairs with 76 - 80 PNOs   :    3
>> Statistics for ip-pairs..
   #pairs with  1 -  5 PNOs   :    0
   #pairs with  6 - 10 PNOs   :    2
   #pairs with 11 - 15 PNOs   :   16
   #pairs with 16 - 20 PNOs   :    5
   #pairs with 21 - 25 PNOs   :   26
   #pairs with 26 - 30 PNOs   :   11
   #pairs with 31 - 35 PNOs   :   47
   #pairs with 36 - 40 PNOs   :   12
   #pairs with 41 - 45 PNOs   :    0
   #pairs with 46 - 50 PNOs   :    0
>> Statistics for pq-pairs..
   #pairs with  1 -  5 PNOs   :    0
   #pairs with  6 - 10 PNOs   :    0
   #pairs with 11 - 15 PNOs   :    0
   #pairs with 16 - 20 PNOs   :    0
   #pairs with 21 - 25 PNOs   :   12
   #pairs with 26 - 30 PNOs   :    8
   #pairs with 31 - 35 PNOs   :    0
   #pairs with 36 - 40 PNOs   :    0
   #pairs with 41 - 45 PNOs   :    0
   #pairs with 46 - 50 PNOs   :    0
   #pairs with 81 - 85 PNOs   :    5

Generation of (ij|ab)[P] integrals            ... on
Generation of (ia|bc)[P],(ja|bc)[P] integrals ... on
Storage of 3 and 4 external integrals         ... on
Generation of ALL (ka|bc)[P] integrals        ... on
Keep RI integrals in memory                   ... off

Ibatch:  1 (of  1)
Starting 2-4 index PNO integral generation ... done

Timings:
Total PNO integral transformation time     ...       2086.337 sec
Size of the 3-external file                ...       290 MB
Size of the 4-external file                ...      1969 MB
Size of the IKJL file                      ...        19 MB
Size of the all 3-external file            ...      6977 MB
Size of the 1-external file                ...        22 MB

Size of the PAO/PNO coefficient matrices   ...     228.9 MB

Making pair/pair overlap matrices          ... done (  321.789 sec)
Size of the pair overlap file              ...    2511.0 MB
Total # unrestricted pairs ...       2175
  # of alpha-alpha pairs   ...        600
  # of alpha-beta pairs    ...       1104
  # of beta-beta pairs     ...        471
Constructing the guess amplitudes          ... done (    0.573 sec)

-------------------------
FINAL STARTUP INFORMATION
-------------------------

E(0)                                       ...  -3028.426265068
E(SL-UMP2 in NEV-PNO space)                ...     -2.692626783
Initial E(tot)                             ...  -3031.118891851
<T|T>                                      ...      0.535875044
Number of unrestricted pairs included      ... 2175
Total number of pairs                      ... 4095
----------------------------------------------------------
                     OPEN-SHELL COUPLED CLUSTER ITERATIONS
----------------------------------------------------------

Number of PNO amplitudes to be optimized        ...          2154974
Number of canonical amplitudes for strong pairs ...       1964477498
Untruncated number of canonical amplitudes      ...       3698645738

Iter       E(tot)           E(Corr)          Delta-E          Residual     Time
  0  -3031.126039389     -2.663852655      0.028774129      0.021470302 1795.70
                           *** Turning on DIIS ***
  1  -3031.237917178     -2.775730443     -0.111877788      0.008859172 1779.32
  2  -3031.302027428     -2.839840693     -0.064110250      0.008539529 1744.72
  3  -3031.322864931     -2.860678197     -0.020837503      0.003083974 2019.06
  4  -3031.329854896     -2.867668161     -0.006989964      0.002732730 2052.86
  5  -3031.333512110     -2.871325375     -0.003657214      0.001790057 2071.05
  6  -3031.334861390     -2.872674655     -0.001349280      0.000822765 2044.39
  7  -3031.335641944     -2.873455209     -0.000780554      0.000403509 2050.81
  8  -3031.335792957     -2.873606222     -0.000151013      0.000175870 2046.69
  9  -3031.335840589     -2.873653854     -0.000047632      0.000128187 2044.83
 10  -3031.335835986     -2.873649252      0.000004602      0.000079861 2049.11
 11  -3031.335845513     -2.873658779     -0.000009527      0.000060416 2044.80
 12  -3031.335851319     -2.873664585     -0.000005806      0.000024568 2043.82
 13  -3031.335853626     -2.873666891     -0.000002307      0.000016058 2051.34
 14  -3031.335854359     -2.873667624     -0.000000733      0.000008976 2050.27
               --- The CCSD iterations have converged ---

E(0)                                       ...  -3028.426265068
E(CORR)(strong-pairs)                      ...     -2.873667624
E(CORR)(weak-pairs)                        ...     -0.035921667
E(CORR)(corrected)                         ...     -2.909589291
E(TOT)                                     ...  -3031.335854359
Singles norm <S|S>**1/2                    ...      0.190472291 ( 0.064812200, 0.125660090)  
T1 diagnostic                              ...      0.019966921                              
<S**2>(linearized)                         ...      8.7507417 (ideal value:      8.7500000)

----------------------
LARGEST PNO AMPLITUDES
----------------------
  71a-> 77a  71b-> 77b       0.066034
  50b-> 76b  -1b-> -1b       0.056316
  71a-> 78a  71b-> 78b       0.054169
  51b-> 76b  -1b-> -1b       0.049090
  48b-> 72b  -1b-> -1b       0.048776
  48b-> 74b  -1b-> -1b       0.046947
  54a-> 77a  54b-> 77b       0.046079
  48b-> 75b  -1b-> -1b       0.044666
  66a-> 77a  66b-> 77b       0.044621
  62a-> 77a  62b-> 77b       0.044594
  70a-> 77a  70b-> 77b       0.043108
  58a-> 77a  58b-> 77b       0.042634
  55a-> 78a  55b-> 78b       0.042483
  61a-> 77a  61b-> 77b       0.042276
  64a-> 77a  64b-> 77b       0.042139
  60a-> 77a  60b-> 77b       0.041972

Total # unrestricted pairs ...       1130
  # of alpha-alpha pairs   ...        317
  # of alpha-beta pairs    ...        565
  # of beta-beta pairs     ...        248

-------------------------------------------
DLPNO BASED TRIPLES CORRECTION
-------------------------------------------

Singles multiplier          ...  1.000000
Fragment selection                          .... not used
TCutTNO                     ... 1.000e-09
TCutMP2Pairs                ... 1.000e-05
TCutDOStrong                ... 2.000e-02
TCutMKNStrong               ... 1.000e-02
TCutDOWeak                  ... 4.000e-02
TCutMKNWeak                 ... 1.000e-01
NTCutTNO                    ... 1

Number of Triples that are to be computed         ...     35154

 . . . . . . . . .
10% done  
20% done  
30% done  
40% done  
50% done  
60% done  
70% done  
80% done  
90% done  
          Batch   1   done (  17305.853 sec)

Triples-Correction TCutTNO=   1.000e-09 (NWeakPairs = 0  1  2  3)  -0.117828843586   -0.001921521180    0.000000000000    0.000000000000
Triples-Correction  -0.119750364767

Triples timings:
Total time                      ... 18051.859 sec

Triples List generation         ...     0.000 sec
TNO generation                  ...   745.733 sec
Pair density generation         ...     0.094 sec
Look up tables                  ...     0.117 sec
Generating 3-index integrals    ... 11017.028 sec
Make 4-ind.int. from 3-ind.int  ...     3.855 sec
Projecting amplitudes (D + S)   ...  6010.080 sec
Sorting integrals for spin cases...    56.553 sec
Calculate W0/W1                 ...   176.415 sec
Energy contr. (sum over a,b,c)  ...    41.775 sec

Everything after 3-index        ...  6431.680 sec

Energy contribution AAA         ...    26.644 sec
Energy contribution AAB         ...   121.443 sec
Energy contribution ABB         ...   111.497 sec
Energy contribution BBB         ...    15.205 sec
prep                ...     3.341 sec
makeTTNO            ...  5949.234 sec
copyij              ...     0.134 sec
copyil              ...     4.342 sec
transposeij         ...     0.083 sec
newMatInDoubleProj  ...    57.514 sec
BlasInDoubleProj    ...  3217.717 sec
ProjSingles         ...    50.383 sec
ProjDoubles         ...  5959.696 sec
overall Doubles for projection      ... 3170526
used Doubles for projection         ... 3170526


Number of Triples   (0, 1, 2, 3 weak pairs; overall):  17097   12037       0       0  ( 29134)
Number of Atoms     (0, 1, 2, 3 weak pairs; overall):   20.2    15.0     0.0     0.0  (    29)
Number of PAOs      (0, 1, 2, 3 weak pairs; overall):  779.1   607.0     0.0     0.0  (  1025)
Number of AuxFcns   (0, 1, 2, 3 weak pairs; overall):  949.2   581.7     0.0     0.0  (  2424)
Number of TNOs (0, 1, 2, 3 weak pairs         ):   79.4    56.4     0.0     0.0
Aver. Number of NTNO, Atoms, PAOs, AuxFcns / Triples:  29134    69.9    18.1   708.0   797.4

Triples Correction (T)                     ...     -0.119750365
    alpha-alpha-alpha ... -0.003936724 (  3.3%)
    alpha-alpha-beta  ... -0.056226291 ( 47.0%)
    alpha-beta -beta  ... -0.055446375 ( 46.3%)
    beta -beta -beta  ... -0.004140975 (  3.5%)
Final correlation energy                   ...     -3.029339656
E(CCSD)                                    ...  -3031.335854359
E(CCSD(T))                                 ...  -3031.455604723

----------------------------
STATISTICS FOR PAIR-ENERGIES
----------------------------
Minimum, maximum and average ratios of UMP and CCSD pair-energies ... 0.55, 1.42, 1.02


------------------------------------------------------------------------------- 
                                     TIMINGS                                   
------------------------------------------------------------------------------- 


Total execution time                   ...    55948.877 sec

Localization of occupied MO's          ...       10.516 sec (  0.0%)
Fock Matrix Formation                  ...     1381.457 sec (  2.5%)
Differential overlap integrals         ...        1.384 sec (  0.0%)
Organizing maps                        ...        1.717 sec (  0.0%)
RI 3-index integral generations        ...      279.360 sec (  0.5%)
RI-PNO integral transformation         ...     4764.176 sec (  8.5%)
Initial Guess                          ...     1893.709 sec (  3.4%)
DIIS Solver                            ...       15.838 sec (  0.0%)
State Vector Update                    ...        0.695 sec (  0.0%)
Sigma-vector construction              ...    29888.762 sec ( 53.4%)
  <0|H|D>                              ...        0.032 sec (  0.0% of sigma)
  <D|H|D>(0-ext)                       ...     5997.645 sec ( 20.1% of sigma)
  <D|H|D>(2-ext Fock)                  ...        1.725 sec (  0.0% of sigma)
  <D|H|D>(2-ext)                       ...     4184.139 sec ( 14.0% of sigma)
  <D|H|D>(4-ext)                       ...      148.261 sec (  0.5% of sigma)
  <D|H|D>(4-ext-corr)                  ...      925.585 sec (  3.1% of sigma)
  CCSD doubles correction              ...      553.930 sec (  1.9% of sigma)
  <S|H|S>                              ...      715.704 sec (  2.4% of sigma)
  <S|H|D>(1-ext)                       ...      258.739 sec (  0.9% of sigma)
  <D|H|S>(1-ext)                       ...        0.779 sec (  0.0% of sigma)
  <S|H|D>(3-ext)                       ...       21.585 sec (  0.1% of sigma)
  CCSD singles correction              ...        0.004 sec (  0.0% of sigma)
  Fock-dressing                        ...     9377.504 sec ( 31.4% of sigma)
  Singles amplitudes                   ...      100.683 sec (  0.3% of sigma)
  (ik|jl)-dressing                     ...     6217.982 sec ( 20.8% of sigma)
  (ij|ab),(ia|jb)-dressing             ...     1333.706 sec (  4.5% of sigma)
  Pair energies                        ...        0.140 sec (  0.0% of sigma)
Total Time for computing (T)           ...    18088.477 sec ( 32.3% of ALL)


-------------------------   --------------------
FINAL SINGLE POINT ENERGY     -3031.455604723478
-------------------------   --------------------


                            ***************************************
                            *     ORCA property calculations      *
                            ***************************************

                                    ---------------------
                                    Active property flags
                                    ---------------------
   (+) Dipole Moment


------------------------------------------------------------------------------
                       ORCA ELECTRIC PROPERTIES CALCULATION
------------------------------------------------------------------------------

Dipole Moment Calculation                       ... on
Quadrupole Moment Calculation                   ... off
Polarizability Calculation                      ... off
GBWName                                         ... simple-grid-195-250-b3lyp_d3bj-631gd-gas-singlepoint-DLPNO_CCSD_T1-NormalPNO-augtz-gas.gbw
Electron density file                           ... simple-grid-195-250-b3lyp_d3bj-631gd-gas-singlepoint-DLPNO_CCSD_T1-NormalPNO-augtz-gas.scfp.tmp
The origin for moment calculation is the CENTER OF MASS  = ( 0.302793,  0.035035  0.014129)

-------------
DIPOLE MOMENT
-------------
                                X             Y             Z
Electronic contribution:     40.37880       5.06519       1.64458
Nuclear contribution   :    -45.11620      -5.22015      -2.10527
                        -----------------------------------------
Total Dipole Moment    :     -4.73741      -0.15496      -0.46069
                        -----------------------------------------
Magnitude (a.u.)       :      4.76228
Magnitude (Debye)      :     12.10474



--------------------
Rotational spectrum 
--------------------
 
Rotational constants in cm-1:     0.019117     0.011500     0.010720 
Rotational constants in MHz :   573.113873   344.747186   321.362836 

 Dipole components along the rotational axes: 
x,y,z [a.u.] :    -4.732595     0.154795    -0.507790 
x,y,z [Debye]:   -12.029299     0.393458    -1.290699 

 

Timings for individual modules:

Sum of individual times         ...    75599.096 sec (=1259.985 min)
GTO integral calculation        ...       12.440 sec (=   0.207 min)   0.0 %
SCF iterations                  ...    19620.021 sec (= 327.000 min)  26.0 %
MDCI module                     ...    55966.635 sec (= 932.777 min)  74.0 %
                             ****ORCA TERMINATED NORMALLY****
TOTAL RUN TIME: 0 days 21 hours 0 minutes 1 seconds 729 msec
