
                                 *****************
                                 * O   R   C   A *
                                 *****************

           --- An Ab Initio, DFT and Semiempirical electronic structure package ---

                  #######################################################
                  #                        -***-                        #
                  #          Department of theory and spectroscopy      #
                  #               Directorship: Frank Neese             #
                  #        Max Planck Institute fuer Kohlenforschung    #
                  #                Kaiser Wilhelm Platz 1               #
                  #                 D-45470 Muelheim/Ruhr               #
                  #                      Germany                        #
                  #                                                     #
                  #                  All rights reserved                #
                  #                        -***-                        #
                  #######################################################


                         Program Version 4.1.2  - RELEASE  -


 With contributions from (in alphabetic order):
   Daniel Aravena         : Magnetic Properties
   Michael Atanasov       : Ab Initio Ligand Field Theory
   Alexander A. Auer      : GIAO ZORA
   Ute Becker             : Parallelization
   Giovanni Bistoni       : ED, Open-shell LED
   Martin Brehm           : Molecular dynamics
   Dmytro Bykov           : SCF Hessian
   Vijay G. Chilkuri      : MRCI spin determinant printing
   Dipayan Datta          : RHF DLPNO-CCSD density
   Achintya Kumar Dutta   : EOM-CC, STEOM-CC
   Dmitry Ganyushin       : Spin-Orbit,Spin-Spin,Magnetic field MRCI
   Miquel Garcia          : C-PCM Hessian
   Yang Guo               : DLPNO-NEVPT2, CIM, IAO-localization
   Andreas Hansen         : Spin unrestricted coupled pair/coupled cluster methods
   Benjamin Helmich-Paris : CASSCF linear response (MC-RPA)
   Lee Huntington         : MR-EOM, pCC
   Robert Izsak           : Overlap fitted RIJCOSX, COSX-SCS-MP3, EOM
   Christian Kollmar      : KDIIS, OOCD, Brueckner-CCSD(T), CCSD density
   Simone Kossmann        : Meta GGA functionals, TD-DFT gradient, OOMP2, MP2 Hessian
   Martin Krupicka        : AUTO-CI
   Lucas Lang             : DCDCAS
   Dagmar Lenk            : GEPOL surface, SMD
   Dimitrios Liakos       : Extrapolation schemes; parallel MDCI
   Dimitrios Manganas     : ROCIS; embedding schemes
   Dimitrios Pantazis     : SARC Basis sets
   Taras Petrenko         : DFT Hessian,TD-DFT gradient, ASA, ECA, R-Raman, ABS, FL, XAS/XES, NRVS
   Peter Pinski           : DLPNO-MP2, DLPNO-MP2 Gradient
   Christoph Reimann      : Effective Core Potentials
   Marius Retegan         : Local ZFS, SOC
   Christoph Riplinger    : Optimizer, TS searches, QM/MM, DLPNO-CCSD(T), (RO)-DLPNO pert. Triples
   Tobias Risthaus        : Range-separated hybrids, TD-DFT gradient, RPA, STAB
   Michael Roemelt        : Restricted open shell CIS
   Masaaki Saitow         : Open-shell DLPNO
   Barbara Sandhoefer     : DKH picture change effects
   Avijit Sen             : IP-ROCIS
   Kantharuban Sivalingam : CASSCF convergence, NEVPT2, FIC-MRCI
   Bernardo de Souza      : ESD, SOC TD-DFT
   Georgi Stoychev        : AutoAux, RI-MP2 NMR
   Willem Van den Heuvel  : Paramagnetic NMR
   Boris Wezisla          : Elementary symmetry handling
   Frank Wennmohs         : Technical directorship


 We gratefully acknowledge several colleagues who have allowed us to
 interface, adapt or use parts of their codes:
   Stefan Grimme, W. Hujo, H. Kruse,             : VdW corrections, initial TS optimization,
                  C. Bannwarth                     DFT functionals, gCP, sTDA/sTD-DF
   Ed Valeev                                     : LibInt (2-el integral package), F12 methods
   Garnet Chan, S. Sharma, J. Yang, R. Olivares  : DMRG
   Ulf Ekstrom                                   : XCFun DFT Library
   Mihaly Kallay                                 : mrcc  (arbitrary order and MRCC methods)
   Andreas Klamt, Michael Diedenhofen            : otool_cosmo (COSMO solvation model)
   Jiri Pittner, Ondrej Demel                    : Mk-CCSD
   Frank Weinhold                                : gennbo (NPA and NBO analysis)
   Christopher J. Cramer and Donald G. Truhlar   : smd solvation model
   Lars Goerigk                                  : TD-DFT with DH, B97 family of functionals
   V. Asgeirsson, H. Jonsson                     : NEB implementation
   FAccTs GmbH                                   : IRC, NEB, NEB-TS, Multilevel


 Your calculation uses the libint2 library for the computation of 2-el integrals
 For citations please refer to: http://libint.valeyev.net

 This ORCA versions uses:
   CBLAS   interface :  Fast vector & matrix operations
   LAPACKE interface :  Fast linear algebra routines
   SCALAPACK package :  Parallel linear algebra routines


----- Orbital basis set information -----
Your calculation utilizes the basis: aug-cc-pVTZ 
    H, B-Ne : Obtained from the ccRepo (grant-hill.group.shef.ac.uk/ccrepo) Feb. 2017
              R. A. Kendall, T. H. Dunning, Jr., R. J. Harrison, J. Chem. Phys. 96, 6796 (1992)
         He : Obtained from the ccRepo (grant-hill.group.shef.ac.uk/ccrepo) Feb. 2017
              D. E. Woon, T. H. Dunning, Jr., J. Chem. Phys. 100, 2975 (1994)
  Li-Be, Na : Obtained from the ccRepo (grant-hill.group.shef.ac.uk/ccrepo) Feb. 2017
              B. P. Prascher, D. E. Woon, K. A. Peterson, T. H. Dunning, Jr., A. K. Wilson, Theor. Chem. Acc. 128, 69 (2011)
         Mg : Obtained from the Peterson Research Group Website (tyr0.chem.wsu.edu/~kipeters) Feb. 2017
              B. P. Prascher, D. E. Woon, K. A. Peterson, T. H. Dunning, Jr., A. K. Wilson, Theor. Chem. Acc. 128, 69 (2011)
      Al-Ar : Obtained from the ccRepo (grant-hill.group.shef.ac.uk/ccrepo) Feb. 2017
              D. E. Woon, T. H. Dunning, Jr., J. Chem. Phys. 98, 1358 (1993)
      Sc-Zn : Obtained from the ccRepo (grant-hill.group.shef.ac.uk/ccrepo) Feb. 2017
              N. B. Balabanov, K. A. Peterson, J. Chem. Phys. 123, 064107 (2005)
              N. B. Balabanov, K. A. Peterson, J. Chem. Phys. 125, 074110 (2006)
      Ga-Kr : Obtained from the ccRepo (grant-hill.group.shef.ac.uk/ccrepo) Feb. 2017
              A. K. Wilson, D. E. Woon, K. A. Peterson, T. H. Dunning, Jr., J. Chem. Phys. 110, 7667 (1999)
     Ag, Au : Obtained from the Peterson Research Group Website (tyr0.chem.wsu.edu/~kipeters) Feb. 2017
              K. A. Peterson, C. Puzzarini, Theor. Chem. Acc. 114, 283 (2005)

----- AuxJ basis set information -----
Your calculation utilizes the AutoAux generation procedure.
  G. L. Stoychev, A. A. Auer, F. Neese, J. Chem. Theory Comput. 13, 554 (2017)

----- AuxC basis set information -----
Your calculation utilizes the auxiliary basis: aug-cc-pVTZ/C 
  H-He, B-F, Al-Ar, Ga-Kr : Obtained from the EMSL Basis Set Exchange (bse.pnl.gov) Feb. 2017
                            F. Weigend, A. Kohn, C. Hattig, J. Chem. Phys. 116, 3175 (2002)
                   Be, Mg : Obtained from the TURBOMOLE 7.0 basis set library
                            C. Haettig, Phys. Chem. Chem. Phys. 7, 59 (2005)
                       Ne : Obtained from the EMSL Basis Set Exchange (bse.pnl.gov) Feb. 2017
                            C. Haettig, Phys. Chem. Chem. Phys. 7, 59 (2005)
                            F. Weigend, A. Kohn, C. Hattig, J. Chem. Phys. 116, 3175 (2002)
                    Sc-Zn : Obtained from the EMSL Basis Set Exchange (bse.pnl.gov) Feb. 2017
                            J. G. Hill, J. A. Platts, J. Chem. Phys. 128, 044104 (2008)

----- AuxJK basis set information -----
Your calculation utilizes the AutoAux generation procedure.
  G. L. Stoychev, A. A. Auer, F. Neese, J. Chem. Theory Comput. 13, 554 (2017)

================================================================================
                                        WARNINGS
                       Please study these warnings very carefully!
================================================================================


WARNING: your system is open-shell and RHF/RKS was chosen
  ===> : WILL SWITCH to UHF/UKS


WARNING: MDCI localization with Augmented Hessian Foster-Boys
  ===> : Switching off randomization!

WARNING: Post HF methods need fully converged wavefunctions
  ===> : Setting SCFConvForced true
         You can overwrite this default with %scf ConvForced false 


INFO   : the flag for use of LIBINT has been found!

================================================================================
                                       INPUT FILE
================================================================================
NAME = simple-grid-285-280-b3lyp_d3bj-631gd-gas-singlepoint-DLPNO_CCSD_T1-NormalPNO-augtz-gas.inp
|  1> ! aug-cc-pVTZ aug-cc-pVTZ/C DLPNO-CCSD(T1) TightSCF NormalPNO UNO MiniPrint AutoAux
|  2> %pal nproc 10 end
|  3> %maxcore 20000
|  4> %mdci
|  5>      density none
|  6> end
|  7> 
|  8> * xyz 0 6
|  9>  O      0.21884200      0.39759300     -0.84522900
| 10>  C      0.95291200      1.38845800     -0.63956000
| 11>  C      3.17566500      0.00671300      0.48855700
| 12>  C      2.59674300     -0.95696800     -0.25298300
| 13>  C      2.94803900     -1.14609100     -1.70483700
| 14> Fe     -1.47160700     -0.16183100      0.03010900
| 15> Cl     -2.08488200     -1.94969400     -1.04069300
| 16>  C      1.65241000     -1.99171900      0.28837000
| 17> Cl     -2.68781700      1.62152600     -0.33553200
| 18> Cl     -1.08864400     -0.45851400      2.16824000
| 19>  H      3.90760000      0.64640600     -0.00676300
| 20>  H      2.15478000     -2.96862600      0.31060700
| 21>  H      1.29268100     -1.77742000      1.29444000
| 22>  H      0.78538000     -2.11305600     -0.37135700
| 23>  H      3.38616900     -2.14087600     -1.85958300
| 24>  H      2.04813800     -1.10550300     -2.33220800
| 25>  H      3.66788300     -0.40354200     -2.06193000
| 26>  C      3.04310700      0.21396200      1.97231100
| 27>  H      3.89178600     -0.24209700      2.50053000
| 28>  H      3.05399000      1.27907300      2.22993100
| 29>  H      2.12885300     -0.22195700      2.38316300
| 30>  C      0.82766900      2.20441400      0.60684500
| 31>  H      1.70804900      2.82542400      0.77761200
| 32>  H     -0.04315800      2.86166600      0.46434300
| 33>  H      0.62170800      1.57742900      1.47524600
| 34>  C      1.76078600      1.93105100     -1.77624400
| 35>  H      1.20530900      2.79665000     -2.16660900
| 36>  H      2.73630800      2.28996600     -1.44313300
| 37>  H      1.86441200      1.19799800     -2.57430100
| 38> *
| 39> 
| 40> 
| 41>                          ****END OF INPUT****
================================================================================

                       ****************************
                       * Single Point Calculation *
                       ****************************

---------------------------------
CARTESIAN COORDINATES (ANGSTROEM)
---------------------------------
  O      0.218842    0.397593   -0.845229
  C      0.952912    1.388458   -0.639560
  C      3.175665    0.006713    0.488557
  C      2.596743   -0.956968   -0.252983
  C      2.948039   -1.146091   -1.704837
  Fe    -1.471607   -0.161831    0.030109
  Cl    -2.084882   -1.949694   -1.040693
  C      1.652410   -1.991719    0.288370
  Cl    -2.687817    1.621526   -0.335532
  Cl    -1.088644   -0.458514    2.168240
  H      3.907600    0.646406   -0.006763
  H      2.154780   -2.968626    0.310607
  H      1.292681   -1.777420    1.294440
  H      0.785380   -2.113056   -0.371357
  H      3.386169   -2.140876   -1.859583
  H      2.048138   -1.105503   -2.332208
  H      3.667883   -0.403542   -2.061930
  C      3.043107    0.213962    1.972311
  H      3.891786   -0.242097    2.500530
  H      3.053990    1.279073    2.229931
  H      2.128853   -0.221957    2.383163
  C      0.827669    2.204414    0.606845
  H      1.708049    2.825424    0.777612
  H     -0.043158    2.861666    0.464343
  H      0.621708    1.577429    1.475246
  C      1.760786    1.931051   -1.776244
  H      1.205309    2.796650   -2.166609
  H      2.736308    2.289966   -1.443133
  H      1.864412    1.197998   -2.574301

----------------------------
CARTESIAN COORDINATES (A.U.)
----------------------------
  NO LB      ZA    FRAG     MASS         X           Y           Z
   0 O     8.0000    0    15.999    0.413551    0.751342   -1.597251
   1 C     6.0000    0    12.011    1.800743    2.623805   -1.208593
   2 C     6.0000    0    12.011    6.001137    0.012686    0.923239
   3 C     6.0000    0    12.011    4.907133   -1.808407   -0.478069
   4 C     6.0000    0    12.011    5.570986   -2.165798   -3.221675
   5 Fe   26.0000    0    55.850   -2.780934   -0.305816    0.056898
   6 Cl   17.0000    0    35.453   -3.939856   -3.684388   -1.966625
   7 C     6.0000    0    12.011    3.122602   -3.763803    0.544940
   8 Cl   17.0000    0    35.453   -5.079238    3.064240   -0.634064
   9 Cl   17.0000    0    35.453   -2.057239   -0.866466    4.097380
  10 H     1.0000    0     1.008    7.384294    1.221530   -0.012780
  11 H     1.0000    0     1.008    4.071944   -5.609890    0.586962
  12 H     1.0000    0     1.008    2.442813   -3.358837    2.446137
  13 H     1.0000    0     1.008    1.484153   -3.993097   -0.701763
  14 H     1.0000    0     1.008    6.398932   -4.045669   -3.514103
  15 H     1.0000    0     1.008    3.870420   -2.089098   -4.407234
  16 H     1.0000    0     1.008    6.931294   -0.762584   -3.896483
  17 C     6.0000    0    12.011    5.750639    0.404330    3.727128
  18 H     1.0000    0     1.008    7.354410   -0.457497    4.725317
  19 H     1.0000    0     1.008    5.771205    2.417098    4.213959
  20 H     1.0000    0     1.008    4.022949   -0.419438    4.503525
  21 C     6.0000    0    12.011    1.564068    4.165739    1.146771
  22 H     1.0000    0     1.008    3.227745    5.339278    1.469474
  23 H     1.0000    0     1.008   -0.081557    5.407765    0.877481
  24 H     1.0000    0     1.008    1.174858    2.980909    2.787811
  25 C     6.0000    0    12.011    3.327403    3.649158   -3.356615
  26 H     1.0000    0     1.008    2.277704    5.284903   -4.094298
  27 H     1.0000    0     1.008    5.170873    4.327409   -2.727126
  28 H     1.0000    0     1.008    3.523228    2.263888   -4.864724



           ************************************************************
           *        Program running with 10 parallel MPI-processes    *
           *              working on a common directory               *
           ************************************************************


           ************************************************************
           *        Program running with 10 parallel MPI-processes    *
           *              working on a common directory               *
           ************************************************************

Diagonalization of the overlap matrix:
Smallest eigenvalue                        ... 8.487e-07
Time for diagonalization                   ...    0.389 sec
Threshold for overlap eigenvalues          ... 1.000e-08
Number of eigenvalues below threshold      ... 0
Time for construction of square roots      ...    0.341 sec
Total time needed                          ...    0.738 sec

-------------------
DFT GRID GENERATION
-------------------

General Integration Accuracy     IntAcc      ...  4.340
Radial Grid Type                 RadialGrid  ... Gauss-Chebyshev
Angular Grid (max. acc.)         AngularGrid ... Lebedev-110
Angular grid pruning method      GridPruning ... 3 (G Style)
Weight generation scheme         WeightScheme... Becke
Basis function cutoff            BFCut       ...    1.0000e-11
Integration weight cutoff        WCut        ...    1.0000e-14
Grids for H and He will be reduced by one unit

# of grid points (after initial pruning)     ...  36112 (   0.0 sec)
# of grid points (after weights+screening)   ...  32461 (   0.1 sec)
nearest neighbour list constructed           ...    0.0 sec
Grid point re-assignment to atoms done       ...    0.0 sec
Grid point division into batches done        ...    0.0 sec
Reduced shell lists constructed in    0.4 sec

Total number of grid points                  ...    32461
Total number of batches                      ...      522
Average number of points per batch           ...       62
Average number of grid points per atom       ...     1119
Average number of shells per batch           ...   285.02 (83.10%)
Average number of basis functions per batch  ...   844.06 (82.35%)
Average number of large shells per batch     ...   229.98 (80.69%)
Average number of large basis fcns per batch ...   683.09 (80.93%)
Maximum spatial batch extension              ...   4.16,  4.12,  3.84 au
Average spatial batch extension              ...   0.18,  0.18,  0.18 au

Time for grid setup =    0.569 sec

Loading Hartree-Fock densities                     ... done
Calculating cut-offs                               ... done
Setting up the integral package                    ... done
Initializing the effective Hamiltonian             ... done
Starting the Coulomb interaction                   ... done (   1.1 sec)
Reading the grid                                   ... done
Mapping shells                                     ... done
Starting the XC term evaluation                    ... done (   1.1 sec)
Transforming the Hamiltonian                       ... done (   0.2 sec)
Diagonalizing the Hamiltonian                      ... done (   0.4 sec)
Back transforming the eigenvectors                 ... done (   0.1 sec)
Now organizing SCF variables                       ... done
--------------
SCF ITERATIONS
--------------
ITER       Energy         Delta-E        Max-DP      RMS-DP      [F,P]     Damp
               ***  Starting incremental Fock matrix formation  ***
  0  -3027.5977037496   0.000000000000 0.15806461  0.00085064  0.2401523 0.7000
  1  -3027.8527166696  -0.255012920026 0.12089617  0.00067371  0.1556225 0.7000
                               ***Turning on DIIS***
  2  -3028.0231499512  -0.170433281563 0.08585902  0.00049952  0.1094481 0.7000
  3  -3029.6099506307  -1.586800679555 0.23783004  0.00127528  0.0816441 0.0000
  4  -3028.3158679669   1.294082663894 0.04183227  0.00021521  0.0196889 0.0000
  5  -3028.4405393288  -0.124671361998 0.03911276  0.00016885  0.0111366 0.0000
  6  -3028.4879406526  -0.047401323784 0.01933200  0.00006980  0.0053411 0.0000
  7  -3028.5021176331  -0.014176980447 0.00852384  0.00003210  0.0031194 0.0000
  8  -3028.4913786075   0.010739025534 0.00636392  0.00001852  0.0015767 0.0000
  9  -3028.4871418685   0.004236739023 0.00228023  0.00001052  0.0006841 0.0000
 10  -3028.4746213231   0.012520545420 0.00096605  0.00000334  0.0004214 0.0000
 11  -3028.4804696629  -0.005848339764 0.00028388  0.00000167  0.0000895 0.0000
 12  -3028.4783843413   0.002085321516 0.00021428  0.00000128  0.0000228 0.0000
 13  -3028.4783156888   0.000068652510 0.00035748  0.00000158  0.0000094 0.0000
 14  -3028.4783241242  -0.000008435373 0.00049935  0.00000175  0.0000063 0.0000
 15  -3028.4782831542   0.000040970054 0.00047111  0.00000160  0.0000041 0.0000
 16  -3028.4782837626  -0.000000608399 0.00052416  0.00000208  0.0000035 0.0000
 17  -3028.4782991068  -0.000015344228 0.00052650  0.00000168  0.0000023 0.0000
 18  -3028.4782811968   0.000017909978 0.00082002  0.00000281  0.0000017 0.0000
                            ***DIIS convergence achieved***

               *****************************************************
               *                     SUCCESS                       *
               *           SCF CONVERGED AFTER  19 CYCLES          *
               *****************************************************

Total Energy       :        -3028.47828723 Eh          -82409.08379 eV
  Last Energy change         ...   -6.0339e-06  Tolerance :   1.0000e-08
  Last MAX-Density change    ...    2.2000e-04  Tolerance :   1.0000e-07
             **** THE GBW FILE WAS UPDATED (simple-grid-285-280-b3lyp_d3bj-631gd-gas-singlepoint-DLPNO_CCSD_T1-NormalPNO-augtz-gas.gbw) ****
             **** DENSITY FILE WAS UPDATED (simple-grid-285-280-b3lyp_d3bj-631gd-gas-singlepoint-DLPNO_CCSD_T1-NormalPNO-augtz-gas.scfp.tmp) ****
             **** ENERGY FILE WAS UPDATED (simple-grid-285-280-b3lyp_d3bj-631gd-gas-singlepoint-DLPNO_CCSD_T1-NormalPNO-augtz-gas.en.tmp) ****
----------------------
UHF SPIN CONTAMINATION
----------------------

Expectation value of <S**2>     :     8.765085
Ideal value S*(S+1) for S=2.5   :     8.750000
Deviation                       :     0.015085

----------------
ORBITAL ENERGIES
----------------
                 SPIN UP ORBITALS
  NO   OCC          E(Eh)            E(eV) 
   0   1.0000    -261.578906     -7117.9239 
   1   1.0000    -104.795562     -2851.6322 
   2   1.0000    -104.792714     -2851.5547 
   3   1.0000    -104.790937     -2851.5064 
   4   1.0000     -32.246552      -877.4733 
   5   1.0000     -27.723092      -754.3837 
   6   1.0000     -27.721859      -754.3501 
   7   1.0000     -27.721673      -754.3451 
   8   1.0000     -20.625886      -561.2589 
   9   1.0000     -11.422503      -310.8221 
  10   1.0000     -11.279544      -306.9320 
  11   1.0000     -11.273547      -306.7688 
  12   1.0000     -11.259467      -306.3857 
  13   1.0000     -11.239530      -305.8432 
  14   1.0000     -11.238336      -305.8107 
  15   1.0000     -11.235582      -305.7357 
  16   1.0000     -11.226045      -305.4762 
  17   1.0000     -10.522293      -286.3262 
  18   1.0000     -10.519420      -286.2480 
  19   1.0000     -10.517588      -286.1981 
  20   1.0000      -7.989114      -217.3949 
  21   1.0000      -7.988383      -217.3750 
  22   1.0000      -7.988323      -217.3733 
  23   1.0000      -7.986318      -217.3188 
  24   1.0000      -7.985509      -217.2967 
  25   1.0000      -7.985453      -217.2952 
  26   1.0000      -7.984368      -217.2657 
  27   1.0000      -7.983716      -217.2480 
  28   1.0000      -7.983676      -217.2469 
  29   1.0000      -4.601304      -125.2078 
  30   1.0000      -3.214466       -87.4701 
  31   1.0000      -3.212636       -87.4203 
  32   1.0000      -3.212534       -87.4175 
  33   1.0000      -1.470593       -40.0169 
  34   1.0000      -1.120220       -30.4827 
  35   1.0000      -1.103667       -30.0323 
  36   1.0000      -1.069121       -29.0923 
  37   1.0000      -1.063370       -28.9358 
  38   1.0000      -1.060786       -28.8655 
  39   1.0000      -1.020870       -27.7793 
  40   1.0000      -1.009164       -27.4607 
  41   1.0000      -0.954394       -25.9704 
  42   1.0000      -0.944849       -25.7107 
  43   1.0000      -0.930145       -25.3105 
  44   1.0000      -0.930013       -25.3070 
  45   1.0000      -0.919063       -25.0090 
  46   1.0000      -0.918472       -24.9929 
  47   1.0000      -0.892147       -24.2765 
  48   1.0000      -0.816988       -22.2314 
  49   1.0000      -0.724542       -19.7158 
  50   1.0000      -0.715860       -19.4795 
  51   1.0000      -0.706074       -19.2132 
  52   1.0000      -0.685859       -18.6632 
  53   1.0000      -0.650646       -17.7050 
  54   1.0000      -0.621978       -16.9249 
  55   1.0000      -0.617169       -16.7940 
  56   1.0000      -0.603486       -16.4217 
  57   1.0000      -0.600013       -16.3272 
  58   1.0000      -0.586547       -15.9608 
  59   1.0000      -0.580000       -15.7826 
  60   1.0000      -0.561033       -15.2665 
  61   1.0000      -0.548603       -14.9282 
  62   1.0000      -0.548128       -14.9153 
  63   1.0000      -0.537032       -14.6134 
  64   1.0000      -0.536249       -14.5921 
  65   1.0000      -0.523177       -14.2364 
  66   1.0000      -0.506184       -13.7740 
  67   1.0000      -0.488850       -13.3023 
  68   1.0000      -0.478728       -13.0268 
  69   1.0000      -0.478219       -13.0130 
  70   1.0000      -0.448897       -12.2151 
  71   1.0000      -0.442457       -12.0399 
  72   1.0000      -0.440705       -11.9922 
  73   1.0000      -0.432121       -11.7586 
  74   1.0000      -0.431013       -11.7285 
  75   1.0000      -0.429905       -11.6983 
  76   1.0000      -0.355562        -9.6753 
  77   0.0000       0.012809         0.3486 
  78   0.0000       0.023922         0.6509 
  79   0.0000       0.024804         0.6749 
  80   0.0000       0.030850         0.8395 
  81   0.0000       0.039553         1.0763 
  82   0.0000       0.041518         1.1298 
  83   0.0000       0.042705         1.1621 
  84   0.0000       0.042972         1.1693 
  85   0.0000       0.044268         1.2046 
  86   0.0000       0.056313         1.5323 
  87   0.0000       0.057647         1.5686 
  88   0.0000       0.061693         1.6788 
  89   0.0000       0.064176         1.7463 
  90   0.0000       0.065403         1.7797 
  91   0.0000       0.069325         1.8864 
  92   0.0000       0.074225         2.0198 
  93   0.0000       0.077262         2.1024 
  94   0.0000       0.082106         2.2342 
  95   0.0000       0.090742         2.4692 
  96   0.0000       0.092539         2.5181 
  97   0.0000       0.094381         2.5682 
  98   0.0000       0.095955         2.6111 
  99   0.0000       0.102581         2.7914 
 100   0.0000       0.105913         2.8820 
 101   0.0000       0.108002         2.9389 
 102   0.0000       0.117636         3.2010 
 103   0.0000       0.120846         3.2884 
 104   0.0000       0.123554         3.3621 
 105   0.0000       0.123993         3.3740 
 106   0.0000       0.125476         3.4144 
 107   0.0000       0.127126         3.4593 
 108   0.0000       0.130482         3.5506 
 109   0.0000       0.133164         3.6236 
 110   0.0000       0.135913         3.6984 
 111   0.0000       0.137992         3.7550 
 112   0.0000       0.142778         3.8852 
 113   0.0000       0.144801         3.9402 
 114   0.0000       0.148066         4.0291 
 115   0.0000       0.151397         4.1197 
 116   0.0000       0.155720         4.2374 
 117   0.0000       0.161652         4.3988 
 118   0.0000       0.163106         4.4383 
 119   0.0000       0.163834         4.4581 
 120   0.0000       0.168278         4.5791 
 121   0.0000       0.170046         4.6272 
 122   0.0000       0.174985         4.7616 
 123   0.0000       0.179593         4.8870 
 124   0.0000       0.182939         4.9780 
 125   0.0000       0.186050         5.0627 
 126   0.0000       0.187938         5.1141 
 127   0.0000       0.191844         5.2203 
 128   0.0000       0.192886         5.2487 
 129   0.0000       0.196258         5.3404 
 130   0.0000       0.197332         5.3697 
 131   0.0000       0.200979         5.4689 
 132   0.0000       0.202394         5.5074 
 133   0.0000       0.206156         5.6098 
 134   0.0000       0.210266         5.7216 
 135   0.0000       0.214372         5.8334 
 136   0.0000       0.216827         5.9002 
 137   0.0000       0.222924         6.0661 
 138   0.0000       0.225478         6.1356 
 139   0.0000       0.231016         6.2863 
 140   0.0000       0.232869         6.3367 
 141   0.0000       0.234930         6.3928 
 142   0.0000       0.238880         6.5003 
 143   0.0000       0.240335         6.5399 
 144   0.0000       0.243639         6.6297 
 145   0.0000       0.246876         6.7178 
 146   0.0000       0.250873         6.8266 
 147   0.0000       0.252919         6.8823 
 148   0.0000       0.256834         6.9888 
 149   0.0000       0.259044         7.0490 
 150   0.0000       0.260740         7.0951 
 151   0.0000       0.268577         7.3084 
 152   0.0000       0.273341         7.4380 
 153   0.0000       0.276292         7.5183 
 154   0.0000       0.280058         7.6208 
 155   0.0000       0.285511         7.7692 
 156   0.0000       0.291881         7.9425 
 157   0.0000       0.293275         7.9804 
 158   0.0000       0.297313         8.0903 
 159   0.0000       0.305308         8.3079 
 160   0.0000       0.308439         8.3930 
 161   0.0000       0.309171         8.4130 
 162   0.0000       0.316630         8.6159 
 163   0.0000       0.318428         8.6649 
 164   0.0000       0.325240         8.8502 
 165   0.0000       0.329987         8.9794 
 166   0.0000       0.332149         9.0382 
 167   0.0000       0.335281         9.1235 
 168   0.0000       0.338595         9.2136 
 169   0.0000       0.341435         9.2909 
 170   0.0000       0.346879         9.4390 
 171   0.0000       0.351660         9.5692 
 172   0.0000       0.354239         9.6393 
 173   0.0000       0.358455         9.7541 
 174   0.0000       0.358663         9.7597 
 175   0.0000       0.362604         9.8670 
 176   0.0000       0.366903         9.9839 
 177   0.0000       0.371949        10.1213 
 178   0.0000       0.374229        10.1833 
 179   0.0000       0.375208        10.2099 
 180   0.0000       0.378190        10.2911 
 181   0.0000       0.379309        10.3215 
 182   0.0000       0.382521        10.4089 
 183   0.0000       0.384271        10.4565 
 184   0.0000       0.389671        10.6035 
 185   0.0000       0.395419        10.7599 
 186   0.0000       0.396335        10.7848 
 187   0.0000       0.399823        10.8797 
 188   0.0000       0.400135        10.8882 
 189   0.0000       0.405180        11.0255 
 190   0.0000       0.408184        11.1072 
 191   0.0000       0.409572        11.1450 
 192   0.0000       0.413801        11.2601 
 193   0.0000       0.418028        11.3751 
 194   0.0000       0.423822        11.5328 
 195   0.0000       0.432600        11.7716 
 196   0.0000       0.434877        11.8336 
 197   0.0000       0.437172        11.8960 
 198   0.0000       0.438948        11.9444 
 199   0.0000       0.445875        12.1329 
 200   0.0000       0.448445        12.2028 
 201   0.0000       0.453043        12.3279 
 202   0.0000       0.454879        12.3779 
 203   0.0000       0.457587        12.4516 
 204   0.0000       0.460151        12.5214 
 205   0.0000       0.463750        12.6193 
 206   0.0000       0.465978        12.6799 
 207   0.0000       0.471360        12.8263 
 208   0.0000       0.475042        12.9265 
 209   0.0000       0.479413        13.0455 
 210   0.0000       0.483290        13.1510 
 211   0.0000       0.486924        13.2499 
 212   0.0000       0.492018        13.3885 
 213   0.0000       0.496499        13.5104 
 214   0.0000       0.497976        13.5506 
 215   0.0000       0.500267        13.6130 
 216   0.0000       0.504550        13.7295 
 217   0.0000       0.507381        13.8065 
 218   0.0000       0.509082        13.8528 
 219   0.0000       0.512253        13.9391 
 220   0.0000       0.515640        14.0313 
 221   0.0000       0.518953        14.1214 
 222   0.0000       0.522039        14.2054 
 223   0.0000       0.522870        14.2280 
 224   0.0000       0.526194        14.3185 
 225   0.0000       0.529499        14.4084 
 226   0.0000       0.534438        14.5428 
 227   0.0000       0.535510        14.5720 
 228   0.0000       0.539866        14.6905 
 229   0.0000       0.543016        14.7762 
 230   0.0000       0.544699        14.8220 
 231   0.0000       0.548971        14.9382 
 232   0.0000       0.552830        15.0433 
 233   0.0000       0.556699        15.1485 
 234   0.0000       0.561424        15.2771 
 235   0.0000       0.565821        15.3968 
 236   0.0000       0.570451        15.5228 
 237   0.0000       0.572860        15.5883 
 238   0.0000       0.574857        15.6427 
 239   0.0000       0.578831        15.7508 
 240   0.0000       0.582888        15.8612 
 241   0.0000       0.584549        15.9064 
 242   0.0000       0.586629        15.9630 
 243   0.0000       0.593627        16.1534 
 244   0.0000       0.598843        16.2954 
 245   0.0000       0.600361        16.3366 
 246   0.0000       0.604508        16.4495 
 247   0.0000       0.610968        16.6253 
 248   0.0000       0.612461        16.6659 
 249   0.0000       0.613487        16.6938 
 250   0.0000       0.616371        16.7723 
 251   0.0000       0.624657        16.9978 
 252   0.0000       0.626988        17.0612 
 253   0.0000       0.631373        17.1805 
 254   0.0000       0.636784        17.3278 
 255   0.0000       0.638878        17.3848 
 256   0.0000       0.641844        17.4655 
 257   0.0000       0.649660        17.6782 
 258   0.0000       0.652140        17.7456 
 259   0.0000       0.655733        17.8434 
 260   0.0000       0.658842        17.9280 
 261   0.0000       0.659801        17.9541 
 262   0.0000       0.664320        18.0771 
 263   0.0000       0.668791        18.1987 
 264   0.0000       0.673229        18.3195 
 265   0.0000       0.676202        18.4004 
 266   0.0000       0.679678        18.4950 
 267   0.0000       0.686256        18.6740 
 268   0.0000       0.689714        18.7681 
 269   0.0000       0.693818        18.8797 
 270   0.0000       0.698864        19.0171 
 271   0.0000       0.703487        19.1428 
 272   0.0000       0.705454        19.1964 
 273   0.0000       0.708374        19.2758 
 274   0.0000       0.715674        19.4745 
 275   0.0000       0.720721        19.6118 
 276   0.0000       0.725181        19.7332 
 277   0.0000       0.728346        19.8193 
 278   0.0000       0.733011        19.9462 
 279   0.0000       0.733998        19.9731 
 280   0.0000       0.742871        20.2146 
 281   0.0000       0.748883        20.3782 
 282   0.0000       0.755545        20.5594 
 283   0.0000       0.759897        20.6779 
 284   0.0000       0.767279        20.8787 
 285   0.0000       0.770529        20.9672 
 286   0.0000       0.776210        21.1217 
 287   0.0000       0.776553        21.1311 
 288   0.0000       0.786395        21.3989 
 289   0.0000       0.803650        21.8684 
 290   0.0000       0.805782        21.9264 
 291   0.0000       0.813498        22.1364 
 292   0.0000       0.819006        22.2863 
 293   0.0000       0.824749        22.4426 
 294   0.0000       0.831246        22.6194 
 295   0.0000       0.832080        22.6420 
 296   0.0000       0.839718        22.8499 
 297   0.0000       0.843027        22.9399 
 298   0.0000       0.846021        23.0214 
 299   0.0000       0.854569        23.2540 
 300   0.0000       0.857685        23.3388 
 301   0.0000       0.861305        23.4373 
 302   0.0000       0.869521        23.6609 
 303   0.0000       0.873912        23.7804 
 304   0.0000       0.880203        23.9516 
 305   0.0000       0.882579        24.0162 
 306   0.0000       0.883982        24.0544 
 307   0.0000       0.889343        24.2003 
 308   0.0000       0.892373        24.2827 
 309   0.0000       0.904225        24.6052 
 310   0.0000       0.907794        24.7023 
 311   0.0000       0.908847        24.7310 
 312   0.0000       0.911378        24.7999 
 313   0.0000       0.915299        24.9065 
 314   0.0000       0.921261        25.0688 
 315   0.0000       0.921763        25.0824 
 316   0.0000       0.926215        25.2036 
 317   0.0000       0.929862        25.3028 
 318   0.0000       0.936912        25.4947 
 319   0.0000       0.939541        25.5662 
 320   0.0000       0.941978        25.6325 
 321   0.0000       0.948044        25.7976 
 322   0.0000       0.949372        25.8337 
 323   0.0000       0.953815        25.9546 
 324   0.0000       0.955043        25.9881 
 325   0.0000       0.957549        26.0562 
 326   0.0000       0.964466        26.2444 
 327   0.0000       0.967946        26.3391 
 328   0.0000       0.968616        26.3574 
 329   0.0000       0.970855        26.4183 
 330   0.0000       0.971428        26.4339 
 331   0.0000       0.979162        26.6444 
 332   0.0000       0.981234        26.7007 
 333   0.0000       0.987283        26.8653 
 334   0.0000       0.990380        26.9496 
 335   0.0000       0.996287        27.1103 
 336   0.0000       1.001241        27.2452 
 337   0.0000       1.005921        27.3725 
 338   0.0000       1.007128        27.4054 
 339   0.0000       1.009849        27.4794 
 340   0.0000       1.011972        27.5372 
 341   0.0000       1.017722        27.6936 
 342   0.0000       1.022552        27.8250 
 343   0.0000       1.025421        27.9031 
 344   0.0000       1.030332        28.0367 
 345   0.0000       1.033983        28.1361 
 346   0.0000       1.035318        28.1724 
 347   0.0000       1.037511        28.2321 
 348   0.0000       1.044841        28.4316 
 349   0.0000       1.048494        28.5310 
 350   0.0000       1.049512        28.5587 
 351   0.0000       1.050134        28.5756 
 352   0.0000       1.056511        28.7491 
 353   0.0000       1.057114        28.7655 
 354   0.0000       1.063730        28.9456 
 355   0.0000       1.066491        29.0207 
 356   0.0000       1.071545        29.1582 
 357   0.0000       1.075322        29.2610 
 358   0.0000       1.077778        29.3278 
 359   0.0000       1.079570        29.3766 
 360   0.0000       1.087368        29.5888 
 361   0.0000       1.088623        29.6229 
 362   0.0000       1.095966        29.8227 
 363   0.0000       1.100104        29.9354 
 364   0.0000       1.102680        30.0055 
 365   0.0000       1.107770        30.1439 
 366   0.0000       1.113109        30.2892 
 367   0.0000       1.120357        30.4865 
 368   0.0000       1.121158        30.5083 
 369   0.0000       1.125038        30.6138 
 370   0.0000       1.130521        30.7630 
 371   0.0000       1.135947        30.9107 
 372   0.0000       1.137720        30.9589 
 373   0.0000       1.141680        31.0667 
 374   0.0000       1.144484        31.1430 
 375   0.0000       1.148460        31.2512 
 376   0.0000       1.157283        31.4913 
 377   0.0000       1.162652        31.6374 
 378   0.0000       1.165646        31.7188 
 379   0.0000       1.170799        31.8591 
 380   0.0000       1.173038        31.9200 
 381   0.0000       1.173516        31.9330 
 382   0.0000       1.182280        32.1715 
 383   0.0000       1.182887        32.1880 
 384   0.0000       1.188061        32.3288 
 385   0.0000       1.194862        32.5139 
 386   0.0000       1.199618        32.6433 
 387   0.0000       1.204403        32.7735 
 388   0.0000       1.207907        32.8688 
 389   0.0000       1.212511        32.9941 
 390   0.0000       1.215929        33.0871 
 391   0.0000       1.224924        33.3319 
 392   0.0000       1.230444        33.4821 
 393   0.0000       1.233742        33.5718 
 394   0.0000       1.238415        33.6990 
 395   0.0000       1.247956        33.9586 
 396   0.0000       1.249830        34.0096 
 397   0.0000       1.254664        34.1412 
 398   0.0000       1.257551        34.2197 
 399   0.0000       1.263308        34.3763 
 400   0.0000       1.268182        34.5090 
 401   0.0000       1.269361        34.5411 
 402   0.0000       1.275133        34.6981 
 403   0.0000       1.277112        34.7520 
 404   0.0000       1.282236        34.8914 
 405   0.0000       1.289539        35.0902 
 406   0.0000       1.293347        35.1938 
 407   0.0000       1.298481        35.3335 
 408   0.0000       1.302152        35.4334 
 409   0.0000       1.306208        35.5437 
 410   0.0000       1.308617        35.6093 
 411   0.0000       1.311613        35.6908 
 412   0.0000       1.314785        35.7771 
 413   0.0000       1.325086        36.0574 
 414   0.0000       1.328953        36.1627 
 415   0.0000       1.338626        36.4259 
 416   0.0000       1.342629        36.5348 
 417   0.0000       1.343721        36.5645 
 418   0.0000       1.347726        36.6735 
 419   0.0000       1.356472        36.9115 
 420   0.0000       1.364411        37.1275 
 421   0.0000       1.369263        37.2595 
 422   0.0000       1.373091        37.3637 
 423   0.0000       1.379476        37.5375 
 424   0.0000       1.381585        37.5948 
 425   0.0000       1.386658        37.7329 
 426   0.0000       1.390571        37.8394 
 427   0.0000       1.394943        37.9583 
 428   0.0000       1.408240        38.3202 
 429   0.0000       1.410904        38.3926 
 430   0.0000       1.418427        38.5974 
 431   0.0000       1.420729        38.6600 
 432   0.0000       1.430683        38.9309 
 433   0.0000       1.435455        39.0607 
 434   0.0000       1.438537        39.1446 
 435   0.0000       1.444886        39.3174 
 436   0.0000       1.452177        39.5158 
 437   0.0000       1.457127        39.6504 
 438   0.0000       1.462367        39.7930 
 439   0.0000       1.463460        39.8228 
 440   0.0000       1.464385        39.8479 
 441   0.0000       1.469085        39.9758 
 442   0.0000       1.475170        40.1414 
 443   0.0000       1.480293        40.2808 
 444   0.0000       1.484156        40.3859 
 445   0.0000       1.488974        40.5170 
 446   0.0000       1.494604        40.6703 
 447   0.0000       1.498181        40.7676 
 448   0.0000       1.504734        40.9459 
 449   0.0000       1.509991        41.0889 
 450   0.0000       1.521220        41.3945 
 451   0.0000       1.525761        41.5181 
 452   0.0000       1.531285        41.6684 
 453   0.0000       1.535802        41.7913 
 454   0.0000       1.538767        41.8720 
 455   0.0000       1.544249        42.0212 
 456   0.0000       1.548468        42.1360 
 457   0.0000       1.554014        42.2869 
 458   0.0000       1.557327        42.3770 
 459   0.0000       1.566242        42.6196 
 460   0.0000       1.571995        42.7762 
 461   0.0000       1.576528        42.8995 
 462   0.0000       1.580222        43.0000 
 463   0.0000       1.582388        43.0590 
 464   0.0000       1.594905        43.3996 
 465   0.0000       1.601441        43.5774 
 466   0.0000       1.607245        43.7354 
 467   0.0000       1.612965        43.8910 
 468   0.0000       1.615716        43.9659 
 469   0.0000       1.626160        44.2501 
 470   0.0000       1.630355        44.3642 
 471   0.0000       1.635559        44.5058 
 472   0.0000       1.637771        44.5660 
 473   0.0000       1.647677        44.8356 
 474   0.0000       1.651339        44.9352 
 475   0.0000       1.654486        45.0209 
 476   0.0000       1.659935        45.1691 
 477   0.0000       1.661203        45.2036 
 478   0.0000       1.672450        45.5097 
 479   0.0000       1.678515        45.6747 
 480   0.0000       1.679228        45.6941 
 481   0.0000       1.685929        45.8765 
 482   0.0000       1.700433        46.2711 
 483   0.0000       1.702218        46.3197 
 484   0.0000       1.705315        46.4040 
 485   0.0000       1.709940        46.5298 
 486   0.0000       1.712213        46.5917 
 487   0.0000       1.719749        46.7967 
 488   0.0000       1.728252        47.0281 
 489   0.0000       1.731011        47.1032 
 490   0.0000       1.733171        47.1620 
 491   0.0000       1.741203        47.3805 
 492   0.0000       1.747092        47.5408 
 493   0.0000       1.750610        47.6365 
 494   0.0000       1.756999        47.8104 
 495   0.0000       1.762349        47.9560 
 496   0.0000       1.766323        48.0641 
 497   0.0000       1.768441        48.1217 
 498   0.0000       1.777530        48.3690 
 499   0.0000       1.788947        48.6797 
 500   0.0000       1.790348        48.7178 
 501   0.0000       1.793707        48.8092 
 502   0.0000       1.794851        48.8404 
 503   0.0000       1.803828        49.0846 
 504   0.0000       1.808399        49.2090 
 505   0.0000       1.814881        49.3854 
 506   0.0000       1.815028        49.3894 
 507   0.0000       1.821643        49.5694 
 508   0.0000       1.825405        49.6718 
 509   0.0000       1.828845        49.7654 
 510   0.0000       1.837166        49.9918 
 511   0.0000       1.839331        50.0507 
 512   0.0000       1.845062        50.2067 
 513   0.0000       1.848781        50.3079 
 514   0.0000       1.856698        50.5233 
 515   0.0000       1.860570        50.6287 
 516   0.0000       1.865392        50.7599 
 517   0.0000       1.867974        50.8302 
 518   0.0000       1.874655        51.0120 
 519   0.0000       1.883662        51.2570 
 520   0.0000       1.886332        51.3297 
 521   0.0000       1.892707        51.5032 
 522   0.0000       1.901034        51.7298 
 523   0.0000       1.908327        51.9282 
 524   0.0000       1.910968        52.0001 
 525   0.0000       1.915749        52.1302 
 526   0.0000       1.921324        52.2819 
 527   0.0000       1.927666        52.4545 
 528   0.0000       1.931364        52.5551 
 529   0.0000       1.937045        52.7097 
 530   0.0000       1.938904        52.7603 
 531   0.0000       1.946420        52.9648 
 532   0.0000       1.955442        53.2103 
 533   0.0000       1.962976        53.4153 
 534   0.0000       1.963456        53.4284 
 535   0.0000       1.970180        53.6113 
 536   0.0000       1.975042        53.7436 
 537   0.0000       1.980934        53.9039 
 538   0.0000       1.989856        54.1467 
 539   0.0000       1.995965        54.3130 
 540   0.0000       1.998655        54.3862 
 541   0.0000       2.005142        54.5627 
 542   0.0000       2.011792        54.7437 
 543   0.0000       2.015364        54.8409 
 544   0.0000       2.021259        55.0013 
 545   0.0000       2.032802        55.3154 
 546   0.0000       2.045169        55.6519 
 547   0.0000       2.046774        55.6956 
 548   0.0000       2.051070        55.8125 
 549   0.0000       2.056630        55.9637 
 550   0.0000       2.071248        56.3615 
 551   0.0000       2.075403        56.4746 
 552   0.0000       2.077937        56.5435 
 553   0.0000       2.080056        56.6012 
 554   0.0000       2.085140        56.7395 
 555   0.0000       2.099616        57.1335 
 556   0.0000       2.106898        57.3316 
 557   0.0000       2.111051        57.4446 
 558   0.0000       2.112305        57.4787 
 559   0.0000       2.123779        57.7910 
 560   0.0000       2.128291        57.9137 
 561   0.0000       2.135158        58.1006 
 562   0.0000       2.142657        58.3047 
 563   0.0000       2.150958        58.5306 
 564   0.0000       2.158520        58.7363 
 565   0.0000       2.171022        59.0765 
 566   0.0000       2.176770        59.2329 
 567   0.0000       2.183783        59.4238 
 568   0.0000       2.190278        59.6005 
 569   0.0000       2.194153        59.7060 
 570   0.0000       2.200546        59.8799 
 571   0.0000       2.208528        60.0971 
 572   0.0000       2.217638        60.3450 
 573   0.0000       2.224615        60.5348 
 574   0.0000       2.233364        60.7729 
 575   0.0000       2.234161        60.7946 
 576   0.0000       2.240389        60.9641 
 577   0.0000       2.246095        61.1194 
 578   0.0000       2.255392        61.3723 
 579   0.0000       2.262508        61.5660 
 580   0.0000       2.269699        61.7616 
 581   0.0000       2.278044        61.9887 
 582   0.0000       2.280839        62.0648 
 583   0.0000       2.293624        62.4127 
 584   0.0000       2.299098        62.5616 
 585   0.0000       2.303450        62.6801 
 586   0.0000       2.316785        63.0429 
 587   0.0000       2.320492        63.1438 
 588   0.0000       2.333881        63.5081 
 589   0.0000       2.344841        63.8064 
 590   0.0000       2.351797        63.9956 
 591   0.0000       2.357027        64.1380 
 592   0.0000       2.364754        64.3482 
 593   0.0000       2.371269        64.5255 
 594   0.0000       2.379806        64.7578 
 595   0.0000       2.390955        65.0612 
 596   0.0000       2.393116        65.1200 
 597   0.0000       2.396111        65.2015 
 598   0.0000       2.404377        65.4264 
 599   0.0000       2.408248        65.5318 
 600   0.0000       2.425632        66.0048 
 601   0.0000       2.431945        66.1766 
 602   0.0000       2.440616        66.4125 
 603   0.0000       2.448391        66.6241 
 604   0.0000       2.456408        66.8422 
 605   0.0000       2.464664        67.0669 
 606   0.0000       2.485261        67.6274 
 607   0.0000       2.491034        67.7845 
 608   0.0000       2.496723        67.9393 
 609   0.0000       2.505491        68.1779 
 610   0.0000       2.516949        68.4897 
 611   0.0000       2.519957        68.5715 
 612   0.0000       2.539721        69.1093 
 613   0.0000       2.558570        69.6222 
 614   0.0000       2.560430        69.6728 
 615   0.0000       2.565121        69.8005 
 616   0.0000       2.580164        70.2098 
 617   0.0000       2.599875        70.7462 
 618   0.0000       2.629523        71.5530 
 619   0.0000       2.637848        71.7795 
 620   0.0000       2.646226        72.0075 
 621   0.0000       2.654894        72.2433 
 622   0.0000       2.658674        72.3462 
 623   0.0000       2.673366        72.7460 
 624   0.0000       2.678431        72.8838 
 625   0.0000       2.684399        73.0462 
 626   0.0000       2.699357        73.4533 
 627   0.0000       2.704977        73.6062 
 628   0.0000       2.706504        73.6477 
 629   0.0000       2.712026        73.7980 
 630   0.0000       2.717888        73.9575 
 631   0.0000       2.732835        74.3642 
 632   0.0000       2.748337        74.7860 
 633   0.0000       2.751692        74.8774 
 634   0.0000       2.763782        75.2063 
 635   0.0000       2.769412        75.3595 
 636   0.0000       2.779746        75.6407 
 637   0.0000       2.787248        75.8449 
 638   0.0000       2.795221        76.0618 
 639   0.0000       2.804926        76.3259 
 640   0.0000       2.819835        76.7316 
 641   0.0000       2.838603        77.2423 
 642   0.0000       2.849774        77.5463 
 643   0.0000       2.860716        77.8440 
 644   0.0000       2.874523        78.2198 
 645   0.0000       2.890372        78.6510 
 646   0.0000       2.893441        78.7345 
 647   0.0000       2.897820        78.8537 
 648   0.0000       2.910139        79.1889 
 649   0.0000       2.928686        79.6936 
 650   0.0000       2.939279        79.9819 
 651   0.0000       2.956824        80.4593 
 652   0.0000       2.978842        81.0584 
 653   0.0000       2.985728        81.2458 
 654   0.0000       2.998392        81.5904 
 655   0.0000       3.006316        81.8060 
 656   0.0000       3.032529        82.5193 
 657   0.0000       3.049847        82.9906 
 658   0.0000       3.071409        83.5773 
 659   0.0000       3.078872        83.7804 
 660   0.0000       3.087169        84.0062 
 661   0.0000       3.093784        84.1861 
 662   0.0000       3.115824        84.7859 
 663   0.0000       3.126529        85.0772 
 664   0.0000       3.141971        85.4974 
 665   0.0000       3.151994        85.7701 
 666   0.0000       3.169018        86.2334 
 667   0.0000       3.184025        86.6417 
 668   0.0000       3.193575        86.9016 
 669   0.0000       3.199151        87.0533 
 670   0.0000       3.213443        87.4422 
 671   0.0000       3.216231        87.5181 
 672   0.0000       3.232162        87.9516 
 673   0.0000       3.246397        88.3389 
 674   0.0000       3.251109        88.4672 
 675   0.0000       3.255854        88.5963 
 676   0.0000       3.266963        88.8986 
 677   0.0000       3.270018        88.9817 
 678   0.0000       3.277014        89.1721 
 679   0.0000       3.295118        89.6647 
 680   0.0000       3.298799        89.7649 
 681   0.0000       3.313016        90.1517 
 682   0.0000       3.327394        90.5430 
 683   0.0000       3.333921        90.7206 
 684   0.0000       3.338457        90.8440 
 685   0.0000       3.355383        91.3046 
 686   0.0000       3.360719        91.4498 
 687   0.0000       3.370210        91.7081 
 688   0.0000       3.387954        92.1909 
 689   0.0000       3.397249        92.4439 
 690   0.0000       3.412708        92.8645 
 691   0.0000       3.414992        92.9267 
 692   0.0000       3.419895        93.0601 
 693   0.0000       3.438625        93.5697 
 694   0.0000       3.442468        93.6743 
 695   0.0000       3.454512        94.0021 
 696   0.0000       3.458007        94.0971 
 697   0.0000       3.461249        94.1854 
 698   0.0000       3.475107        94.5625 
 699   0.0000       3.480264        94.7028 
 700   0.0000       3.491488        95.0082 
 701   0.0000       3.497415        95.1695 
 702   0.0000       3.511039        95.5402 
 703   0.0000       3.517217        95.7084 
 704   0.0000       3.520375        95.7943 
 705   0.0000       3.525055        95.9216 
 706   0.0000       3.534405        96.1760 
 707   0.0000       3.542679        96.4012 
 708   0.0000       3.548680        96.5645 
 709   0.0000       3.558341        96.8274 
 710   0.0000       3.566970        97.0622 
 711   0.0000       3.580482        97.4299 
 712   0.0000       3.587986        97.6341 
 713   0.0000       3.591659        97.7340 
 714   0.0000       3.608550        98.1936 
 715   0.0000       3.610733        98.2530 
 716   0.0000       3.623841        98.6097 
 717   0.0000       3.634136        98.8899 
 718   0.0000       3.647221        99.2459 
 719   0.0000       3.650434        99.3334 
 720   0.0000       3.665632        99.7469 
 721   0.0000       3.668448        99.8235 
 722   0.0000       3.674420        99.9860 
 723   0.0000       3.678124       100.0868 
 724   0.0000       3.690725       100.4297 
 725   0.0000       3.697774       100.6215 
 726   0.0000       3.703971       100.7902 
 727   0.0000       3.708175       100.9046 
 728   0.0000       3.711918       101.0064 
 729   0.0000       3.713458       101.0483 
 730   0.0000       3.717954       101.1707 
 731   0.0000       3.724544       101.3500 
 732   0.0000       3.737329       101.6979 
 733   0.0000       3.739871       101.7671 
 734   0.0000       3.763672       102.4147 
 735   0.0000       3.764540       102.4383 
 736   0.0000       3.767644       102.5228 
 737   0.0000       3.772351       102.6509 
 738   0.0000       3.778300       102.8128 
 739   0.0000       3.780277       102.8666 
 740   0.0000       3.796851       103.3176 
 741   0.0000       3.802028       103.4584 
 742   0.0000       3.806001       103.5666 
 743   0.0000       3.817997       103.8930 
 744   0.0000       3.828076       104.1672 
 745   0.0000       3.842576       104.5618 
 746   0.0000       3.845609       104.6443 
 747   0.0000       3.853381       104.8558 
 748   0.0000       3.861461       105.0757 
 749   0.0000       3.868242       105.2602 
 750   0.0000       3.878736       105.5458 
 751   0.0000       3.879657       105.5708 
 752   0.0000       3.888782       105.8191 
 753   0.0000       3.895637       106.0057 
 754   0.0000       3.905680       106.2790 
 755   0.0000       3.909305       106.3776 
 756   0.0000       3.924805       106.7994 
 757   0.0000       3.932635       107.0125 
 758   0.0000       3.934329       107.0585 
 759   0.0000       3.941271       107.2474 
 760   0.0000       3.944053       107.3231 
 761   0.0000       3.951420       107.5236 
 762   0.0000       3.955045       107.6222 
 763   0.0000       3.959079       107.7320 
 764   0.0000       3.967998       107.9747 
 765   0.0000       3.974316       108.1466 
 766   0.0000       3.988120       108.5223 
 767   0.0000       3.989531       108.5607 
 768   0.0000       3.995791       108.7310 
 769   0.0000       4.005241       108.9881 
 770   0.0000       4.012203       109.1776 
 771   0.0000       4.019854       109.3858 
 772   0.0000       4.027418       109.5916 
 773   0.0000       4.034745       109.7910 
 774   0.0000       4.038548       109.8945 
 775   0.0000       4.050195       110.2114 
 776   0.0000       4.056494       110.3828 
 777   0.0000       4.067036       110.6697 
 778   0.0000       4.076311       110.9221 
 779   0.0000       4.087814       111.2351 
 780   0.0000       4.090310       111.3030 
 781   0.0000       4.095093       111.4331 
 782   0.0000       4.098681       111.5308 
 783   0.0000       4.112134       111.8969 
 784   0.0000       4.127795       112.3230 
 785   0.0000       4.133170       112.4693 
 786   0.0000       4.135397       112.5299 
 787   0.0000       4.143930       112.7621 
 788   0.0000       4.152096       112.9843 
 789   0.0000       4.159171       113.1768 
 790   0.0000       4.174947       113.6061 
 791   0.0000       4.179717       113.7359 
 792   0.0000       4.182988       113.8249 
 793   0.0000       4.191395       114.0536 
 794   0.0000       4.193755       114.1179 
 795   0.0000       4.205277       114.4314 
 796   0.0000       4.210447       114.5721 
 797   0.0000       4.217409       114.7615 
 798   0.0000       4.222069       114.8884 
 799   0.0000       4.223921       114.9387 
 800   0.0000       4.243904       115.4825 
 801   0.0000       4.255989       115.8113 
 802   0.0000       4.258234       115.8725 
 803   0.0000       4.268253       116.1451 
 804   0.0000       4.282441       116.5311 
 805   0.0000       4.285309       116.6092 
 806   0.0000       4.295317       116.8815 
 807   0.0000       4.298895       116.9789 
 808   0.0000       4.314616       117.4067 
 809   0.0000       4.322360       117.6174 
 810   0.0000       4.331656       117.8704 
 811   0.0000       4.354680       118.4969 
 812   0.0000       4.358973       118.6137 
 813   0.0000       4.366373       118.8150 
 814   0.0000       4.375059       119.0514 
 815   0.0000       4.385595       119.3381 
 816   0.0000       4.392262       119.5195 
 817   0.0000       4.409255       119.9819 
 818   0.0000       4.421568       120.3170 
 819   0.0000       4.426837       120.4604 
 820   0.0000       4.436563       120.7250 
 821   0.0000       4.442448       120.8852 
 822   0.0000       4.456443       121.2660 
 823   0.0000       4.459569       121.3510 
 824   0.0000       4.476515       121.8122 
 825   0.0000       4.486542       122.0850 
 826   0.0000       4.496163       122.3468 
 827   0.0000       4.498239       122.4033 
 828   0.0000       4.513618       122.8218 
 829   0.0000       4.521067       123.0245 
 830   0.0000       4.529632       123.2576 
 831   0.0000       4.534560       123.3916 
 832   0.0000       4.539638       123.5298 
 833   0.0000       4.544494       123.6620 
 834   0.0000       4.561335       124.1202 
 835   0.0000       4.565697       124.2389 
 836   0.0000       4.580829       124.6507 
 837   0.0000       4.593663       124.9999 
 838   0.0000       4.606521       125.3498 
 839   0.0000       4.616689       125.6265 
 840   0.0000       4.629917       125.9865 
 841   0.0000       4.640611       126.2775 
 842   0.0000       4.651713       126.5795 
 843   0.0000       4.660055       126.8065 
 844   0.0000       4.669325       127.0588 
 845   0.0000       4.677243       127.2742 
 846   0.0000       4.688128       127.5704 
 847   0.0000       4.696410       127.7958 
 848   0.0000       4.715008       128.3019 
 849   0.0000       4.718449       128.3955 
 850   0.0000       4.733117       128.7947 
 851   0.0000       4.747577       129.1881 
 852   0.0000       4.754329       129.3719 
 853   0.0000       4.776649       129.9792 
 854   0.0000       4.790473       130.3554 
 855   0.0000       4.803323       130.7051 
 856   0.0000       4.808593       130.8485 
 857   0.0000       4.824288       131.2755 
 858   0.0000       4.829287       131.4116 
 859   0.0000       4.835582       131.5829 
 860   0.0000       4.847207       131.8992 
 861   0.0000       4.867279       132.4454 
 862   0.0000       4.873912       132.6259 
 863   0.0000       4.890405       133.0747 
 864   0.0000       4.896064       133.2287 
 865   0.0000       4.903394       133.4281 
 866   0.0000       4.914831       133.7393 
 867   0.0000       4.929510       134.1388 
 868   0.0000       4.941352       134.4610 
 869   0.0000       4.952318       134.7594 
 870   0.0000       4.961633       135.0129 
 871   0.0000       4.967699       135.1780 
 872   0.0000       4.983180       135.5992 
 873   0.0000       4.997632       135.9925 
 874   0.0000       5.002542       136.1261 
 875   0.0000       5.022149       136.6596 
 876   0.0000       5.024637       136.7273 
 877   0.0000       5.034190       136.9873 
 878   0.0000       5.038678       137.1094 
 879   0.0000       5.056835       137.6035 
 880   0.0000       5.072553       138.0312 
 881   0.0000       5.091775       138.5542 
 882   0.0000       5.096162       138.6736 
 883   0.0000       5.112594       139.1208 
 884   0.0000       5.126240       139.4921 
 885   0.0000       5.139903       139.8639 
 886   0.0000       5.153032       140.2211 
 887   0.0000       5.170949       140.7087 
 888   0.0000       5.173101       140.7672 
 889   0.0000       5.186529       141.1326 
 890   0.0000       5.196983       141.4171 
 891   0.0000       5.214777       141.9013 
 892   0.0000       5.227290       142.2418 
 893   0.0000       5.238379       142.5435 
 894   0.0000       5.242755       142.6626 
 895   0.0000       5.261616       143.1758 
 896   0.0000       5.265586       143.2839 
 897   0.0000       5.284062       143.7866 
 898   0.0000       5.307773       144.4319 
 899   0.0000       5.315692       144.6473 
 900   0.0000       5.324217       144.8793 
 901   0.0000       5.336999       145.2271 
 902   0.0000       5.346765       145.4929 
 903   0.0000       5.356375       145.7544 
 904   0.0000       5.370140       146.1289 
 905   0.0000       5.378560       146.3581 
 906   0.0000       5.403467       147.0358 
 907   0.0000       5.420642       147.5032 
 908   0.0000       5.424353       147.6041 
 909   0.0000       5.431777       147.8062 
 910   0.0000       5.452903       148.3810 
 911   0.0000       5.457825       148.5150 
 912   0.0000       5.464450       148.6952 
 913   0.0000       5.491005       149.4178 
 914   0.0000       5.495311       149.5350 
 915   0.0000       5.503193       149.7495 
 916   0.0000       5.527758       150.4179 
 917   0.0000       5.531011       150.5065 
 918   0.0000       5.549158       151.0003 
 919   0.0000       5.555028       151.1600 
 920   0.0000       5.566732       151.4785 
 921   0.0000       5.581002       151.8668 
 922   0.0000       5.601395       152.4217 
 923   0.0000       5.615476       152.8049 
 924   0.0000       5.619981       152.9275 
 925   0.0000       5.624484       153.0500 
 926   0.0000       5.636219       153.3693 
 927   0.0000       5.645873       153.6320 
 928   0.0000       5.656424       153.9191 
 929   0.0000       5.671495       154.3292 
 930   0.0000       5.683431       154.6540 
 931   0.0000       5.705249       155.2477 
 932   0.0000       5.706635       155.2854 
 933   0.0000       5.717161       155.5719 
 934   0.0000       5.739958       156.1922 
 935   0.0000       5.744234       156.3085 
 936   0.0000       5.750263       156.4726 
 937   0.0000       5.767098       156.9307 
 938   0.0000       5.788115       157.5026 
 939   0.0000       5.795059       157.6916 
 940   0.0000       5.821028       158.3982 
 941   0.0000       5.865612       159.6114 
 942   0.0000       5.876024       159.8948 
 943   0.0000       5.898214       160.4986 
 944   0.0000       5.945482       161.7848 
 945   0.0000       5.966016       162.3436 
 946   0.0000       6.043091       164.4409 
 947   0.0000       6.076523       165.3506 
 948   0.0000       6.086260       165.6156 
 949   0.0000       6.106430       166.1644 
 950   0.0000       6.141147       167.1091 
 951   0.0000       6.160302       167.6303 
 952   0.0000       6.162556       167.6917 
 953   0.0000       6.178813       168.1341 
 954   0.0000       6.197655       168.6468 
 955   0.0000       6.219942       169.2532 
 956   0.0000       6.230397       169.5377 
 957   0.0000       6.241988       169.8531 
 958   0.0000       6.256354       170.2440 
 959   0.0000       6.275688       170.7702 
 960   0.0000       6.288743       171.1254 
 961   0.0000       6.299121       171.4078 
 962   0.0000       6.321694       172.0220 
 963   0.0000       6.333984       172.3565 
 964   0.0000       6.350028       172.7931 
 965   0.0000       6.359130       173.0407 
 966   0.0000       6.392779       173.9564 
 967   0.0000       6.414619       174.5507 
 968   0.0000       6.465464       175.9342 
 969   0.0000       6.543090       178.0465 
 970   0.0000       6.605738       179.7513 
 971   0.0000       6.636760       180.5954 
 972   0.0000       6.788747       184.7312 
 973   0.0000       6.822949       185.6619 
 974   0.0000       6.837429       186.0559 
 975   0.0000       6.868921       186.9128 
 976   0.0000       6.900005       187.7587 
 977   0.0000       6.920686       188.3214 
 978   0.0000       6.938105       188.7954 
 979   0.0000       6.965006       189.5275 
 980   0.0000       6.990201       190.2130 
 981   0.0000       7.003281       190.5690 
 982   0.0000       7.037583       191.5024 
 983   0.0000       7.053395       191.9326 
 984   0.0000       7.076209       192.5534 
 985   0.0000       7.088057       192.8758 
 986   0.0000       7.234979       196.8738 
 987   0.0000       7.260247       197.5614 
 988   0.0000       7.333476       199.5540 
 989   0.0000       7.351648       200.0485 
 990   0.0000       7.503276       204.1745 
 991   0.0000       7.577979       206.2073 
 992   0.0000       7.595994       206.6975 
 993   0.0000       7.676365       208.8845 
 994   0.0000       7.736526       210.5216 
 995   0.0000       7.820910       212.8178 
 996   0.0000       7.897516       214.9023 
 997   0.0000       7.978626       217.1095 
 998   0.0000       8.224682       223.8050 
 999   0.0000       9.395296       255.6590 
 1000   0.0000       9.400750       255.8074 
 1001   0.0000       9.430130       256.6069 
 1002   0.0000       9.445703       257.0306 
 1003   0.0000       9.450636       257.1649 
 1004   0.0000       9.475650       257.8455 
 1005   0.0000       9.623659       261.8731 
 1006   0.0000      10.078120       274.2396 
 1007   0.0000      10.082413       274.3564 
 1008   0.0000      10.094976       274.6983 
 1009   0.0000      10.192832       277.3611 
 1010   0.0000      10.205633       277.7094 
 1011   0.0000      10.234512       278.4952 
 1012   0.0000      10.316313       280.7211 
 1013   0.0000      10.362625       281.9814 
 1014   0.0000      10.406936       283.1871 
 1015   0.0000      10.694273       291.0060 
 1016   0.0000      16.440224       447.3612 
 1017   0.0000      17.449463       474.8240 
 1018   0.0000      18.055664       491.3196 
 1019   0.0000      18.307533       498.1733 
 1020   0.0000      18.528239       504.1790 
 1021   0.0000      18.642947       507.3004 
 1022   0.0000      20.422413       555.7221 
 1023   0.0000      21.352392       581.0281 
 1024   0.0000      21.647162       589.0492 

                 SPIN DOWN ORBITALS
  NO   OCC          E(Eh)            E(eV) 
   0   1.0000    -261.575321     -7117.8264 
   1   1.0000    -104.794059     -2851.5913 
   2   1.0000    -104.791151     -2851.5122 
   3   1.0000    -104.789360     -2851.4634 
   4   1.0000     -32.084587      -873.0660 
   5   1.0000     -27.562542      -750.0149 
   6   1.0000     -27.562405      -750.0112 
   7   1.0000     -27.562332      -750.0092 
   8   1.0000     -20.622574      -561.1688 
   9   1.0000     -11.422425      -310.8200 
  10   1.0000     -11.279441      -306.9292 
  11   1.0000     -11.273543      -306.7687 
  12   1.0000     -11.259524      -306.3872 
  13   1.0000     -11.239452      -305.8410 
  14   1.0000     -11.238328      -305.8104 
  15   1.0000     -11.235590      -305.7359 
  16   1.0000     -11.226052      -305.4764 
  17   1.0000     -10.520689      -286.2825 
  18   1.0000     -10.517751      -286.2026 
  19   1.0000     -10.515914      -286.1526 
  20   1.0000      -7.986620      -217.3270 
  21   1.0000      -7.985847      -217.3059 
  22   1.0000      -7.985808      -217.3049 
  23   1.0000      -7.983610      -217.2451 
  24   1.0000      -7.982953      -217.2272 
  25   1.0000      -7.982857      -217.2246 
  26   1.0000      -7.981912      -217.1989 
  27   1.0000      -7.980986      -217.1737 
  28   1.0000      -7.980907      -217.1715 
  29   1.0000      -4.159283      -113.1798 
  30   1.0000      -2.680827       -72.9490 
  31   1.0000      -2.680758       -72.9471 
  32   1.0000      -2.680358       -72.9363 
  33   1.0000      -1.462523       -39.7973 
  34   1.0000      -1.119928       -30.4748 
  35   1.0000      -1.101510       -29.9736 
  36   1.0000      -1.053362       -28.6635 
  37   1.0000      -1.040742       -28.3200 
  38   1.0000      -1.037835       -28.2409 
  39   1.0000      -1.019926       -27.7536 
  40   1.0000      -1.008911       -27.4539 
  41   1.0000      -0.954199       -25.9651 
  42   1.0000      -0.892236       -24.2790 
  43   1.0000      -0.828991       -22.5580 
  44   1.0000      -0.724635       -19.7183 
  45   1.0000      -0.717446       -19.5227 
  46   1.0000      -0.705328       -19.1930 
  47   1.0000      -0.685304       -18.6481 
  48   1.0000      -0.650599       -17.7037 
  49   1.0000      -0.621412       -16.9095 
  50   1.0000      -0.617083       -16.7917 
  51   1.0000      -0.603337       -16.4176 
  52   1.0000      -0.599933       -16.3250 
  53   1.0000      -0.586289       -15.9537 
  54   1.0000      -0.578776       -15.7493 
  55   1.0000      -0.560032       -15.2392 
  56   1.0000      -0.548111       -14.9149 
  57   1.0000      -0.545989       -14.8571 
  58   1.0000      -0.536518       -14.5994 
  59   1.0000      -0.526644       -14.3307 
  60   1.0000      -0.522602       -14.2207 
  61   1.0000      -0.507800       -13.8179 
  62   1.0000      -0.488812       -13.3013 
  63   1.0000      -0.486941       -13.2503 
  64   1.0000      -0.484963       -13.1965 
  65   1.0000      -0.455746       -12.4015 
  66   1.0000      -0.452863       -12.3230 
  67   1.0000      -0.449754       -12.2384 
  68   1.0000      -0.433129       -11.7861 
  69   1.0000      -0.431435       -11.7399 
  70   1.0000      -0.415082       -11.2950 
  71   1.0000      -0.355147        -9.6640 
  72   0.0000       0.012793         0.3481 
  73   0.0000       0.023898         0.6503 
  74   0.0000       0.024763         0.6738 
  75   0.0000       0.030793         0.8379 
  76   0.0000       0.039466         1.0739 
  77   0.0000       0.041336         1.1248 
  78   0.0000       0.042708         1.1622 
  79   0.0000       0.042929         1.1682 
  80   0.0000       0.044088         1.1997 
  81   0.0000       0.054477         1.4824 
  82   0.0000       0.056466         1.5365 
  83   0.0000       0.061456         1.6723 
  84   0.0000       0.063017         1.7148 
  85   0.0000       0.064633         1.7588 
  86   0.0000       0.065328         1.7777 
  87   0.0000       0.071785         1.9534 
  88   0.0000       0.077119         2.0985 
  89   0.0000       0.081715         2.2236 
  90   0.0000       0.089791         2.4433 
  91   0.0000       0.091885         2.5003 
  92   0.0000       0.093889         2.5549 
  93   0.0000       0.094123         2.5612 
  94   0.0000       0.099682         2.7125 
  95   0.0000       0.102723         2.7952 
  96   0.0000       0.103836         2.8255 
  97   0.0000       0.104773         2.8510 
  98   0.0000       0.105604         2.8736 
  99   0.0000       0.107915         2.9365 
 100   0.0000       0.110907         3.0179 
 101   0.0000       0.115390         3.1399 
 102   0.0000       0.119274         3.2456 
 103   0.0000       0.122344         3.3292 
 104   0.0000       0.124054         3.3757 
 105   0.0000       0.125763         3.4222 
 106   0.0000       0.126882         3.4526 
 107   0.0000       0.129064         3.5120 
 108   0.0000       0.131811         3.5868 
 109   0.0000       0.133745         3.6394 
 110   0.0000       0.137198         3.7334 
 111   0.0000       0.138961         3.7813 
 112   0.0000       0.144416         3.9298 
 113   0.0000       0.145784         3.9670 
 114   0.0000       0.150294         4.0897 
 115   0.0000       0.152191         4.1413 
 116   0.0000       0.156328         4.2539 
 117   0.0000       0.162307         4.4166 
 118   0.0000       0.163572         4.4510 
 119   0.0000       0.166172         4.5218 
 120   0.0000       0.169837         4.6215 
 121   0.0000       0.172243         4.6870 
 122   0.0000       0.176590         4.8053 
 123   0.0000       0.180175         4.9028 
 124   0.0000       0.183904         5.0043 
 125   0.0000       0.187105         5.0914 
 126   0.0000       0.188657         5.1336 
 127   0.0000       0.192946         5.2503 
 128   0.0000       0.196719         5.3530 
 129   0.0000       0.198381         5.3982 
 130   0.0000       0.199614         5.4318 
 131   0.0000       0.202573         5.5123 
 132   0.0000       0.204044         5.5523 
 133   0.0000       0.209005         5.6873 
 134   0.0000       0.216165         5.8821 
 135   0.0000       0.217317         5.9135 
 136   0.0000       0.221021         6.0143 
 137   0.0000       0.225435         6.1344 
 138   0.0000       0.228747         6.2245 
 139   0.0000       0.233038         6.3413 
 140   0.0000       0.236791         6.4434 
 141   0.0000       0.241191         6.5631 
 142   0.0000       0.242401         6.5961 
 143   0.0000       0.247106         6.7241 
 144   0.0000       0.248583         6.7643 
 145   0.0000       0.252438         6.8692 
 146   0.0000       0.255334         6.9480 
 147   0.0000       0.258171         7.0252 
 148   0.0000       0.260017         7.0754 
 149   0.0000       0.264665         7.2019 
 150   0.0000       0.270124         7.3505 
 151   0.0000       0.273578         7.4444 
 152   0.0000       0.277507         7.5514 
 153   0.0000       0.282344         7.6830 
 154   0.0000       0.286048         7.7838 
 155   0.0000       0.289980         7.8908 
 156   0.0000       0.295230         8.0336 
 157   0.0000       0.298069         8.1109 
 158   0.0000       0.300822         8.1858 
 159   0.0000       0.307724         8.3736 
 160   0.0000       0.310901         8.4600 
 161   0.0000       0.317485         8.6392 
 162   0.0000       0.320819         8.7299 
 163   0.0000       0.321627         8.7519 
 164   0.0000       0.329273         8.9600 
 165   0.0000       0.334674         9.1070 
 166   0.0000       0.335612         9.1325 
 167   0.0000       0.338604         9.2139 
 168   0.0000       0.342290         9.3142 
 169   0.0000       0.345150         9.3920 
 170   0.0000       0.350336         9.5331 
 171   0.0000       0.353568         9.6211 
 172   0.0000       0.358717         9.7612 
 173   0.0000       0.360452         9.8084 
 174   0.0000       0.362057         9.8521 
 175   0.0000       0.363875         9.9015 
 176   0.0000       0.368842        10.0367 
 177   0.0000       0.375439        10.2162 
 178   0.0000       0.378760        10.3066 
 179   0.0000       0.380725        10.3601 
 180   0.0000       0.384010        10.4494 
 181   0.0000       0.384568        10.4646 
 182   0.0000       0.388963        10.5842 
 183   0.0000       0.392653        10.6846 
 184   0.0000       0.394583        10.7371 
 185   0.0000       0.397763        10.8237 
 186   0.0000       0.399227        10.8635 
 187   0.0000       0.401105        10.9146 
 188   0.0000       0.404672        11.0117 
 189   0.0000       0.407961        11.1012 
 190   0.0000       0.409589        11.1455 
 191   0.0000       0.414355        11.2752 
 192   0.0000       0.418025        11.3750 
 193   0.0000       0.422027        11.4839 
 194   0.0000       0.427266        11.6265 
 195   0.0000       0.434065        11.8115 
 196   0.0000       0.437494        11.9048 
 197   0.0000       0.444029        12.0826 
 198   0.0000       0.445796        12.1307 
 199   0.0000       0.449779        12.2391 
 200   0.0000       0.453276        12.3343 
 201   0.0000       0.455931        12.4065 
 202   0.0000       0.459365        12.5000 
 203   0.0000       0.461427        12.5561 
 204   0.0000       0.462136        12.5754 
 205   0.0000       0.467762        12.7284 
 206   0.0000       0.474007        12.8984 
 207   0.0000       0.475732        12.9453 
 208   0.0000       0.479450        13.0465 
 209   0.0000       0.481147        13.0927 
 210   0.0000       0.488499        13.2927 
 211   0.0000       0.492462        13.4006 
 212   0.0000       0.495567        13.4851 
 213   0.0000       0.498694        13.5702 
 214   0.0000       0.500700        13.6247 
 215   0.0000       0.505173        13.7465 
 216   0.0000       0.508246        13.8301 
 217   0.0000       0.511326        13.9139 
 218   0.0000       0.512061        13.9339 
 219   0.0000       0.518064        14.0972 
 220   0.0000       0.518970        14.1219 
 221   0.0000       0.522356        14.2140 
 222   0.0000       0.523682        14.2501 
 223   0.0000       0.525524        14.3002 
 224   0.0000       0.530149        14.4261 
 225   0.0000       0.532309        14.4849 
 226   0.0000       0.535560        14.5733 
 227   0.0000       0.538808        14.6617 
 228   0.0000       0.542060        14.7502 
 229   0.0000       0.545551        14.8452 
 230   0.0000       0.546508        14.8712 
 231   0.0000       0.551052        14.9949 
 232   0.0000       0.554102        15.0779 
 233   0.0000       0.559609        15.2277 
 234   0.0000       0.562360        15.3026 
 235   0.0000       0.568147        15.4601 
 236   0.0000       0.571502        15.5514 
 237   0.0000       0.574060        15.6210 
 238   0.0000       0.576411        15.6849 
 239   0.0000       0.581354        15.8194 
 240   0.0000       0.585091        15.9211 
 241   0.0000       0.586601        15.9622 
 242   0.0000       0.587789        15.9946 
 243   0.0000       0.595323        16.1996 
 244   0.0000       0.600239        16.3333 
 245   0.0000       0.603759        16.4291 
 246   0.0000       0.605990        16.4898 
 247   0.0000       0.612332        16.6624 
 248   0.0000       0.615137        16.7387 
 249   0.0000       0.616451        16.7745 
 250   0.0000       0.620432        16.8828 
 251   0.0000       0.626245        17.0410 
 252   0.0000       0.629362        17.1258 
 253   0.0000       0.633087        17.2272 
 254   0.0000       0.638738        17.3809 
 255   0.0000       0.644771        17.5451 
 256   0.0000       0.645125        17.5548 
 257   0.0000       0.651442        17.7266 
 258   0.0000       0.654563        17.8116 
 259   0.0000       0.656788        17.8721 
 260   0.0000       0.661357        17.9965 
 261   0.0000       0.664054        18.0698 
 262   0.0000       0.667807        18.1719 
 263   0.0000       0.672706        18.3053 
 264   0.0000       0.674947        18.3662 
 265   0.0000       0.680511        18.5176 
 266   0.0000       0.682219        18.5641 
 267   0.0000       0.688624        18.7384 
 268   0.0000       0.692429        18.8419 
 269   0.0000       0.695772        18.9329 
 270   0.0000       0.700959        19.0741 
 271   0.0000       0.706540        19.2259 
 272   0.0000       0.710414        19.3313 
 273   0.0000       0.713558        19.4169 
 274   0.0000       0.721354        19.6290 
 275   0.0000       0.724993        19.7281 
 276   0.0000       0.726923        19.7806 
 277   0.0000       0.732998        19.9459 
 278   0.0000       0.736444        20.0397 
 279   0.0000       0.740334        20.1455 
 280   0.0000       0.747299        20.3350 
 281   0.0000       0.750981        20.4352 
 282   0.0000       0.759031        20.6543 
 283   0.0000       0.762039        20.7361 
[...]
  | sigma^2 in % of trace(Dip) retained ...   1.67e+01
  | sigma^2 in % of trace(Dpq) retained ...   1.39e-01
  | Av. % of trace(Di) retained         ...  99.998586270559
  | Av. % of trace(Dp) retained         ...  99.999997964473
  | sigma^2 in % of trace(Di) retained  ...   6.64e-07
  | sigma^2 in % of trace(Dp) retained  ...   1.27e-12
 Distributions of % trace(Dij) recovered:
  |       >= 99.9  ...   105 ( 22.1 % of all IJ-pairs)
  |   [80.0, 90.0) ...    21 (  4.4 % of all IJ-pairs)
  |   [90.0, 99.0) ...   266 ( 56.0 % of all IJ-pairs)
  |   [99.0, 99.9) ...    83 ( 17.5 % of all IJ-pairs)
 Distributions of % trace(Dip) recovered:
  |   [80.0, 90.0) ...    11 (  9.7 % of all IP-pairs)
  |   [90.0, 99.0) ...    55 ( 48.7 % of all IP-pairs)
  |   [99.0, 99.9) ...    47 ( 41.6 % of all IP-pairs)
 Distributions of % trace(Dpq) recovered:
  |       >= 99.9  ...     5 ( 33.3 % of all PQ-pairs)
  |   [99.0, 99.9) ...    10 ( 66.7 % of all PQ-pairs)
 Distributions of % trace(Di) recovered :
  |       >= 99.9  ...    43 (100.0 % of all I-pairs )
 Distributions of % trace(Dp) recovered :
  |       >= 99.9  ...     5 (100.0 % of all P-pairs )

                       ===========================
                       1045 OF 1671 PAIRS ARE KEPT
                       ===========================

 Initial PAO correlation energy (all pairs)    ...  -2.6799523060 Eh
 Energy constituents in PAO basis (Eh):
  | Vijab(+0) ...  -2.2526497832
  | Viab (-1) ...  -0.1740538755
  | Vab  (-2) ...  -0.0573239726
  | Va   (-1) ...  -0.0000460111
  | Vija (+1) ...  -0.0714501428
  | Vij  (+2) ...  -0.0155613035
  | Via  (+0) ...  -0.1087012900
  | Vi   (+1) ...  -0.0001659273
 Initial PNO correlation energy                ...  -2.6460854581 Eh
 Energy constituents in PNO basis (Eh):
  | Vijab(+0) ...  -2.2342330069 (err=  0.0184167764)
  | Viab (-1) ...  -0.1601430835 (err=  0.0139107920)
  | Vab  (-2) ...  -0.0568664915 (err=  0.0004574811)
  | Va   (-1) ...  -0.0000266459 (err=  0.0000193652)
  | Vija (+1) ...  -0.0705478856 (err=  0.0009022571)
  | Vij  (+2) ...  -0.0155133095 (err=  0.0000479939)
  | Via  (+0) ...  -0.1085895719 (err=  0.0001117182)
  | Vi   (+1) ...  -0.0001654632 (err=  0.0000004641)
 Sum of total truncation errors ...   0.0338668479 Eh
  | Pair screening ...   0.0118281676 Eh
  | PNO truncation ...   0.0220386803 Eh

 UMP2 correlation energy (PAO) ...  -2.6748241562
  | alpha-alpha ...  -0.3832201848 (NP_aa=  898)
  | alpha-beta  ...  -1.9878687234 (NP_ab= 1646)
  | beta -beta  ...  -0.3037352480 (NP_bb=  715)
 UMP2 correlation energy (PNO) ...  -2.6406008706
  | alpha-alpha ...  -0.3712631821 (err=  0.0119570027, NP_aa=  555)
  | alpha-beta  ...  -1.9696524961 (err=  0.0182162273, NP_ab= 1020)
  | beta -beta  ...  -0.2996851924 (err=  0.0040500556, NP_bb=  432)
 Sum of total UMP2 truncation errors ...   0.0342232856 Eh
  | Pair screening ...   0.0118321115 Eh
  | PNO truncation ...   0.0223911741 Eh
 Timing for NEV-PNO construction (sec.)
  | Intermediate construction  ..           42.154
  | Amplitude construction     ..           57.885
  | Total time                 ..          100.039
 Making pair pair interaction lists ...      ok
 Total size for 2-ext PNO integrals ...     10.5 MB
Checking the number of SOMO/SOMO doubles PNOs ... 
 #Truncate: (72, 72)[171] -> [85] .. 
 #Truncate: (73, 73)[172] -> [85] .. 
 #Truncate: (74, 74)[173] -> [85] .. 
 #Truncate: (75, 75)[170] -> [85] .. 
 #Truncate: (76, 76)[172] -> [85] .. 

--------------------------------
LOCAL RI TRANSFORMATION (VABPAO)
--------------------------------

Number of PAOs:    1030
Basis functions:   1025 (343 shells)
Aux. functions:    2424 (644 shells)

Processing maps (0.0 sec)
Average map sizes:
   Aux shells -> PAOs           1030.0
   PAOs       -> AO shells       343.0

Calculating integrals (219.1 sec, 37370.165 MB)
Finished
-----------------------------
LOCAL RI TRANSFORMATION (IJV)
-----------------------------

Orbital window:      29 to 76
Basis functions:   1025 (343 shells)
Aux. functions:    2424 (644 shells)

Processing maps (0.0 sec)
Average map sizes:
   Aux shells -> MOs(i)           46.1
   Aux shells -> MOs(j)           48.0
   MOs        -> AO shells       340.6

Calculating integrals (22.4 sec, 41.128 MB)
Sorting integrals (0.3 sec, 41.101 MB)
Total time for the integral transformation: 22.8 sec


-------------------------------------
Pair Pair Term precalculation with     
RI-(ij|mn) and (im|jn) transformation  
ON THE FLY                             
-------------------------------------

   IBatch   1 (of   2)              ... done ( 1292.030 sec)
   IBatch   2 (of   2)              ... done (  659.651 sec)
Total EXT                           ...        1951.681 sec

---------------------
RI-PNO TRANSFORMATION
---------------------

Total Number of PNOs                   ... 32548
Total Number of IJ-PNOs                ... 28467
Total Number of IP-PNOs                ...  3128
Total Number of PQ-PNOs                ...   953
Total Number of IJ-pairs               ...   907
Total Number of PI-pairs               ...   113
Total Number of PQ-pairs               ...    25
Average number of PNOs per pair        ...    31
Maximal number of PNOs per pair        ...    85
>> Statistics for ij-pairs..
   #pairs with  1 -  5 PNOs   :    0
   #pairs with  6 - 10 PNOs   :    0
   #pairs with 11 - 15 PNOs   :   94
   #pairs with 16 - 20 PNOs   :  182
   #pairs with 21 - 25 PNOs   :  162
   #pairs with 26 - 30 PNOs   :  126
   #pairs with 31 - 35 PNOs   :   58
   #pairs with 36 - 40 PNOs   :   54
   #pairs with 41 - 45 PNOs   :   46
   #pairs with 46 - 50 PNOs   :   18
   #pairs with 51 - 55 PNOs   :   35
   #pairs with 56 - 60 PNOs   :   52
   #pairs with 61 - 65 PNOs   :   75
   #pairs with 66 - 70 PNOs   :    3
   #pairs with 76 - 80 PNOs   :    2
>> Statistics for ip-pairs..
   #pairs with  1 -  5 PNOs   :    0
   #pairs with  6 - 10 PNOs   :    2
   #pairs with 11 - 15 PNOs   :   11
   #pairs with 16 - 20 PNOs   :   12
   #pairs with 21 - 25 PNOs   :   20
   #pairs with 26 - 30 PNOs   :    8
   #pairs with 31 - 35 PNOs   :   47
   #pairs with 36 - 40 PNOs   :   11
   #pairs with 41 - 45 PNOs   :    2
   #pairs with 46 - 50 PNOs   :    0
>> Statistics for pq-pairs..
   #pairs with  1 -  5 PNOs   :    0
   #pairs with  6 - 10 PNOs   :    0
   #pairs with 11 - 15 PNOs   :    0
   #pairs with 16 - 20 PNOs   :    0
   #pairs with 21 - 25 PNOs   :   10
   #pairs with 26 - 30 PNOs   :   10
   #pairs with 31 - 35 PNOs   :    0
   #pairs with 36 - 40 PNOs   :    0
   #pairs with 41 - 45 PNOs   :    0
   #pairs with 46 - 50 PNOs   :    0
   #pairs with 81 - 85 PNOs   :    5

Generation of (ij|ab)[P] integrals            ... on
Generation of (ia|bc)[P],(ja|bc)[P] integrals ... on
Storage of 3 and 4 external integrals         ... on
Generation of ALL (ka|bc)[P] integrals        ... on
Keep RI integrals in memory                   ... off

Ibatch:  1 (of  1)
Starting 2-4 index PNO integral generation ... done

Timings:
Total PNO integral transformation time     ...       1773.748 sec
Size of the 3-external file                ...       277 MB
Size of the 4-external file                ...      1888 MB
Size of the IKJL file                      ...        16 MB
Size of the all 3-external file            ...      6653 MB
Size of the 1-external file                ...        21 MB

Size of the PAO/PNO coefficient matrices   ...     205.3 MB

Making pair/pair overlap matrices          ... done (  285.029 sec)
Size of the pair overlap file              ...    2243.0 MB
Total # unrestricted pairs ...       2007
  # of alpha-alpha pairs   ...        555
  # of alpha-beta pairs    ...       1020
  # of beta-beta pairs     ...        432
Constructing the guess amplitudes          ... done (    0.535 sec)

-------------------------
FINAL STARTUP INFORMATION
-------------------------

E(0)                                       ...  -3028.470156108
E(SL-UMP2 in NEV-PNO space)                ...     -2.675786421
Initial E(tot)                             ...  -3031.145942529
<T|T>                                      ...      0.532099217
Number of unrestricted pairs included      ... 2007
Total number of pairs                      ... 4095
----------------------------------------------------------
                     OPEN-SHELL COUPLED CLUSTER ITERATIONS
----------------------------------------------------------

Number of PNO amplitudes to be optimized        ...          2007778
Number of canonical amplitudes for strong pairs ...       1812726371
Untruncated number of canonical amplitudes      ...       3698645738

Iter       E(tot)           E(Corr)          Delta-E          Residual     Time
  0  -3031.153180454     -2.647838795      0.027947626      0.021202781 1314.78
                           *** Turning on DIIS ***
  1  -3031.269862489     -2.764520831     -0.116682035      0.010971130 1325.64
  2  -3031.334900753     -2.829559094     -0.065038264      0.008484300 1334.66
  3  -3031.357080530     -2.851738872     -0.022179777      0.003366038 1317.79
  4  -3031.364849817     -2.859508159     -0.007769288      0.002656911 1319.88
  5  -3031.369138777     -2.863797119     -0.004288960      0.001502305 1329.51
  6  -3031.370724014     -2.865382356     -0.001585238      0.000750687 1309.09
  7  -3031.371381538     -2.866039879     -0.000657523      0.000474235 1381.67
  8  -3031.371529310     -2.866187652     -0.000147772      0.000217197 1429.39
  9  -3031.371589120     -2.866247462     -0.000059810      0.000142902 1402.40
 10  -3031.371592064     -2.866250406     -0.000002944      0.000077082 1390.21
 11  -3031.371605066     -2.866263408     -0.000013002      0.000064717 1619.46
 12  -3031.371609833     -2.866268175     -0.000004767      0.000037630 1651.48
 13  -3031.371611965     -2.866270306     -0.000002132      0.000017796 1667.35
 14  -3031.371613584     -2.866271925     -0.000001619      0.000011626 1685.26
 15  -3031.371612742     -2.866271084      0.000000842      0.000005016 1664.76
               --- The CCSD iterations have converged ---

E(0)                                       ...  -3028.470156108
E(CORR)(strong-pairs)                      ...     -2.866271084
E(CORR)(weak-pairs)                        ...     -0.035185551
E(CORR)(corrected)                         ...     -2.901456634
E(TOT)                                     ...  -3031.371612742
Singles norm <S|S>**1/2                    ...      0.196653087 ( 0.064701321, 0.131951766)  
T1 diagnostic                              ...      0.020614845                              
<S**2>(linearized)                         ...      8.7508664 (ideal value:      8.7500000)

----------------------
LARGEST PNO AMPLITUDES
----------------------
  49b-> 72b  -1b-> -1b       0.055163
  52b-> 73b  -1b-> -1b       0.054934
  51b-> 73b  -1b-> -1b       0.053142
  49b-> 76b  -1b-> -1b       0.047097
  44a-> 77a  44b-> 77b       0.046902
  49b-> 75b  -1b-> -1b       0.046492
  42b-> 74b  -1b-> -1b       0.046122
  56a-> 77a  56b-> 77b       0.045382
  35b-> 72b  -1b-> -1b       0.044830
  46a-> 77a  46b-> 77b       0.044486
  38b-> 74b  -1b-> -1b       0.044471
  55a-> 77a  55b-> 77b       0.044114
  43a-> 77a  43b-> 77b       0.043681
  70a-> 77a  70b-> 77b       0.043578
  62a-> 77a  62b-> 77b       0.043499
  69a-> 77a  69b-> 77b       0.043322

Total # unrestricted pairs ...       1252
  # of alpha-alpha pairs   ...        343
  # of alpha-beta pairs    ...        626
  # of beta-beta pairs     ...        283

-------------------------------------------
DLPNO BASED TRIPLES CORRECTION
-------------------------------------------

Singles multiplier          ...  1.000000
Fragment selection                          .... not used
TCutTNO                     ... 1.000e-09
TCutMP2Pairs                ... 1.000e-05
TCutDOStrong                ... 2.000e-02
TCutMKNStrong               ... 1.000e-02
TCutDOWeak                  ... 4.000e-02
TCutMKNWeak                 ... 1.000e-01
NTCutTNO                    ... 1

Number of Triples that are to be computed         ...     31062

 . . . . . . . . .
10% done  
20% done  
30% done  
40% done  
50% done  
60% done  
70% done  
80% done  
90% done  
          Batch   1   done (  13599.403 sec)

Triples-Correction TCutTNO=   1.000e-09 (NWeakPairs = 0  1  2  3)  -0.115991863675   -0.001706532983    0.000000000000    0.000000000000
Triples-Correction  -0.117698396658

Triples timings:
Total time                      ... 14140.204 sec

Triples List generation         ...     0.000 sec
TNO generation                  ...   540.559 sec
Pair density generation         ...     0.088 sec
Look up tables                  ...     0.113 sec
Generating 3-index integrals    ...  8219.257 sec
Make 4-ind.int. from 3-ind.int  ...     3.237 sec
Projecting amplitudes (D + S)   ...  5142.687 sec
Sorting integrals for spin cases...    49.969 sec
Calculate W0/W1                 ...   146.656 sec
Energy contr. (sum over a,b,c)  ...    37.452 sec

Everything after 3-index        ...  5500.714 sec

Energy contribution AAA         ...    23.474 sec
Energy contribution AAB         ...   103.862 sec
Energy contribution ABB         ...    94.363 sec
Energy contribution BBB         ...    12.419 sec
prep                ...     2.985 sec
makeTTNO            ...  5089.338 sec
copyij              ...     0.126 sec
copyil              ...     4.076 sec
transposeij         ...     0.074 sec
newMatInDoubleProj  ...    53.270 sec
BlasInDoubleProj    ...  2648.672 sec
ProjSingles         ...    43.597 sec
ProjDoubles         ...  5099.089 sec
overall Doubles for projection      ... 2746012
used Doubles for projection         ... 2746012


Number of Triples   (0, 1, 2, 3 weak pairs; overall):  14348   11327       0       0  ( 25675)
Number of Atoms     (0, 1, 2, 3 weak pairs; overall):   18.8    13.5     0.0     0.0  (    29)
Number of PAOs      (0, 1, 2, 3 weak pairs; overall):  739.7   550.6     0.0     0.0  (  1025)
Number of AuxFcns   (0, 1, 2, 3 weak pairs; overall):  867.5   574.1     0.0     0.0  (  2424)
Number of TNOs (0, 1, 2, 3 weak pairs         ):   78.1    55.2     0.0     0.0
Aver. Number of NTNO, Atoms, PAOs, AuxFcns / Triples:  25675    68.0    16.4   656.3   738.1

Triples Correction (T)                     ...     -0.117698397
    alpha-alpha-alpha ... -0.003737530 (  3.2%)
    alpha-alpha-beta  ... -0.055291463 ( 47.0%)
    alpha-beta -beta  ... -0.054654705 ( 46.4%)
    beta -beta -beta  ... -0.004014699 (  3.4%)
Final correlation energy                   ...     -3.019155031
E(CCSD)                                    ...  -3031.371612742
E(CCSD(T))                                 ...  -3031.489311138

----------------------------
STATISTICS FOR PAIR-ENERGIES
----------------------------
Minimum, maximum and average ratios of UMP and CCSD pair-energies ... 0.45, 1.46, 1.02


------------------------------------------------------------------------------- 
                                     TIMINGS                                   
------------------------------------------------------------------------------- 


Total execution time                   ...    44752.736 sec

Localization of occupied MO's          ...       10.669 sec (  0.0%)
Fock Matrix Formation                  ...     1354.804 sec (  3.0%)
Differential overlap integrals         ...        1.416 sec (  0.0%)
Organizing maps                        ...        1.621 sec (  0.0%)
RI 3-index integral generations        ...      308.809 sec (  0.7%)
RI-PNO integral transformation         ...     4035.262 sec (  9.0%)
Initial Guess                          ...     1832.991 sec (  4.1%)
DIIS Solver                            ...       17.848 sec (  0.0%)
State Vector Update                    ...        0.723 sec (  0.0%)
Sigma-vector construction              ...    23143.321 sec ( 51.7%)
  <0|H|D>                              ...        0.029 sec (  0.0% of sigma)
  <D|H|D>(0-ext)                       ...     4166.054 sec ( 18.0% of sigma)
  <D|H|D>(2-ext Fock)                  ...        1.008 sec (  0.0% of sigma)
  <D|H|D>(2-ext)                       ...     3244.204 sec ( 14.0% of sigma)
  <D|H|D>(4-ext)                       ...      139.087 sec (  0.6% of sigma)
  <D|H|D>(4-ext-corr)                  ...      868.118 sec (  3.8% of sigma)
  CCSD doubles correction              ...      388.772 sec (  1.7% of sigma)
  <S|H|S>                              ...      645.385 sec (  2.8% of sigma)
  <S|H|D>(1-ext)                       ...      236.301 sec (  1.0% of sigma)
  <D|H|S>(1-ext)                       ...        0.884 sec (  0.0% of sigma)
  <S|H|D>(3-ext)                       ...       18.791 sec (  0.1% of sigma)
  CCSD singles correction              ...        0.004 sec (  0.0% of sigma)
  Fock-dressing                        ...     6640.418 sec ( 28.7% of sigma)
  Singles amplitudes                   ...       94.421 sec (  0.4% of sigma)
  (ik|jl)-dressing                     ...     5340.682 sec ( 23.1% of sigma)
  (ij|ab),(ia|jb)-dressing             ...     1127.045 sec (  4.9% of sigma)
  Pair energies                        ...        0.134 sec (  0.0% of sigma)
Total Time for computing (T)           ...    14404.163 sec ( 32.2% of ALL)


-------------------------   --------------------
FINAL SINGLE POINT ENERGY     -3031.489311138486
-------------------------   --------------------


                            ***************************************
                            *     ORCA property calculations      *
                            ***************************************

                                    ---------------------
                                    Active property flags
                                    ---------------------
   (+) Dipole Moment


------------------------------------------------------------------------------
                       ORCA ELECTRIC PROPERTIES CALCULATION
------------------------------------------------------------------------------

Dipole Moment Calculation                       ... on
Quadrupole Moment Calculation                   ... off
Polarizability Calculation                      ... off
GBWName                                         ... simple-grid-285-280-b3lyp_d3bj-631gd-gas-singlepoint-DLPNO_CCSD_T1-NormalPNO-augtz-gas.gbw
Electron density file                           ... simple-grid-285-280-b3lyp_d3bj-631gd-gas-singlepoint-DLPNO_CCSD_T1-NormalPNO-augtz-gas.scfp.tmp
The origin for moment calculation is the CENTER OF MASS  = (-0.313175, -0.040432  0.017083)

-------------
DIPOLE MOMENT
-------------
                                X             Y             Z
Electronic contribution:    -43.53788      -4.46989       1.93481
Nuclear contribution   :     46.66305       6.02441      -2.54530
                        -----------------------------------------
Total Dipole Moment    :      3.12517       1.55452      -0.61048
                        -----------------------------------------
Magnitude (a.u.)       :      3.54343
Magnitude (Debye)      :      9.00669



--------------------
Rotational spectrum 
--------------------
 
Rotational constants in cm-1:     0.018700     0.010721     0.010103 
Rotational constants in MHz :   560.597968   321.393071   302.891844 

 Dipole components along the rotational axes: 
x,y,z [a.u.] :     3.118384    -1.554884    -0.643384 
x,y,z [Debye]:     7.926301    -3.952202    -1.635352 

 

Timings for individual modules:

Sum of individual times         ...    61292.737 sec (=1021.546 min)
GTO integral calculation        ...       14.200 sec (=   0.237 min)   0.0 %
SCF iterations                  ...    16508.234 sec (= 275.137 min)  26.9 %
MDCI module                     ...    44770.304 sec (= 746.172 min)  73.0 %
                             ****ORCA TERMINATED NORMALLY****
TOTAL RUN TIME: 0 days 17 hours 1 minutes 35 seconds 367 msec
