
                                 *****************
                                 * O   R   C   A *
                                 *****************

           --- An Ab Initio, DFT and Semiempirical electronic structure package ---

                  #######################################################
                  #                        -***-                        #
                  #          Department of theory and spectroscopy      #
                  #               Directorship: Frank Neese             #
                  #        Max Planck Institute fuer Kohlenforschung    #
                  #                Kaiser Wilhelm Platz 1               #
                  #                 D-45470 Muelheim/Ruhr               #
                  #                      Germany                        #
                  #                                                     #
                  #                  All rights reserved                #
                  #                        -***-                        #
                  #######################################################


                         Program Version 4.1.2  - RELEASE  -


 With contributions from (in alphabetic order):
   Daniel Aravena         : Magnetic Properties
   Michael Atanasov       : Ab Initio Ligand Field Theory
   Alexander A. Auer      : GIAO ZORA
   Ute Becker             : Parallelization
   Giovanni Bistoni       : ED, Open-shell LED
   Martin Brehm           : Molecular dynamics
   Dmytro Bykov           : SCF Hessian
   Vijay G. Chilkuri      : MRCI spin determinant printing
   Dipayan Datta          : RHF DLPNO-CCSD density
   Achintya Kumar Dutta   : EOM-CC, STEOM-CC
   Dmitry Ganyushin       : Spin-Orbit,Spin-Spin,Magnetic field MRCI
   Miquel Garcia          : C-PCM Hessian
   Yang Guo               : DLPNO-NEVPT2, CIM, IAO-localization
   Andreas Hansen         : Spin unrestricted coupled pair/coupled cluster methods
   Benjamin Helmich-Paris : CASSCF linear response (MC-RPA)
   Lee Huntington         : MR-EOM, pCC
   Robert Izsak           : Overlap fitted RIJCOSX, COSX-SCS-MP3, EOM
   Christian Kollmar      : KDIIS, OOCD, Brueckner-CCSD(T), CCSD density
   Simone Kossmann        : Meta GGA functionals, TD-DFT gradient, OOMP2, MP2 Hessian
   Martin Krupicka        : AUTO-CI
   Lucas Lang             : DCDCAS
   Dagmar Lenk            : GEPOL surface, SMD
   Dimitrios Liakos       : Extrapolation schemes; parallel MDCI
   Dimitrios Manganas     : ROCIS; embedding schemes
   Dimitrios Pantazis     : SARC Basis sets
   Taras Petrenko         : DFT Hessian,TD-DFT gradient, ASA, ECA, R-Raman, ABS, FL, XAS/XES, NRVS
   Peter Pinski           : DLPNO-MP2, DLPNO-MP2 Gradient
   Christoph Reimann      : Effective Core Potentials
   Marius Retegan         : Local ZFS, SOC
   Christoph Riplinger    : Optimizer, TS searches, QM/MM, DLPNO-CCSD(T), (RO)-DLPNO pert. Triples
   Tobias Risthaus        : Range-separated hybrids, TD-DFT gradient, RPA, STAB
   Michael Roemelt        : Restricted open shell CIS
   Masaaki Saitow         : Open-shell DLPNO
   Barbara Sandhoefer     : DKH picture change effects
   Avijit Sen             : IP-ROCIS
   Kantharuban Sivalingam : CASSCF convergence, NEVPT2, FIC-MRCI
   Bernardo de Souza      : ESD, SOC TD-DFT
   Georgi Stoychev        : AutoAux, RI-MP2 NMR
   Willem Van den Heuvel  : Paramagnetic NMR
   Boris Wezisla          : Elementary symmetry handling
   Frank Wennmohs         : Technical directorship


 We gratefully acknowledge several colleagues who have allowed us to
 interface, adapt or use parts of their codes:
   Stefan Grimme, W. Hujo, H. Kruse,             : VdW corrections, initial TS optimization,
                  C. Bannwarth                     DFT functionals, gCP, sTDA/sTD-DF
   Ed Valeev                                     : LibInt (2-el integral package), F12 methods
   Garnet Chan, S. Sharma, J. Yang, R. Olivares  : DMRG
   Ulf Ekstrom                                   : XCFun DFT Library
   Mihaly Kallay                                 : mrcc  (arbitrary order and MRCC methods)
   Andreas Klamt, Michael Diedenhofen            : otool_cosmo (COSMO solvation model)
   Jiri Pittner, Ondrej Demel                    : Mk-CCSD
   Frank Weinhold                                : gennbo (NPA and NBO analysis)
   Christopher J. Cramer and Donald G. Truhlar   : smd solvation model
   Lars Goerigk                                  : TD-DFT with DH, B97 family of functionals
   V. Asgeirsson, H. Jonsson                     : NEB implementation
   FAccTs GmbH                                   : IRC, NEB, NEB-TS, Multilevel


 Your calculation uses the libint2 library for the computation of 2-el integrals
 For citations please refer to: http://libint.valeyev.net

 This ORCA versions uses:
   CBLAS   interface :  Fast vector & matrix operations
   LAPACKE interface :  Fast linear algebra routines
   SCALAPACK package :  Parallel linear algebra routines


----- Orbital basis set information -----
Your calculation utilizes the basis: aug-cc-pVTZ 
    H, B-Ne : Obtained from the ccRepo (grant-hill.group.shef.ac.uk/ccrepo) Feb. 2017
              R. A. Kendall, T. H. Dunning, Jr., R. J. Harrison, J. Chem. Phys. 96, 6796 (1992)
         He : Obtained from the ccRepo (grant-hill.group.shef.ac.uk/ccrepo) Feb. 2017
              D. E. Woon, T. H. Dunning, Jr., J. Chem. Phys. 100, 2975 (1994)
  Li-Be, Na : Obtained from the ccRepo (grant-hill.group.shef.ac.uk/ccrepo) Feb. 2017
              B. P. Prascher, D. E. Woon, K. A. Peterson, T. H. Dunning, Jr., A. K. Wilson, Theor. Chem. Acc. 128, 69 (2011)
         Mg : Obtained from the Peterson Research Group Website (tyr0.chem.wsu.edu/~kipeters) Feb. 2017
              B. P. Prascher, D. E. Woon, K. A. Peterson, T. H. Dunning, Jr., A. K. Wilson, Theor. Chem. Acc. 128, 69 (2011)
      Al-Ar : Obtained from the ccRepo (grant-hill.group.shef.ac.uk/ccrepo) Feb. 2017
              D. E. Woon, T. H. Dunning, Jr., J. Chem. Phys. 98, 1358 (1993)
      Sc-Zn : Obtained from the ccRepo (grant-hill.group.shef.ac.uk/ccrepo) Feb. 2017
              N. B. Balabanov, K. A. Peterson, J. Chem. Phys. 123, 064107 (2005)
              N. B. Balabanov, K. A. Peterson, J. Chem. Phys. 125, 074110 (2006)
      Ga-Kr : Obtained from the ccRepo (grant-hill.group.shef.ac.uk/ccrepo) Feb. 2017
              A. K. Wilson, D. E. Woon, K. A. Peterson, T. H. Dunning, Jr., J. Chem. Phys. 110, 7667 (1999)
     Ag, Au : Obtained from the Peterson Research Group Website (tyr0.chem.wsu.edu/~kipeters) Feb. 2017
              K. A. Peterson, C. Puzzarini, Theor. Chem. Acc. 114, 283 (2005)

----- AuxJ basis set information -----
Your calculation utilizes the AutoAux generation procedure.
  G. L. Stoychev, A. A. Auer, F. Neese, J. Chem. Theory Comput. 13, 554 (2017)

----- AuxC basis set information -----
Your calculation utilizes the auxiliary basis: aug-cc-pVTZ/C 
  H-He, B-F, Al-Ar, Ga-Kr : Obtained from the EMSL Basis Set Exchange (bse.pnl.gov) Feb. 2017
                            F. Weigend, A. Kohn, C. Hattig, J. Chem. Phys. 116, 3175 (2002)
                   Be, Mg : Obtained from the TURBOMOLE 7.0 basis set library
                            C. Haettig, Phys. Chem. Chem. Phys. 7, 59 (2005)
                       Ne : Obtained from the EMSL Basis Set Exchange (bse.pnl.gov) Feb. 2017
                            C. Haettig, Phys. Chem. Chem. Phys. 7, 59 (2005)
                            F. Weigend, A. Kohn, C. Hattig, J. Chem. Phys. 116, 3175 (2002)
                    Sc-Zn : Obtained from the EMSL Basis Set Exchange (bse.pnl.gov) Feb. 2017
                            J. G. Hill, J. A. Platts, J. Chem. Phys. 128, 044104 (2008)

----- AuxJK basis set information -----
Your calculation utilizes the AutoAux generation procedure.
  G. L. Stoychev, A. A. Auer, F. Neese, J. Chem. Theory Comput. 13, 554 (2017)

================================================================================
                                        WARNINGS
                       Please study these warnings very carefully!
================================================================================


WARNING: your system is open-shell and RHF/RKS was chosen
  ===> : WILL SWITCH to UHF/UKS


WARNING: MDCI localization with Augmented Hessian Foster-Boys
  ===> : Switching off randomization!

WARNING: Post HF methods need fully converged wavefunctions
  ===> : Setting SCFConvForced true
         You can overwrite this default with %scf ConvForced false 


INFO   : the flag for use of LIBINT has been found!

================================================================================
                                       INPUT FILE
================================================================================
NAME = simple-grid-215-295-b3lyp_d3bj-631gd-gas-singlepoint-DLPNO_CCSD_T1-NormalPNO-augtz-gas.inp
|  1> ! aug-cc-pVTZ aug-cc-pVTZ/C DLPNO-CCSD(T1) TightSCF NormalPNO UNO MiniPrint AutoAux
|  2> %pal nproc 10 end
|  3> %maxcore 20000
|  4> %mdci
|  5>      density none
|  6> end
|  7> 
|  8> * xyz 0 6
|  9>  O     -0.29614300     -0.20557000     -0.48337400
| 10>  C     -1.12677500     -1.14989300     -0.22588100
| 11>  C     -2.68325600     -0.19200700      0.90651700
| 12>  C     -3.08515900      0.66913200     -0.08487000
| 13>  C     -4.18355100      0.32574500     -1.04022000
| 14> Fe      1.54749000      0.17661300     -0.10217800
| 15> Cl      1.87406700      2.09168400     -1.10470900
| 16>  C     -2.38492200      1.96878800     -0.29052400
| 17> Cl      2.55694700     -1.57130900     -0.96576900
| 18> Cl      1.82085100      0.29374800      2.07782300
| 19>  H     -3.28967900     -1.08664000      1.04192000
| 20>  H     -2.88261100      2.59932200     -1.03086600
| 21>  H     -2.26759200      2.52836100      0.64317400
| 22>  H     -1.36389900      1.75000700     -0.64776600
| 23>  H     -5.01432200      1.02773700     -0.88221800
| 24>  H     -3.86692900      0.45954800     -2.08223600
| 25>  H     -4.56540800     -0.68855900     -0.90408400
| 26>  C     -1.92632400      0.30110800      2.12141800
| 27>  H     -2.49616200      1.09379500      2.62094200
| 28>  H     -1.77549000     -0.49919100      2.84767700
| 29>  H     -0.94604000      0.71074800      1.86671800
| 30>  C     -0.74823800     -2.14864800      0.84922400
| 31>  H     -1.59024400     -2.76764900      1.16515500
| 32>  H      0.00603800     -2.79981300      0.38557200
| 33>  H     -0.27827600     -1.66988900      1.70726200
| 34>  C     -1.84027100     -1.73369400     -1.42430800
| 35>  H     -1.12996600     -2.42814100     -1.89199400
| 36>  H     -2.73569200     -2.29572200     -1.15042900
| 37>  H     -2.08006400     -0.96457700     -2.15822300
| 38> *
| 39> 
| 40> 
| 41>                          ****END OF INPUT****
================================================================================

                       ****************************
                       * Single Point Calculation *
                       ****************************

---------------------------------
CARTESIAN COORDINATES (ANGSTROEM)
---------------------------------
  O     -0.296143   -0.205570   -0.483374
  C     -1.126775   -1.149893   -0.225881
  C     -2.683256   -0.192007    0.906517
  C     -3.085159    0.669132   -0.084870
  C     -4.183551    0.325745   -1.040220
  Fe     1.547490    0.176613   -0.102178
  Cl     1.874067    2.091684   -1.104709
  C     -2.384922    1.968788   -0.290524
  Cl     2.556947   -1.571309   -0.965769
  Cl     1.820851    0.293748    2.077823
  H     -3.289679   -1.086640    1.041920
  H     -2.882611    2.599322   -1.030866
  H     -2.267592    2.528361    0.643174
  H     -1.363899    1.750007   -0.647766
  H     -5.014322    1.027737   -0.882218
  H     -3.866929    0.459548   -2.082236
  H     -4.565408   -0.688559   -0.904084
  C     -1.926324    0.301108    2.121418
  H     -2.496162    1.093795    2.620942
  H     -1.775490   -0.499191    2.847677
  H     -0.946040    0.710748    1.866718
  C     -0.748238   -2.148648    0.849224
  H     -1.590244   -2.767649    1.165155
  H      0.006038   -2.799813    0.385572
  H     -0.278276   -1.669889    1.707262
  C     -1.840271   -1.733694   -1.424308
  H     -1.129966   -2.428141   -1.891994
  H     -2.735692   -2.295722   -1.150429
  H     -2.080064   -0.964577   -2.158223

----------------------------
CARTESIAN COORDINATES (A.U.)
----------------------------
  NO LB      ZA    FRAG     MASS         X           Y           Z
   0 O     8.0000    0    15.999   -0.559629   -0.388471   -0.913444
   1 C     6.0000    0    12.011   -2.129296   -2.172983   -0.426853
   2 C     6.0000    0    12.011   -5.070619   -0.362841    1.713069
   3 C     6.0000    0    12.011   -5.830106    1.264476   -0.160381
   4 C     6.0000    0    12.011   -7.905766    0.615569   -1.965731
   5 Fe   26.0000    0    55.850    2.924332    0.333750   -0.193088
   6 Cl   17.0000    0    35.453    3.541473    3.952710   -2.087597
   7 C     6.0000    0    12.011   -4.506849    3.720470   -0.549011
   8 Cl   17.0000    0    35.453    4.831930   -2.969344   -1.825039
   9 Cl   17.0000    0    35.453    3.440910    0.555103    3.926516
  10 H     1.0000    0     1.008   -6.216592   -2.053452    1.968943
  11 H     1.0000    0     1.008   -5.447345    4.912007   -1.948054
  12 H     1.0000    0     1.008   -4.285128    4.777910    1.215423
  13 H     1.0000    0     1.008   -2.577396    3.307034   -1.224100
  14 H     1.0000    0     1.008   -9.475695    1.942141   -1.667150
  15 H     1.0000    0     1.008   -7.307437    0.868420   -3.934856
  16 H     1.0000    0     1.008   -8.627371   -1.301188   -1.708471
  17 C     6.0000    0    12.011   -3.640225    0.569012    4.008899
  18 H     1.0000    0     1.008   -4.717063    2.066973    4.952863
  19 H     1.0000    0     1.008   -3.355190   -0.943334    5.381330
  20 H     1.0000    0     1.008   -1.787757    1.343119    3.527586
  21 C     6.0000    0    12.011   -1.413965   -4.060356    1.604801
  22 H     1.0000    0     1.008   -3.005126   -5.230099    2.201824
  23 H     1.0000    0     1.008    0.011410   -5.290880    0.728625
  24 H     1.0000    0     1.008   -0.525865   -3.155633    3.226258
  25 C     6.0000    0    12.011   -3.477608   -3.276207   -2.691552
  26 H     1.0000    0     1.008   -2.135326   -4.588522   -3.575351
  27 H     1.0000    0     1.008   -5.169709   -4.338286   -2.173996
  28 H     1.0000    0     1.008   -3.930751   -1.822786   -4.078450



           ************************************************************
           *        Program running with 10 parallel MPI-processes    *
           *              working on a common directory               *
           ************************************************************


           ************************************************************
           *        Program running with 10 parallel MPI-processes    *
           *              working on a common directory               *
           ************************************************************

Diagonalization of the overlap matrix:
Smallest eigenvalue                        ... 7.225e-07
Time for diagonalization                   ...    0.331 sec
Threshold for overlap eigenvalues          ... 1.000e-08
Number of eigenvalues below threshold      ... 0
Time for construction of square roots      ...    0.287 sec
Total time needed                          ...    0.625 sec

-------------------
DFT GRID GENERATION
-------------------

General Integration Accuracy     IntAcc      ...  4.340
Radial Grid Type                 RadialGrid  ... Gauss-Chebyshev
Angular Grid (max. acc.)         AngularGrid ... Lebedev-110
Angular grid pruning method      GridPruning ... 3 (G Style)
Weight generation scheme         WeightScheme... Becke
Basis function cutoff            BFCut       ...    1.0000e-11
Integration weight cutoff        WCut        ...    1.0000e-14
Grids for H and He will be reduced by one unit

# of grid points (after initial pruning)     ...  36112 (   0.0 sec)
# of grid points (after weights+screening)   ...  32407 (   0.1 sec)
nearest neighbour list constructed           ...    0.0 sec
Grid point re-assignment to atoms done       ...    0.0 sec
Grid point division into batches done        ...    0.0 sec
Reduced shell lists constructed in    0.2 sec

Total number of grid points                  ...    32407
Total number of batches                      ...      525
Average number of points per batch           ...       61
Average number of grid points per atom       ...     1117
Average number of shells per batch           ...   291.04 (84.85%)
Average number of basis functions per batch  ...   863.74 (84.27%)
Average number of large shells per batch     ...   237.02 (81.44%)
Average number of large basis fcns per batch ...   703.87 (81.49%)
Maximum spatial batch extension              ...   3.42,  4.20,  5.51 au
Average spatial batch extension              ...   0.18,  0.18,  0.17 au

Time for grid setup =    0.361 sec

Loading Hartree-Fock densities                     ... done
Calculating cut-offs                               ... done
Setting up the integral package                    ... done
Initializing the effective Hamiltonian             ... done
Starting the Coulomb interaction                   ... done (   1.1 sec)
Reading the grid                                   ... done
Mapping shells                                     ... done
Starting the XC term evaluation                    ... done (   0.8 sec)
Transforming the Hamiltonian                       ... done (   0.2 sec)
Diagonalizing the Hamiltonian                      ... done (   0.3 sec)
Back transforming the eigenvectors                 ... done (   0.1 sec)
Now organizing SCF variables                       ... done
--------------
SCF ITERATIONS
--------------
ITER       Energy         Delta-E        Max-DP      RMS-DP      [F,P]     Damp
               ***  Starting incremental Fock matrix formation  ***
  0  -3027.5726728520   0.000000000000 0.27320252  0.00105420  0.2586967 0.7000
  1  -3027.8229332527  -0.250260400677 0.21366395  0.00082847  0.1574196 0.7000
                               ***Turning on DIIS***
  2  -3027.9911251108  -0.168191858123 0.15349196  0.00061102  0.1095344 0.7000
  3  -3029.5908458765  -1.599720765716 0.34490803  0.00152689  0.0819808 0.0000
  4  -3028.2938016493   1.297044227201 0.04732331  0.00021577  0.0210637 0.0000
  5  -3028.4074070735  -0.113605424203 0.03958359  0.00017075  0.0115930 0.0000
  6  -3028.4560965243  -0.048689450754 0.02108785  0.00007245  0.0056542 0.0000
  7  -3028.4718816099  -0.015785085609 0.00836842  0.00003311  0.0034897 0.0000
  8  -3028.4583603908   0.013521219076 0.00568592  0.00001894  0.0016013 0.0000
  9  -3028.4554091570   0.002951233850 0.00335082  0.00001121  0.0007337 0.0000
 10  -3028.4435468262   0.011862330797 0.00086062  0.00000305  0.0003472 0.0000
 11  -3028.4481701298  -0.004623303575 0.00043068  0.00000163  0.0000871 0.0000
 12  -3028.4461675948   0.002002534951 0.00027325  0.00000125  0.0000234 0.0000
 13  -3028.4462855208  -0.000117925950 0.00075064  0.00000195  0.0000096 0.0000
 14  -3028.4463178188  -0.000032298083 0.00020567  0.00000176  0.0000030 0.0000
 15  -3028.4462474821   0.000070336723 0.00123650  0.00000230  0.0000023 0.0000
 16  -3028.4462768941  -0.000029411962 0.00042721  0.00000173  0.0000016 0.0000
                            ***DIIS convergence achieved***

               *****************************************************
               *                     SUCCESS                       *
               *           SCF CONVERGED AFTER  17 CYCLES          *
               *****************************************************

Total Energy       :        -3028.44629082 Eh          -82408.21313 eV
  Last Energy change         ...   -1.3930e-05  Tolerance :   1.0000e-08
  Last MAX-Density change    ...    1.0492e-03  Tolerance :   1.0000e-07
             **** THE GBW FILE WAS UPDATED (simple-grid-215-295-b3lyp_d3bj-631gd-gas-singlepoint-DLPNO_CCSD_T1-NormalPNO-augtz-gas.gbw) ****
             **** DENSITY FILE WAS UPDATED (simple-grid-215-295-b3lyp_d3bj-631gd-gas-singlepoint-DLPNO_CCSD_T1-NormalPNO-augtz-gas.scfp.tmp) ****
             **** ENERGY FILE WAS UPDATED (simple-grid-215-295-b3lyp_d3bj-631gd-gas-singlepoint-DLPNO_CCSD_T1-NormalPNO-augtz-gas.en.tmp) ****
----------------------
UHF SPIN CONTAMINATION
----------------------

Expectation value of <S**2>     :     8.765658
Ideal value S*(S+1) for S=2.5   :     8.750000
Deviation                       :     0.015658

----------------
ORBITAL ENERGIES
----------------
                 SPIN UP ORBITALS
  NO   OCC          E(Eh)            E(eV) 
   0   1.0000    -261.561202     -7117.4421 
   1   1.0000    -104.782239     -2851.2697 
   2   1.0000    -104.779891     -2851.2058 
   3   1.0000    -104.778683     -2851.1729 
   4   1.0000     -32.229009      -876.9959 
   5   1.0000     -27.705309      -753.8998 
   6   1.0000     -27.704448      -753.8764 
   7   1.0000     -27.704304      -753.8724 
   8   1.0000     -20.587671      -560.2190 
   9   1.0000     -11.406503      -310.3867 
  10   1.0000     -11.318026      -307.9791 
  11   1.0000     -11.270978      -306.6989 
  12   1.0000     -11.266727      -306.5832 
  13   1.0000     -11.265372      -306.5464 
  14   1.0000     -11.261912      -306.4522 
  15   1.0000     -11.251870      -306.1789 
  16   1.0000     -11.243540      -305.9523 
  17   1.0000     -10.508902      -285.9618 
  18   1.0000     -10.506529      -285.8972 
  19   1.0000     -10.505283      -285.8633 
  20   1.0000      -7.975749      -217.0312 
  21   1.0000      -7.974958      -217.0096 
  22   1.0000      -7.974941      -217.0092 
  23   1.0000      -7.973401      -216.9673 
  24   1.0000      -7.972628      -216.9462 
  25   1.0000      -7.972547      -216.9440 
  26   1.0000      -7.972092      -216.9317 
  27   1.0000      -7.971416      -216.9133 
  28   1.0000      -7.971327      -216.9108 
  29   1.0000      -4.584179      -124.7419 
  30   1.0000      -3.197226       -87.0009 
  31   1.0000      -3.195790       -86.9619 
  32   1.0000      -3.195552       -86.9554 
  33   1.0000      -1.429795       -38.9067 
  34   1.0000      -1.158755       -31.5313 
  35   1.0000      -1.087223       -29.5848 
  36   1.0000      -1.054511       -28.6947 
  37   1.0000      -1.049215       -28.5506 
  38   1.0000      -1.046682       -28.4817 
  39   1.0000      -1.035569       -28.1793 
  40   1.0000      -0.995444       -27.0874 
  41   1.0000      -0.986615       -26.8472 
  42   1.0000      -0.930137       -25.3103 
  43   1.0000      -0.913998       -24.8711 
  44   1.0000      -0.913375       -24.8542 
  45   1.0000      -0.912794       -24.8384 
  46   1.0000      -0.903179       -24.5767 
  47   1.0000      -0.902803       -24.5665 
  48   1.0000      -0.798756       -21.7352 
  49   1.0000      -0.754627       -20.5344 
  50   1.0000      -0.692993       -18.8573 
  51   1.0000      -0.682845       -18.5812 
  52   1.0000      -0.682458       -18.5706 
  53   1.0000      -0.676105       -18.3977 
  54   1.0000      -0.644067       -17.5260 
  55   1.0000      -0.623699       -16.9717 
  56   1.0000      -0.604523       -16.4499 
  57   1.0000      -0.596570       -16.2335 
  58   1.0000      -0.581514       -15.8238 
  59   1.0000      -0.578995       -15.7553 
  60   1.0000      -0.570284       -15.5182 
  61   1.0000      -0.561961       -15.2917 
  62   1.0000      -0.559665       -15.2292 
  63   1.0000      -0.543503       -14.7895 
  64   1.0000      -0.536556       -14.6004 
  65   1.0000      -0.520660       -14.1679 
  66   1.0000      -0.517759       -14.0889 
  67   1.0000      -0.486899       -13.2492 
  68   1.0000      -0.467877       -12.7316 
  69   1.0000      -0.461268       -12.5518 
  70   1.0000      -0.435711       -11.8563 
  71   1.0000      -0.430714       -11.7203 
  72   1.0000      -0.428295       -11.6545 
  73   1.0000      -0.420087       -11.4311 
  74   1.0000      -0.418485       -11.3876 
  75   1.0000      -0.417632       -11.3644 
  76   1.0000      -0.377840       -10.2816 
  77   0.0000       0.009548         0.2598 
  78   0.0000       0.020820         0.5665 
  79   0.0000       0.021722         0.5911 
  80   0.0000       0.027642         0.7522 
  81   0.0000       0.035425         0.9640 
  82   0.0000       0.039684         1.0799 
  83   0.0000       0.040873         1.1122 
  84   0.0000       0.043184         1.1751 
  85   0.0000       0.045427         1.2361 
  86   0.0000       0.046250         1.2585 
  87   0.0000       0.057177         1.5559 
  88   0.0000       0.057427         1.5627 
  89   0.0000       0.060698         1.6517 
  90   0.0000       0.063797         1.7360 
  91   0.0000       0.065328         1.7777 
  92   0.0000       0.073299         1.9946 
  93   0.0000       0.075513         2.0548 
  94   0.0000       0.083577         2.2742 
  95   0.0000       0.087894         2.3917 
  96   0.0000       0.090715         2.4685 
  97   0.0000       0.092381         2.5138 
  98   0.0000       0.097193         2.6448 
  99   0.0000       0.099252         2.7008 
 100   0.0000       0.104499         2.8436 
 101   0.0000       0.105397         2.8680 
 102   0.0000       0.117186         3.1888 
 103   0.0000       0.118117         3.2141 
 104   0.0000       0.121448         3.3048 
 105   0.0000       0.123728         3.3668 
 106   0.0000       0.125208         3.4071 
 107   0.0000       0.130625         3.5545 
 108   0.0000       0.130836         3.5602 
 109   0.0000       0.135818         3.6958 
 110   0.0000       0.138712         3.7745 
 111   0.0000       0.141872         3.8605 
 112   0.0000       0.145486         3.9589 
 113   0.0000       0.148807         4.0493 
 114   0.0000       0.150506         4.0955 
 115   0.0000       0.154619         4.2074 
 116   0.0000       0.157029         4.2730 
 117   0.0000       0.159103         4.3294 
 118   0.0000       0.161204         4.3866 
 119   0.0000       0.162504         4.4220 
 120   0.0000       0.165960         4.5160 
 121   0.0000       0.168745         4.5918 
 122   0.0000       0.174041         4.7359 
 123   0.0000       0.176906         4.8139 
 124   0.0000       0.179533         4.8854 
 125   0.0000       0.181322         4.9340 
 126   0.0000       0.186564         5.0767 
 127   0.0000       0.189288         5.1508 
 128   0.0000       0.190777         5.1913 
 129   0.0000       0.197676         5.3790 
 130   0.0000       0.200219         5.4482 
 131   0.0000       0.203771         5.5449 
 132   0.0000       0.205920         5.6034 
 133   0.0000       0.209908         5.7119 
 134   0.0000       0.213473         5.8089 
 135   0.0000       0.215822         5.8728 
 136   0.0000       0.219226         5.9654 
 137   0.0000       0.221977         6.0403 
 138   0.0000       0.222750         6.0613 
 139   0.0000       0.226520         6.1639 
 140   0.0000       0.228498         6.2178 
 141   0.0000       0.236116         6.4250 
 142   0.0000       0.237369         6.4592 
 143   0.0000       0.243182         6.6173 
 144   0.0000       0.245759         6.6874 
 145   0.0000       0.251201         6.8355 
 146   0.0000       0.254200         6.9171 
 147   0.0000       0.255346         6.9483 
 148   0.0000       0.259862         7.0712 
 149   0.0000       0.262657         7.1473 
 150   0.0000       0.268444         7.3047 
 151   0.0000       0.274307         7.4643 
 152   0.0000       0.278296         7.5728 
 153   0.0000       0.279971         7.6184 
 154   0.0000       0.287039         7.8107 
 155   0.0000       0.290436         7.9032 
 156   0.0000       0.294037         8.0012 
 157   0.0000       0.295191         8.0325 
 158   0.0000       0.300831         8.1860 
 159   0.0000       0.302278         8.2254 
 160   0.0000       0.303737         8.2651 
 161   0.0000       0.313451         8.5294 
 162   0.0000       0.313953         8.5431 
 163   0.0000       0.320106         8.7105 
 164   0.0000       0.324440         8.8285 
 165   0.0000       0.329761         8.9732 
 166   0.0000       0.331149         9.0110 
 167   0.0000       0.334787         9.1100 
 168   0.0000       0.335774         9.1369 
 169   0.0000       0.339130         9.2282 
 170   0.0000       0.344402         9.3717 
 171   0.0000       0.348745         9.4898 
 172   0.0000       0.354085         9.6352 
 173   0.0000       0.355554         9.6751 
 174   0.0000       0.357010         9.7147 
 175   0.0000       0.360732         9.8160 
 176   0.0000       0.366797         9.9811 
 177   0.0000       0.369517        10.0551 
 178   0.0000       0.371427        10.1070 
 179   0.0000       0.375951        10.2301 
 180   0.0000       0.377438        10.2706 
 181   0.0000       0.379619        10.3300 
 182   0.0000       0.385166        10.4809 
 183   0.0000       0.386792        10.5251 
 184   0.0000       0.388085        10.5603 
 185   0.0000       0.392072        10.6688 
 186   0.0000       0.395206        10.7541 
 187   0.0000       0.401136        10.9155 
 188   0.0000       0.404342        11.0027 
 189   0.0000       0.406274        11.0553 
 190   0.0000       0.410772        11.1777 
 191   0.0000       0.412541        11.2258 
 192   0.0000       0.417163        11.3516 
 193   0.0000       0.421142        11.4599 
 194   0.0000       0.425994        11.5919 
 195   0.0000       0.432069        11.7572 
 196   0.0000       0.432659        11.7733 
 197   0.0000       0.433531        11.7970 
 198   0.0000       0.439703        11.9649 
 199   0.0000       0.445066        12.1109 
 200   0.0000       0.447035        12.1644 
 201   0.0000       0.452462        12.3121 
 202   0.0000       0.455148        12.3852 
 203   0.0000       0.456895        12.4327 
 204   0.0000       0.463645        12.6164 
 205   0.0000       0.464612        12.6427 
 206   0.0000       0.468050        12.7363 
 207   0.0000       0.470048        12.7907 
 208   0.0000       0.474694        12.9171 
 209   0.0000       0.478993        13.0341 
 210   0.0000       0.484170        13.1749 
 211   0.0000       0.486295        13.2328 
 212   0.0000       0.488732        13.2991 
 213   0.0000       0.493373        13.4254 
 214   0.0000       0.495983        13.4964 
 215   0.0000       0.499351        13.5880 
 216   0.0000       0.501360        13.6427 
 217   0.0000       0.506908        13.7937 
 218   0.0000       0.508474        13.8363 
 219   0.0000       0.510359        13.8876 
 220   0.0000       0.513123        13.9628 
 221   0.0000       0.517017        14.0688 
 222   0.0000       0.521462        14.1897 
 223   0.0000       0.525437        14.2979 
 224   0.0000       0.527175        14.3452 
 225   0.0000       0.529259        14.4019 
 226   0.0000       0.530404        14.4330 
 227   0.0000       0.538592        14.6558 
 228   0.0000       0.539605        14.6834 
 229   0.0000       0.542717        14.7681 
 230   0.0000       0.545968        14.8565 
 231   0.0000       0.547772        14.9056 
 232   0.0000       0.553604        15.0643 
 233   0.0000       0.555349        15.1118 
 234   0.0000       0.559391        15.2218 
 235   0.0000       0.563376        15.3302 
 236   0.0000       0.568900        15.4806 
 237   0.0000       0.572321        15.5736 
 238   0.0000       0.576791        15.6953 
 239   0.0000       0.578745        15.7485 
 240   0.0000       0.580840        15.8055 
 241   0.0000       0.583463        15.8768 
 242   0.0000       0.587701        15.9922 
 243   0.0000       0.588815        16.0225 
 244   0.0000       0.596310        16.2264 
 245   0.0000       0.600023        16.3274 
 246   0.0000       0.607151        16.5214 
 247   0.0000       0.608465        16.5572 
 248   0.0000       0.611512        16.6401 
 249   0.0000       0.616375        16.7724 
 250   0.0000       0.617343        16.7988 
 251   0.0000       0.620751        16.8915 
 252   0.0000       0.624231        16.9862 
 253   0.0000       0.628856        17.1121 
 254   0.0000       0.632880        17.2215 
 255   0.0000       0.636513        17.3204 
 256   0.0000       0.644758        17.5448 
 257   0.0000       0.650084        17.6897 
 258   0.0000       0.652409        17.7530 
 259   0.0000       0.656794        17.8723 
 260   0.0000       0.660216        17.9654 
 261   0.0000       0.665866        18.1191 
 262   0.0000       0.670378        18.2419 
 263   0.0000       0.671971        18.2853 
 264   0.0000       0.677310        18.4305 
 265   0.0000       0.678302        18.4575 
 266   0.0000       0.686096        18.6696 
 267   0.0000       0.688088        18.7238 
 268   0.0000       0.695802        18.9337 
 269   0.0000       0.696994        18.9662 
 270   0.0000       0.702997        19.1295 
 271   0.0000       0.707277        19.2460 
 272   0.0000       0.710097        19.3227 
 273   0.0000       0.716644        19.5009 
 274   0.0000       0.721538        19.6341 
 275   0.0000       0.724937        19.7265 
 276   0.0000       0.729476        19.8500 
 277   0.0000       0.730848        19.8874 
 278   0.0000       0.735322        20.0091 
 279   0.0000       0.736871        20.0513 
 280   0.0000       0.743799        20.2398 
 281   0.0000       0.749590        20.3974 
 282   0.0000       0.755732        20.5645 
 283   0.0000       0.758452        20.6385 
 284   0.0000       0.770715        20.9722 
 285   0.0000       0.779436        21.2095 
 286   0.0000       0.781693        21.2710 
 287   0.0000       0.790291        21.5049 
 288   0.0000       0.793089        21.5810 
 289   0.0000       0.794480        21.6189 
 290   0.0000       0.799214        21.7477 
 291   0.0000       0.812698        22.1146 
 292   0.0000       0.816430        22.2162 
 293   0.0000       0.824453        22.4345 
 294   0.0000       0.830874        22.6092 
 295   0.0000       0.838875        22.8270 
 296   0.0000       0.840197        22.8629 
 297   0.0000       0.845741        23.0138 
 298   0.0000       0.851394        23.1676 
 299   0.0000       0.854153        23.2427 
 300   0.0000       0.857552        23.3352 
 301   0.0000       0.865370        23.5479 
 302   0.0000       0.870318        23.6826 
 303   0.0000       0.872321        23.7371 
 304   0.0000       0.877181        23.8693 
 305   0.0000       0.879023        23.9194 
 306   0.0000       0.887677        24.1549 
 307   0.0000       0.888920        24.1887 
 308   0.0000       0.902471        24.5575 
 309   0.0000       0.903958        24.5980 
 310   0.0000       0.904841        24.6220 
 311   0.0000       0.910615        24.7791 
 312   0.0000       0.914343        24.8805 
 313   0.0000       0.916530        24.9400 
 314   0.0000       0.918683        24.9986 
 315   0.0000       0.923215        25.1220 
 316   0.0000       0.931415        25.3451 
 317   0.0000       0.934678        25.4339 
 318   0.0000       0.940766        25.5995 
 319   0.0000       0.942919        25.6581 
 320   0.0000       0.944593        25.7037 
 321   0.0000       0.948992        25.8234 
 322   0.0000       0.952720        25.9248 
 323   0.0000       0.957201        26.0468 
 324   0.0000       0.958153        26.0727 
 325   0.0000       0.963904        26.2292 
 326   0.0000       0.969360        26.3776 
 327   0.0000       0.973045        26.4779 
 328   0.0000       0.975949        26.5569 
 329   0.0000       0.979935        26.6654 
 330   0.0000       0.984511        26.7899 
 331   0.0000       0.985998        26.8304 
 332   0.0000       0.991320        26.9752 
 333   0.0000       0.993149        27.0250 
 334   0.0000       0.993612        27.0376 
 335   0.0000       1.000109        27.2144 
 336   0.0000       1.002104        27.2686 
 337   0.0000       1.004359        27.3300 
 338   0.0000       1.010958        27.5096 
 339   0.0000       1.014329        27.6013 
 340   0.0000       1.019518        27.7425 
 341   0.0000       1.020916        27.7805 
 342   0.0000       1.025825        27.9141 
 343   0.0000       1.027423        27.9576 
 344   0.0000       1.034079        28.1387 
 345   0.0000       1.035466        28.1765 
 346   0.0000       1.039497        28.2861 
 347   0.0000       1.043068        28.3833 
 348   0.0000       1.043913        28.4063 
 349   0.0000       1.049462        28.5573 
 350   0.0000       1.055246        28.7147 
 351   0.0000       1.058130        28.7932 
 352   0.0000       1.063897        28.9501 
 353   0.0000       1.067688        29.0533 
 354   0.0000       1.068383        29.0722 
 355   0.0000       1.075356        29.2619 
 356   0.0000       1.077276        29.3142 
 357   0.0000       1.082644        29.4602 
 358   0.0000       1.083576        29.4856 
 359   0.0000       1.086429        29.5632 
 360   0.0000       1.088397        29.6168 
 361   0.0000       1.094106        29.7721 
 362   0.0000       1.098981        29.9048 
 363   0.0000       1.105891        30.0928 
 364   0.0000       1.108405        30.1612 
 365   0.0000       1.109302        30.1856 
 366   0.0000       1.113273        30.2937 
 367   0.0000       1.123246        30.5651 
 368   0.0000       1.124999        30.6128 
 369   0.0000       1.130245        30.7555 
 370   0.0000       1.132640        30.8207 
 371   0.0000       1.136657        30.9300 
 372   0.0000       1.141609        31.0647 
 373   0.0000       1.145900        31.1815 
 374   0.0000       1.148791        31.2602 
 375   0.0000       1.150094        31.2957 
 376   0.0000       1.157246        31.4903 
 377   0.0000       1.165954        31.7272 
 378   0.0000       1.172904        31.9163 
 379   0.0000       1.175088        31.9758 
 380   0.0000       1.178065        32.0568 
 381   0.0000       1.183947        32.2168 
 382   0.0000       1.188700        32.3462 
 383   0.0000       1.193498        32.4767 
 384   0.0000       1.197134        32.5757 
 385   0.0000       1.201033        32.6818 
 386   0.0000       1.208975        32.8979 
 387   0.0000       1.212867        33.0038 
 388   0.0000       1.213070        33.0093 
 389   0.0000       1.214683        33.0532 
 390   0.0000       1.222756        33.2729 
 391   0.0000       1.227758        33.4090 
 392   0.0000       1.229426        33.4544 
 393   0.0000       1.239261        33.7220 
 394   0.0000       1.245909        33.9029 
 395   0.0000       1.252509        34.0825 
 396   0.0000       1.256275        34.1850 
 397   0.0000       1.259455        34.2715 
 398   0.0000       1.262400        34.3517 
 399   0.0000       1.266093        34.4522 
 400   0.0000       1.275383        34.7049 
 401   0.0000       1.280590        34.8466 
 402   0.0000       1.283704        34.9314 
 403   0.0000       1.289243        35.0821 
 404   0.0000       1.290480        35.1158 
 405   0.0000       1.297097        35.2958 
 406   0.0000       1.302383        35.4397 
 407   0.0000       1.306061        35.5397 
 408   0.0000       1.307515        35.5793 
 409   0.0000       1.310363        35.6568 
 410   0.0000       1.317843        35.8603 
 411   0.0000       1.319284        35.8995 
 412   0.0000       1.328103        36.1395 
 413   0.0000       1.332923        36.2707 
 414   0.0000       1.343489        36.5582 
 415   0.0000       1.349992        36.7351 
 416   0.0000       1.352527        36.8041 
 417   0.0000       1.360941        37.0331 
 418   0.0000       1.361817        37.0569 
 419   0.0000       1.363601        37.1055 
 420   0.0000       1.375468        37.4284 
 421   0.0000       1.376785        37.4642 
 422   0.0000       1.386414        37.7262 
 423   0.0000       1.387600        37.7585 
 424   0.0000       1.400738        38.1160 
 425   0.0000       1.403022        38.1782 
 426   0.0000       1.405397        38.2428 
 427   0.0000       1.415197        38.5095 
 428   0.0000       1.424132        38.7526 
 429   0.0000       1.425396        38.7870 
 430   0.0000       1.428567        38.8733 
 431   0.0000       1.432380        38.9770 
 432   0.0000       1.438400        39.1408 
 433   0.0000       1.446365        39.3576 
 434   0.0000       1.452472        39.5238 
 435   0.0000       1.454187        39.5704 
 436   0.0000       1.457923        39.6721 
 437   0.0000       1.461358        39.7656 
 438   0.0000       1.467840        39.9420 
 439   0.0000       1.472751        40.0756 
 440   0.0000       1.475524        40.1510 
 441   0.0000       1.478286        40.2262 
 442   0.0000       1.486133        40.4397 
 443   0.0000       1.495373        40.6912 
 444   0.0000       1.499972        40.8163 
 445   0.0000       1.506118        40.9836 
 446   0.0000       1.508160        41.0391 
 447   0.0000       1.514110        41.2010 
 448   0.0000       1.516084        41.2547 
 449   0.0000       1.528108        41.5819 
 450   0.0000       1.529489        41.6195 
 451   0.0000       1.540506        41.9193 
 452   0.0000       1.542023        41.9606 
 453   0.0000       1.546342        42.0781 
 454   0.0000       1.553784        42.2806 
 455   0.0000       1.556814        42.3631 
 456   0.0000       1.561333        42.4860 
 457   0.0000       1.563963        42.5576 
 458   0.0000       1.572857        42.7996 
 459   0.0000       1.574426        42.8423 
 460   0.0000       1.578015        42.9400 
 461   0.0000       1.587240        43.1910 
 462   0.0000       1.589006        43.2390 
 463   0.0000       1.601402        43.5764 
 464   0.0000       1.603390        43.6305 
 465   0.0000       1.607023        43.7293 
 466   0.0000       1.613015        43.8924 
 467   0.0000       1.621662        44.1277 
 468   0.0000       1.625473        44.2314 
 469   0.0000       1.627341        44.2822 
 470   0.0000       1.635283        44.4983 
 471   0.0000       1.639307        44.6078 
 472   0.0000       1.648227        44.8505 
 473   0.0000       1.653816        45.0026 
 474   0.0000       1.658790        45.1380 
 475   0.0000       1.661946        45.2239 
 476   0.0000       1.668649        45.4063 
 477   0.0000       1.671227        45.4764 
 478   0.0000       1.679536        45.7025 
 479   0.0000       1.684289        45.8318 
 480   0.0000       1.688511        45.9467 
 481   0.0000       1.690318        45.9959 
 482   0.0000       1.692412        46.0529 
 483   0.0000       1.694299        46.1042 
 484   0.0000       1.704247        46.3749 
 485   0.0000       1.712917        46.6108 
 486   0.0000       1.715890        46.6917 
 487   0.0000       1.717703        46.7411 
 488   0.0000       1.728955        47.0473 
 489   0.0000       1.735448        47.2239 
 490   0.0000       1.741186        47.3801 
 491   0.0000       1.745675        47.5022 
 492   0.0000       1.751048        47.6484 
 493   0.0000       1.753868        47.7252 
 494   0.0000       1.760301        47.9002 
 495   0.0000       1.767134        48.0862 
 496   0.0000       1.776268        48.3347 
 497   0.0000       1.783869        48.5416 
 498   0.0000       1.789188        48.6863 
 499   0.0000       1.792435        48.7746 
 500   0.0000       1.794637        48.8346 
 501   0.0000       1.802852        49.0581 
 502   0.0000       1.807902        49.1955 
 503   0.0000       1.812545        49.3219 
 504   0.0000       1.816687        49.4346 
 505   0.0000       1.822722        49.5988 
 506   0.0000       1.825664        49.6788 
 507   0.0000       1.830802        49.8187 
 508   0.0000       1.840093        50.0715 
 509   0.0000       1.843261        50.1577 
 510   0.0000       1.850304        50.3493 
 511   0.0000       1.852357        50.4052 
 512   0.0000       1.858853        50.5820 
 513   0.0000       1.864600        50.7383 
 514   0.0000       1.867493        50.8171 
 515   0.0000       1.873940        50.9925 
 516   0.0000       1.876793        51.0701 
 517   0.0000       1.878879        51.1269 
 518   0.0000       1.883961        51.2652 
 519   0.0000       1.896029        51.5936 
 520   0.0000       1.900629        51.7187 
 521   0.0000       1.904579        51.8262 
 522   0.0000       1.907947        51.9179 
 523   0.0000       1.914425        52.0941 
 524   0.0000       1.917247        52.1709 
 525   0.0000       1.922420        52.3117 
 526   0.0000       1.926800        52.4309 
 527   0.0000       1.933131        52.6032 
 528   0.0000       1.937167        52.7130 
 529   0.0000       1.943884        52.8958 
 530   0.0000       1.949392        53.0456 
 531   0.0000       1.958135        53.2836 
 532   0.0000       1.965279        53.4780 
 533   0.0000       1.968044        53.5532 
 534   0.0000       1.972280        53.6685 
 535   0.0000       1.977592        53.8130 
 536   0.0000       1.986559        54.0570 
 537   0.0000       1.993215        54.2381 
 538   0.0000       1.996827        54.3364 
 539   0.0000       2.006570        54.6016 
 540   0.0000       2.013309        54.7849 
 541   0.0000       2.016528        54.8725 
 542   0.0000       2.026683        55.1488 
 543   0.0000       2.037917        55.4545 
 544   0.0000       2.042152        55.5698 
 545   0.0000       2.046035        55.6755 
 546   0.0000       2.051683        55.8291 
 547   0.0000       2.057129        55.9773 
 548   0.0000       2.065081        56.1937 
 549   0.0000       2.067801        56.2677 
 550   0.0000       2.076985        56.5176 
 551   0.0000       2.088665        56.8355 
 552   0.0000       2.091417        56.9103 
 553   0.0000       2.093492        56.9668 
 554   0.0000       2.101377        57.1814 
 555   0.0000       2.113776        57.5188 
 556   0.0000       2.116896        57.6037 
 557   0.0000       2.128488        57.9191 
 558   0.0000       2.133799        58.0636 
 559   0.0000       2.143808        58.3360 
 560   0.0000       2.146060        58.3973 
 561   0.0000       2.151161        58.5361 
 562   0.0000       2.157360        58.7047 
 563   0.0000       2.164526        58.8998 
 564   0.0000       2.175420        59.1962 
 565   0.0000       2.181569        59.3635 
 566   0.0000       2.189017        59.5662 
 567   0.0000       2.195572        59.7445 
 568   0.0000       2.200277        59.8726 
 569   0.0000       2.210372        60.1473 
 570   0.0000       2.221842        60.4594 
 571   0.0000       2.224745        60.5384 
 572   0.0000       2.231034        60.7095 
 573   0.0000       2.232072        60.7378 
 574   0.0000       2.235067        60.8193 
 575   0.0000       2.249118        61.2016 
 576   0.0000       2.257879        61.4400 
 577   0.0000       2.265053        61.6352 
 578   0.0000       2.270283        61.7775 
 579   0.0000       2.283896        62.1480 
 580   0.0000       2.287434        62.2442 
 581   0.0000       2.295076        62.4522 
 582   0.0000       2.301491        62.6268 
 583   0.0000       2.306764        62.7703 
 584   0.0000       2.312168        62.9173 
 585   0.0000       2.314161        62.9715 
 586   0.0000       2.320328        63.1393 
 587   0.0000       2.336938        63.5913 
 588   0.0000       2.348347        63.9018 
 589   0.0000       2.353453        64.0407 
 590   0.0000       2.360171        64.2235 
 591   0.0000       2.371177        64.5230 
 592   0.0000       2.377899        64.7059 
 593   0.0000       2.381119        64.7935 
 594   0.0000       2.388310        64.9892 
 595   0.0000       2.392243        65.0962 
 596   0.0000       2.407068        65.4997 
 597   0.0000       2.415798        65.7372 
 598   0.0000       2.424701        65.9795 
 599   0.0000       2.430783        66.1450 
 600   0.0000       2.448601        66.6298 
 601   0.0000       2.454470        66.7895 
 602   0.0000       2.454943        66.8024 
 603   0.0000       2.473534        67.3083 
 604   0.0000       2.477876        67.4264 
 605   0.0000       2.491581        67.7994 
 606   0.0000       2.498034        67.9750 
 607   0.0000       2.514133        68.4130 
 608   0.0000       2.527542        68.7779 
 609   0.0000       2.534886        68.9778 
 610   0.0000       2.543191        69.2037 
 611   0.0000       2.553729        69.4905 
 612   0.0000       2.573844        70.0379 
 613   0.0000       2.591050        70.5061 
 614   0.0000       2.608348        70.9768 
 615   0.0000       2.616717        71.2045 
 616   0.0000       2.620518        71.3079 
 617   0.0000       2.635867        71.7256 
 618   0.0000       2.637272        71.7638 
 619   0.0000       2.650770        72.1311 
 620   0.0000       2.661843        72.4324 
 621   0.0000       2.665758        72.5390 
 622   0.0000       2.667815        72.5950 
 623   0.0000       2.680588        72.9425 
 624   0.0000       2.685447        73.0747 
 625   0.0000       2.699061        73.4452 
 626   0.0000       2.708153        73.6926 
 627   0.0000       2.711798        73.7918 
 628   0.0000       2.714068        73.8535 
 629   0.0000       2.726027        74.1790 
 630   0.0000       2.734650        74.4136 
 631   0.0000       2.739306        74.5403 
 632   0.0000       2.744066        74.6698 
 633   0.0000       2.754970        74.9665 
 634   0.0000       2.764686        75.2309 
 635   0.0000       2.774509        75.4982 
 636   0.0000       2.787393        75.8488 
 637   0.0000       2.803954        76.2995 
 638   0.0000       2.824031        76.8458 
 639   0.0000       2.828514        76.9678 
 640   0.0000       2.843374        77.3721 
 641   0.0000       2.864690        77.9522 
 642   0.0000       2.873910        78.2031 
 643   0.0000       2.882653        78.4410 
 644   0.0000       2.889867        78.6373 
 645   0.0000       2.913314        79.2753 
 646   0.0000       2.914543        79.3087 
 647   0.0000       2.926735        79.6405 
 648   0.0000       2.934959        79.8643 
 649   0.0000       2.939839        79.9971 
 650   0.0000       2.960934        80.5711 
 651   0.0000       2.964947        80.6803 
 652   0.0000       2.989306        81.3431 
 653   0.0000       3.018289        82.1318 
 654   0.0000       3.030809        82.4725 
 655   0.0000       3.035386        82.5971 
 656   0.0000       3.058405        83.2234 
 657   0.0000       3.069395        83.5225 
 658   0.0000       3.079650        83.8015 
 659   0.0000       3.093062        84.1665 
 660   0.0000       3.114392        84.7469 
 661   0.0000       3.127426        85.1016 
 662   0.0000       3.143318        85.5340 
 663   0.0000       3.145431        85.5915 
 664   0.0000       3.164386        86.1073 
 665   0.0000       3.175603        86.4126 
 666   0.0000       3.189535        86.7917 
 667   0.0000       3.204378        87.1956 
 668   0.0000       3.209675        87.3397 
 669   0.0000       3.223116        87.7054 
 670   0.0000       3.236501        88.0697 
 671   0.0000       3.237514        88.0972 
 672   0.0000       3.244222        88.2798 
 673   0.0000       3.250903        88.4616 
 674   0.0000       3.256905        88.6249 
 675   0.0000       3.268934        88.9522 
 676   0.0000       3.286204        89.4221 
 677   0.0000       3.296524        89.7030 
 678   0.0000       3.301037        89.8258 
 679   0.0000       3.304773        89.9275 
 680   0.0000       3.313489        90.1646 
 681   0.0000       3.329487        90.5999 
 682   0.0000       3.334212        90.7285 
 683   0.0000       3.343802        90.9895 
 684   0.0000       3.354335        91.2761 
 685   0.0000       3.357473        91.3615 
 686   0.0000       3.364961        91.5652 
 687   0.0000       3.380926        91.9997 
 688   0.0000       3.387472        92.1778 
 689   0.0000       3.402191        92.5783 
 690   0.0000       3.416413        92.9653 
 691   0.0000       3.422251        93.1242 
 692   0.0000       3.425013        93.1993 
 693   0.0000       3.435708        93.4904 
 694   0.0000       3.449224        93.8582 
 695   0.0000       3.467718        94.3614 
 696   0.0000       3.472558        94.4931 
 697   0.0000       3.477791        94.6355 
 698   0.0000       3.483623        94.7942 
 699   0.0000       3.490024        94.9684 
 700   0.0000       3.494904        95.1012 
 701   0.0000       3.508943        95.4832 
 702   0.0000       3.511367        95.5492 
 703   0.0000       3.520376        95.7943 
 704   0.0000       3.524264        95.9001 
 705   0.0000       3.527485        95.9877 
 706   0.0000       3.545150        96.4684 
 707   0.0000       3.546843        96.5145 
 708   0.0000       3.554797        96.7309 
 709   0.0000       3.568146        97.0942 
 710   0.0000       3.574491        97.2668 
 711   0.0000       3.586288        97.5878 
 712   0.0000       3.589840        97.6845 
 713   0.0000       3.606246        98.1309 
 714   0.0000       3.611189        98.2654 
 715   0.0000       3.615902        98.3937 
 716   0.0000       3.627566        98.7111 
 717   0.0000       3.640318        99.0581 
 718   0.0000       3.647482        99.2530 
 719   0.0000       3.660372        99.6038 
 720   0.0000       3.664876        99.7263 
 721   0.0000       3.675996       100.0289 
 722   0.0000       3.692961       100.4906 
 723   0.0000       3.695893       100.5704 
 724   0.0000       3.705406       100.8292 
 725   0.0000       3.714775       101.0842 
 726   0.0000       3.719289       101.2070 
 727   0.0000       3.723958       101.3341 
 728   0.0000       3.730175       101.5032 
 729   0.0000       3.738587       101.7321 
 730   0.0000       3.748688       102.0070 
 731   0.0000       3.759101       102.2903 
 732   0.0000       3.761253       102.3489 
 733   0.0000       3.770815       102.6091 
 734   0.0000       3.778985       102.8314 
 735   0.0000       3.780018       102.8595 
 736   0.0000       3.786896       103.0467 
 737   0.0000       3.796359       103.3042 
 738   0.0000       3.799868       103.3997 
 739   0.0000       3.802463       103.4703 
 740   0.0000       3.816872       103.8624 
 741   0.0000       3.827763       104.1587 
 742   0.0000       3.830005       104.2197 
 743   0.0000       3.842751       104.5666 
 744   0.0000       3.846647       104.6726 
 745   0.0000       3.854403       104.8836 
 746   0.0000       3.856991       104.9540 
 747   0.0000       3.864187       105.1499 
 748   0.0000       3.873800       105.4115 
 749   0.0000       3.878215       105.5316 
 750   0.0000       3.886297       105.7515 
 751   0.0000       3.903983       106.2328 
 752   0.0000       3.904779       106.2544 
 753   0.0000       3.909224       106.3754 
 754   0.0000       3.921625       106.7128 
 755   0.0000       3.928155       106.8905 
 756   0.0000       3.940928       107.2381 
 757   0.0000       3.944680       107.3402 
 758   0.0000       3.952854       107.5626 
 759   0.0000       3.956638       107.6656 
 760   0.0000       3.966126       107.9238 
 761   0.0000       3.967594       107.9637 
 762   0.0000       3.982123       108.3591 
 763   0.0000       3.984147       108.4141 
 764   0.0000       3.997899       108.7884 
 765   0.0000       4.002806       108.9219 
 766   0.0000       4.006734       109.0288 
 767   0.0000       4.009215       109.0963 
 768   0.0000       4.013872       109.2230 
 769   0.0000       4.023517       109.4855 
 770   0.0000       4.034533       109.7852 
 771   0.0000       4.042017       109.9889 
 772   0.0000       4.045949       110.0959 
 773   0.0000       4.054766       110.3358 
 774   0.0000       4.075358       110.8961 
 775   0.0000       4.077744       110.9611 
 776   0.0000       4.081291       111.0576 
 777   0.0000       4.092081       111.3512 
 778   0.0000       4.096354       111.4675 
 779   0.0000       4.098285       111.5200 
 780   0.0000       4.107132       111.7607 
 781   0.0000       4.115469       111.9876 
 782   0.0000       4.120541       112.1256 
 783   0.0000       4.136295       112.5543 
 784   0.0000       4.140648       112.6728 
 785   0.0000       4.151601       112.9708 
 786   0.0000       4.157938       113.1433 
 787   0.0000       4.171314       113.5072 
 788   0.0000       4.180544       113.7584 
 789   0.0000       4.184560       113.8677 
 790   0.0000       4.190174       114.0204 
 791   0.0000       4.198612       114.2500 
 792   0.0000       4.213152       114.6457 
 793   0.0000       4.216405       114.7342 
 794   0.0000       4.221105       114.8621 
 795   0.0000       4.226813       115.0174 
 796   0.0000       4.245959       115.5384 
 797   0.0000       4.251661       115.6936 
 798   0.0000       4.268900       116.1627 
 799   0.0000       4.273784       116.2956 
 800   0.0000       4.276706       116.3751 
 801   0.0000       4.290555       116.7519 
 802   0.0000       4.301918       117.0611 
 803   0.0000       4.304936       117.1433 
 804   0.0000       4.311173       117.3130 
 805   0.0000       4.319543       117.5407 
 806   0.0000       4.323345       117.6442 
 807   0.0000       4.331440       117.8645 
 808   0.0000       4.347991       118.3149 
 809   0.0000       4.357188       118.5651 
 810   0.0000       4.361478       118.6818 
 811   0.0000       4.373834       119.0181 
 812   0.0000       4.385619       119.3388 
 813   0.0000       4.393200       119.5450 
 814   0.0000       4.410675       120.0206 
 815   0.0000       4.415642       120.1557 
 816   0.0000       4.428414       120.5033 
 817   0.0000       4.436754       120.7302 
 818   0.0000       4.444626       120.9444 
 819   0.0000       4.454547       121.2144 
 820   0.0000       4.461074       121.3920 
 821   0.0000       4.478464       121.8652 
 822   0.0000       4.485474       122.0560 
 823   0.0000       4.490051       122.1805 
 824   0.0000       4.506395       122.6252 
 825   0.0000       4.518884       122.9651 
 826   0.0000       4.519983       122.9950 
 827   0.0000       4.532039       123.3230 
 828   0.0000       4.547197       123.7355 
 829   0.0000       4.553986       123.9203 
 830   0.0000       4.559847       124.0797 
 831   0.0000       4.568662       124.3196 
 832   0.0000       4.583774       124.7308 
 833   0.0000       4.593333       124.9909 
 834   0.0000       4.599270       125.1525 
 835   0.0000       4.600861       125.1958 
 836   0.0000       4.616300       125.6159 
 837   0.0000       4.635992       126.1518 
 838   0.0000       4.641448       126.3002 
 839   0.0000       4.650074       126.5349 
 840   0.0000       4.673473       127.1717 
 841   0.0000       4.688180       127.5719 
 842   0.0000       4.693401       127.7139 
 843   0.0000       4.707878       128.1079 
 844   0.0000       4.719590       128.4266 
 845   0.0000       4.731392       128.7477 
 846   0.0000       4.736773       128.8942 
 847   0.0000       4.745275       129.1255 
 848   0.0000       4.753114       129.3388 
 849   0.0000       4.770948       129.8241 
 850   0.0000       4.777029       129.9896 
 851   0.0000       4.783090       130.1545 
 852   0.0000       4.792800       130.4187 
 853   0.0000       4.799551       130.6024 
 854   0.0000       4.810778       130.9079 
 855   0.0000       4.827533       131.3639 
 856   0.0000       4.837987       131.6483 
 857   0.0000       4.843419       131.7961 
 858   0.0000       4.864523       132.3704 
 859   0.0000       4.877577       132.7256 
 860   0.0000       4.886820       132.9771 
 861   0.0000       4.893292       133.1532 
 862   0.0000       4.905758       133.4925 
 863   0.0000       4.919487       133.8661 
 864   0.0000       4.941283       134.4592 
 865   0.0000       4.953484       134.7911 
 866   0.0000       4.963219       135.0561 
 867   0.0000       4.972051       135.2964 
 868   0.0000       4.979954       135.5114 
 869   0.0000       4.986125       135.6793 
 870   0.0000       4.988613       135.7470 
 871   0.0000       5.007548       136.2623 
 872   0.0000       5.030159       136.8776 
 873   0.0000       5.037939       137.0893 
 874   0.0000       5.047674       137.3542 
 875   0.0000       5.054268       137.5336 
 876   0.0000       5.066194       137.8582 
 877   0.0000       5.077505       138.1659 
 878   0.0000       5.094406       138.6258 
 879   0.0000       5.108414       139.0070 
 880   0.0000       5.111181       139.0823 
 881   0.0000       5.117570       139.2562 
 882   0.0000       5.136387       139.7682 
 883   0.0000       5.149900       140.1359 
 884   0.0000       5.155257       140.2817 
 885   0.0000       5.172749       140.7577 
 886   0.0000       5.188274       141.1801 
 887   0.0000       5.198849       141.4679 
 888   0.0000       5.206682       141.6810 
 889   0.0000       5.217359       141.9716 
 890   0.0000       5.233549       142.4121 
 891   0.0000       5.246622       142.7679 
 892   0.0000       5.252408       142.9253 
 893   0.0000       5.262332       143.1953 
 894   0.0000       5.269668       143.3950 
 895   0.0000       5.291447       143.9876 
 896   0.0000       5.293791       144.0514 
 897   0.0000       5.320772       144.7856 
 898   0.0000       5.339858       145.3049 
 899   0.0000       5.358741       145.8188 
 900   0.0000       5.370065       146.1269 
 901   0.0000       5.379677       146.3885 
 902   0.0000       5.389764       146.6629 
 903   0.0000       5.399672       146.9326 
 904   0.0000       5.400008       146.9417 
 905   0.0000       5.407254       147.1389 
 906   0.0000       5.427892       147.7005 
 907   0.0000       5.442291       148.0923 
 908   0.0000       5.446750       148.2136 
 909   0.0000       5.466666       148.7555 
 910   0.0000       5.483506       149.2138 
 911   0.0000       5.487387       149.3194 
 912   0.0000       5.497304       149.5893 
 913   0.0000       5.521947       150.2598 
 914   0.0000       5.536360       150.6520 
 915   0.0000       5.542709       150.8248 
 916   0.0000       5.550347       151.0326 
 917   0.0000       5.566681       151.4771 
 918   0.0000       5.588439       152.0692 
 919   0.0000       5.590353       152.1212 
 920   0.0000       5.599330       152.3655 
 921   0.0000       5.621816       152.9774 
 922   0.0000       5.631337       153.2365 
 923   0.0000       5.643781       153.5751 
 924   0.0000       5.645942       153.6339 
 925   0.0000       5.652859       153.8221 
 926   0.0000       5.667895       154.2313 
 927   0.0000       5.677771       154.5000 
 928   0.0000       5.685563       154.7120 
 929   0.0000       5.702494       155.1727 
 930   0.0000       5.712208       155.4371 
 931   0.0000       5.732713       155.9951 
 932   0.0000       5.733901       156.0274 
 933   0.0000       5.739043       156.1673 
 934   0.0000       5.753288       156.5549 
 935   0.0000       5.776968       157.1993 
 936   0.0000       5.789560       157.5419 
 937   0.0000       5.796025       157.7179 
 938   0.0000       5.816644       158.2789 
 939   0.0000       5.831415       158.6809 
 940   0.0000       5.850886       159.2107 
 941   0.0000       5.871782       159.7793 
 942   0.0000       5.889645       160.2654 
 943   0.0000       5.898365       160.5027 
 944   0.0000       5.938510       161.5951 
 945   0.0000       5.966409       162.3543 
 946   0.0000       6.042605       164.4276 
 947   0.0000       6.057393       164.8300 
 948   0.0000       6.081191       165.4776 
 949   0.0000       6.122395       166.5988 
 950   0.0000       6.140210       167.0836 
 951   0.0000       6.151806       167.3991 
 952   0.0000       6.188475       168.3970 
 953   0.0000       6.189845       168.4342 
 954   0.0000       6.217286       169.1809 
 955   0.0000       6.227028       169.4460 
 956   0.0000       6.247758       170.0101 
 957   0.0000       6.259861       170.3395 
 958   0.0000       6.262236       170.4041 
 959   0.0000       6.294519       171.2826 
 960   0.0000       6.308611       171.6660 
 961   0.0000       6.316815       171.8893 
 962   0.0000       6.328756       172.2142 
 963   0.0000       6.352851       172.8699 
 964   0.0000       6.357830       173.0054 
 965   0.0000       6.364138       173.1770 
 966   0.0000       6.391003       173.9080 
 967   0.0000       6.407670       174.3616 
 968   0.0000       6.473208       176.1449 
 969   0.0000       6.507644       177.0820 
 970   0.0000       6.551732       178.2817 
 971   0.0000       6.652978       181.0367 
 972   0.0000       6.816125       185.4762 
 973   0.0000       6.847396       186.3271 
 974   0.0000       6.873467       187.0366 
 975   0.0000       6.898976       187.7307 
 976   0.0000       6.921324       188.3388 
 977   0.0000       6.937680       188.7839 
 978   0.0000       6.961583       189.4343 
 979   0.0000       6.980524       189.9497 
 980   0.0000       7.011294       190.7870 
 981   0.0000       7.026661       191.2052 
 982   0.0000       7.035395       191.4428 
 983   0.0000       7.052942       191.9203 
 984   0.0000       7.109752       193.4662 
 985   0.0000       7.154038       194.6713 
 986   0.0000       7.274186       197.9407 
 987   0.0000       7.338453       199.6895 
 988   0.0000       7.362058       200.3318 
 989   0.0000       7.449563       202.7129 
 990   0.0000       7.541572       205.2166 
 991   0.0000       7.585778       206.4195 
 992   0.0000       7.632339       207.6865 
 993   0.0000       7.712835       209.8769 
 994   0.0000       7.764457       211.2816 
 995   0.0000       7.899318       214.9514 
 996   0.0000       7.967637       216.8104 
 997   0.0000       8.089973       220.1393 
 998   0.0000       8.283369       225.4019 
 999   0.0000       9.425263       256.4744 
 1000   0.0000       9.436739       256.7867 
 1001   0.0000       9.443322       256.9658 
 1002   0.0000       9.458074       257.3673 
 1003   0.0000       9.466781       257.6042 
 1004   0.0000       9.493297       258.3258 
 1005   0.0000       9.698885       263.9201 
 1006   0.0000      10.095304       274.7072 
 1007   0.0000      10.103043       274.9178 
 1008   0.0000      10.127454       275.5820 
 1009   0.0000      10.213036       277.9108 
 1010   0.0000      10.217908       278.0434 
 1011   0.0000      10.252380       278.9814 
 1012   0.0000      10.370957       282.2081 
 1013   0.0000      10.401587       283.0416 
 1014   0.0000      10.510670       286.0099 
 1015   0.0000      14.856487       404.2656 
 1016   0.0000      17.200457       468.0482 
 1017   0.0000      18.076799       491.8947 
 1018   0.0000      18.377187       500.0687 
 1019   0.0000      18.568432       505.2727 
 1020   0.0000      18.881155       513.7824 
 1021   0.0000      19.001185       517.0485 
 1022   0.0000      19.938391       542.5512 
 1023   0.0000      20.671422       562.4980 
 1024   0.0000      21.759191       592.0977 

                 SPIN DOWN ORBITALS
  NO   OCC          E(Eh)            E(eV) 
   0   1.0000    -261.557635     -7117.3451 
   1   1.0000    -104.780775     -2851.2298 
   2   1.0000    -104.778401     -2851.1652 
   3   1.0000    -104.777193     -2851.1324 
   4   1.0000     -32.066955      -872.5862 
   5   1.0000     -27.544907      -749.5350 
   6   1.0000     -27.544841      -749.5332 
   7   1.0000     -27.544587      -749.5263 
   8   1.0000     -20.583719      -560.1115 
   9   1.0000     -11.406388      -310.3836 
  10   1.0000     -11.317333      -307.9603 
  11   1.0000     -11.271068      -306.7013 
  12   1.0000     -11.266627      -306.5805 
  13   1.0000     -11.265762      -306.5570 
  14   1.0000     -11.261921      -306.4525 
  15   1.0000     -11.251954      -306.1812 
  16   1.0000     -11.243512      -305.9515 
  17   1.0000     -10.507334      -285.9191 
  18   1.0000     -10.504936      -285.8538 
  19   1.0000     -10.503695      -285.8201 
  20   1.0000      -7.973237      -216.9628 
  21   1.0000      -7.972563      -216.9445 
  22   1.0000      -7.972506      -216.9429 
  23   1.0000      -7.970834      -216.8974 
  24   1.0000      -7.970182      -216.8797 
  25   1.0000      -7.970084      -216.8770 
  26   1.0000      -7.969672      -216.8658 
  27   1.0000      -7.968883      -216.8443 
  28   1.0000      -7.968787      -216.8417 
  29   1.0000      -4.141902      -112.7069 
  30   1.0000      -2.663549       -72.4788 
  31   1.0000      -2.663474       -72.4768 
  32   1.0000      -2.662975       -72.4632 
  33   1.0000      -1.419702       -38.6320 
  34   1.0000      -1.157496       -31.4971 
  35   1.0000      -1.084639       -29.5145 
  36   1.0000      -1.039861       -28.2961 
  37   1.0000      -1.035472       -28.1766 
  38   1.0000      -1.026990       -27.9458 
  39   1.0000      -1.025047       -27.8930 
  40   1.0000      -0.994883       -27.0722 
  41   1.0000      -0.986503       -26.8441 
  42   1.0000      -0.913761       -24.8647 
  43   1.0000      -0.813481       -22.1360 
  44   1.0000      -0.754682       -20.5359 
  45   1.0000      -0.696047       -18.9404 
  46   1.0000      -0.683045       -18.5866 
  47   1.0000      -0.680942       -18.5294 
  48   1.0000      -0.675824       -18.3901 
  49   1.0000      -0.644003       -17.5242 
  50   1.0000      -0.622828       -16.9480 
  51   1.0000      -0.604189       -16.4408 
  52   1.0000      -0.596202       -16.2235 
  53   1.0000      -0.581386       -15.8203 
  54   1.0000      -0.578910       -15.7530 
  55   1.0000      -0.569587       -15.4992 
  56   1.0000      -0.561944       -15.2913 
  57   1.0000      -0.559650       -15.2289 
  58   1.0000      -0.542079       -14.7507 
  59   1.0000      -0.535037       -14.5591 
  60   1.0000      -0.517823       -14.0907 
  61   1.0000      -0.510923       -13.9029 
  62   1.0000      -0.485536       -13.2121 
  63   1.0000      -0.472833       -12.8664 
  64   1.0000      -0.471339       -12.8258 
  65   1.0000      -0.443469       -12.0674 
  66   1.0000      -0.440161       -11.9774 
  67   1.0000      -0.438018       -11.9191 
  68   1.0000      -0.423691       -11.5292 
  69   1.0000      -0.418258       -11.3814 
  70   1.0000      -0.403289       -10.9741 
  71   1.0000      -0.376418       -10.2429 
  72   0.0000       0.009546         0.2598 
  73   0.0000       0.020810         0.5663 
  74   0.0000       0.021738         0.5915 
  75   0.0000       0.027461         0.7472 
  76   0.0000       0.034585         0.9411 
  77   0.0000       0.039524         1.0755 
  78   0.0000       0.040890         1.1127 
  79   0.0000       0.042858         1.1662 
  80   0.0000       0.044957         1.2233 
  81   0.0000       0.045922         1.2496 
  82   0.0000       0.057048         1.5523 
  83   0.0000       0.057406         1.5621 
  84   0.0000       0.060589         1.6487 
  85   0.0000       0.063676         1.7327 
  86   0.0000       0.065285         1.7765 
  87   0.0000       0.073176         1.9912 
  88   0.0000       0.075461         2.0534 
  89   0.0000       0.083534         2.2731 
  90   0.0000       0.087697         2.3864 
  91   0.0000       0.090315         2.4576 
  92   0.0000       0.092276         2.5109 
  93   0.0000       0.097123         2.6428 
  94   0.0000       0.099195         2.6992 
  95   0.0000       0.104301         2.8382 
  96   0.0000       0.104837         2.8528 
  97   0.0000       0.114211         3.1078 
  98   0.0000       0.115056         3.1308 
  99   0.0000       0.117255         3.1907 
 100   0.0000       0.117563         3.1991 
 101   0.0000       0.120507         3.2792 
 102   0.0000       0.122152         3.3239 
 103   0.0000       0.123576         3.3627 
 104   0.0000       0.125623         3.4184 
 105   0.0000       0.126184         3.4337 
 106   0.0000       0.128109         3.4860 
 107   0.0000       0.132435         3.6037 
 108   0.0000       0.134342         3.6556 
 109   0.0000       0.136937         3.7262 
 110   0.0000       0.140397         3.8204 
 111   0.0000       0.143656         3.9091 
 112   0.0000       0.146086         3.9752 
 113   0.0000       0.150326         4.0906 
 114   0.0000       0.151505         4.1227 
 115   0.0000       0.155078         4.2199 
 116   0.0000       0.158438         4.3113 
 117   0.0000       0.161455         4.3934 
 118   0.0000       0.161799         4.4028 
 119   0.0000       0.164846         4.4857 
 120   0.0000       0.166464         4.5297 
 121   0.0000       0.169425         4.6103 
 122   0.0000       0.174955         4.7608 
 123   0.0000       0.178537         4.8582 
 124   0.0000       0.180397         4.9088 
 125   0.0000       0.181796         4.9469 
 126   0.0000       0.188532         5.1302 
 127   0.0000       0.190857         5.1935 
 128   0.0000       0.191934         5.2228 
 129   0.0000       0.199006         5.4152 
 130   0.0000       0.201831         5.4921 
 131   0.0000       0.206193         5.6108 
 132   0.0000       0.209685         5.7058 
 133   0.0000       0.214883         5.8473 
 134   0.0000       0.216120         5.8809 
 135   0.0000       0.219692         5.9781 
 136   0.0000       0.224149         6.0994 
 137   0.0000       0.225748         6.1429 
 138   0.0000       0.228123         6.2075 
 139   0.0000       0.230093         6.2611 
 140   0.0000       0.232813         6.3352 
 141   0.0000       0.238322         6.4851 
 142   0.0000       0.241185         6.5630 
 143   0.0000       0.246422         6.7055 
 144   0.0000       0.250042         6.8040 
 145   0.0000       0.255800         6.9607 
 146   0.0000       0.258220         7.0265 
 147   0.0000       0.262081         7.1316 
 148   0.0000       0.262949         7.1552 
 149   0.0000       0.267200         7.2709 
 150   0.0000       0.272554         7.4166 
 151   0.0000       0.279451         7.6042 
 152   0.0000       0.281649         7.6640 
 153   0.0000       0.288277         7.8444 
 154   0.0000       0.291099         7.9212 
 155   0.0000       0.295765         8.0482 
 156   0.0000       0.298134         8.1126 
 157   0.0000       0.299838         8.1590 
 158   0.0000       0.302972         8.2443 
 159   0.0000       0.307856         8.3772 
 160   0.0000       0.311931         8.4881 
 161   0.0000       0.314826         8.5668 
 162   0.0000       0.319876         8.7043 
 163   0.0000       0.324656         8.8344 
 164   0.0000       0.327094         8.9007 
 165   0.0000       0.331666         9.0251 
 166   0.0000       0.335943         9.1415 
 167   0.0000       0.337979         9.1969 
 168   0.0000       0.340234         9.2582 
 169   0.0000       0.344167         9.3653 
 170   0.0000       0.346625         9.4322 
 171   0.0000       0.352296         9.5865 
 172   0.0000       0.355833         9.6827 
 173   0.0000       0.356768         9.7082 
 174   0.0000       0.361936         9.8488 
 175   0.0000       0.363348         9.8872 
 176   0.0000       0.369943        10.0667 
 177   0.0000       0.371312        10.1039 
 178   0.0000       0.373125        10.1532 
 179   0.0000       0.377009        10.2589 
 180   0.0000       0.381542        10.3823 
 181   0.0000       0.387457        10.5432 
 182   0.0000       0.389011        10.5855 
 183   0.0000       0.391413        10.6509 
 184   0.0000       0.394654        10.7391 
 185   0.0000       0.401207        10.9174 
 186   0.0000       0.401624        10.9288 
 187   0.0000       0.405319        11.0293 
 188   0.0000       0.406003        11.0479 
 189   0.0000       0.408190        11.1074 
 190   0.0000       0.414202        11.2710 
 191   0.0000       0.417472        11.3600 
 192   0.0000       0.419950        11.4274 
 193   0.0000       0.425301        11.5730 
 194   0.0000       0.430608        11.7174 
 195   0.0000       0.433788        11.8040 
 196   0.0000       0.435449        11.8492 
 197   0.0000       0.439170        11.9504 
 198   0.0000       0.444242        12.0884 
 199   0.0000       0.448260        12.1978 
 200   0.0000       0.451706        12.2915 
 201   0.0000       0.456384        12.4188 
 202   0.0000       0.456550        12.4234 
 203   0.0000       0.462979        12.5983 
 204   0.0000       0.466032        12.6814 
 205   0.0000       0.468636        12.7522 
 206   0.0000       0.470553        12.8044 
 207   0.0000       0.477055        12.9813 
 208   0.0000       0.478665        13.0251 
 209   0.0000       0.484708        13.1896 
 210   0.0000       0.487575        13.2676 
 211   0.0000       0.491682        13.3794 
 212   0.0000       0.494667        13.4606 
 213   0.0000       0.496655        13.5147 
 214   0.0000       0.501899        13.6574 
 215   0.0000       0.503431        13.6991 
 216   0.0000       0.504661        13.7325 
 217   0.0000       0.510052        13.8792 
 218   0.0000       0.511777        13.9262 
 219   0.0000       0.512719        13.9518 
 220   0.0000       0.515451        14.0261 
 221   0.0000       0.519827        14.1452 
 222   0.0000       0.527165        14.3449 
 223   0.0000       0.529135        14.3985 
 224   0.0000       0.530831        14.4447 
 225   0.0000       0.532829        14.4990 
 226   0.0000       0.535191        14.5633 
 227   0.0000       0.541134        14.7250 
 228   0.0000       0.542820        14.7709 
 229   0.0000       0.546397        14.8682 
 230   0.0000       0.548692        14.9307 
 231   0.0000       0.550678        14.9847 
 232   0.0000       0.556047        15.1308 
 233   0.0000       0.557965        15.1830 
 234   0.0000       0.561581        15.2814 
 235   0.0000       0.565553        15.3895 
 236   0.0000       0.571655        15.5555 
 237   0.0000       0.575126        15.6500 
 238   0.0000       0.579377        15.7657 
 239   0.0000       0.579941        15.7810 
 240   0.0000       0.583493        15.8776 
 241   0.0000       0.584650        15.9091 
 242   0.0000       0.588944        16.0260 
 243   0.0000       0.590674        16.0731 
 244   0.0000       0.598400        16.2833 
 245   0.0000       0.602183        16.3862 
 246   0.0000       0.608137        16.5482 
 247   0.0000       0.610136        16.6026 
 248   0.0000       0.613210        16.6863 
 249   0.0000       0.617472        16.8023 
 250   0.0000       0.619357        16.8535 
 251   0.0000       0.623320        16.9614 
 252   0.0000       0.626556        17.0495 
 253   0.0000       0.630659        17.1611 
 254   0.0000       0.636149        17.3105 
 255   0.0000       0.637376        17.3439 
 256   0.0000       0.647232        17.6121 
 257   0.0000       0.652469        17.7546 
 258   0.0000       0.655034        17.8244 
 259   0.0000       0.659199        17.9377 
 260   0.0000       0.663131        18.0447 
 261   0.0000       0.669111        18.2074 
 262   0.0000       0.673300        18.3214 
 263   0.0000       0.674684        18.3591 
 264   0.0000       0.679702        18.4956 
 265   0.0000       0.682071        18.5601 
 266   0.0000       0.689115        18.7518 
 267   0.0000       0.691219        18.8090 
 268   0.0000       0.698755        19.0141 
 269   0.0000       0.700766        19.0688 
 270   0.0000       0.706054        19.2127 
 271   0.0000       0.709650        19.3106 
 272   0.0000       0.716534        19.4979 
 273   0.0000       0.721986        19.6462 
 274   0.0000       0.724039        19.7021 
 275   0.0000       0.727119        19.7859 
 276   0.0000       0.732240        19.9253 
 277   0.0000       0.736349        20.0371 
 278   0.0000       0.738357        20.0917 
 279   0.0000       0.740054        20.1379 
 280   0.0000       0.747285        20.3347 
 281   0.0000       0.753810        20.5122 
 282   0.0000       0.759474        20.6663 
 283   0.0000       0.763577        20.7780 
 284   0.0000       0.774300        21.0698 
 285   0.0000       0.781667        21.2702 
 286   0.0000       0.784757        21.3543 
[...]
  | sigma^2 in % of trace(Dij) retained ...   9.17e+00
  | sigma^2 in % of trace(Dip) retained ...   1.79e+01
  | sigma^2 in % of trace(Dpq) retained ...   1.37e-01
  | Av. % of trace(Di) retained         ...  99.998540739883
  | Av. % of trace(Dp) retained         ...  99.999999087091
  | sigma^2 in % of trace(Di) retained  ...   7.14e-07
  | sigma^2 in % of trace(Dp) retained  ...   6.40e-13
 Distributions of % trace(Dij) recovered:
  |       >= 99.9  ...   105 ( 21.4 % of all IJ-pairs)
  |   [80.0, 90.0) ...    31 (  6.3 % of all IJ-pairs)
  |   [90.0, 99.0) ...   260 ( 53.0 % of all IJ-pairs)
  |   [99.0, 99.9) ...    95 ( 19.3 % of all IJ-pairs)
 Distributions of % trace(Dip) recovered:
  |   [80.0, 90.0) ...    16 ( 13.7 % of all IP-pairs)
  |   [90.0, 99.0) ...    58 ( 49.6 % of all IP-pairs)
  |   [99.0, 99.9) ...    43 ( 36.8 % of all IP-pairs)
 Distributions of % trace(Dpq) recovered:
  |       >= 99.9  ...     5 ( 33.3 % of all PQ-pairs)
  |   [99.0, 99.9) ...    10 ( 66.7 % of all PQ-pairs)
 Distributions of % trace(Di) recovered :
  |       >= 99.9  ...    43 (100.0 % of all I-pairs )
 Distributions of % trace(Dp) recovered :
  |       >= 99.9  ...     5 (100.0 % of all P-pairs )

                       ===========================
                       1081 OF 1653 PAIRS ARE KEPT
                       ===========================

 Initial PAO correlation energy (all pairs)    ...  -2.6954311969 Eh
 Energy constituents in PAO basis (Eh):
  | Vijab(+0) ...  -2.2675156208
  | Viab (-1) ...  -0.1745426917
  | Vab  (-2) ...  -0.0573527189
  | Va   (-1) ...  -0.0000452307
  | Vija (+1) ...  -0.0718938130
  | Vij  (+2) ...  -0.0155202240
  | Via  (+0) ...  -0.1083993318
  | Vi   (+1) ...  -0.0001615661
 Initial PNO correlation energy                ...  -2.6613755229 Eh
 Energy constituents in PNO basis (Eh):
  | Vijab(+0) ...  -2.2491653450 (err=  0.0183502758)
  | Viab (-1) ...  -0.1604249365 (err=  0.0141177552)
  | Vab  (-2) ...  -0.0568988884 (err=  0.0004538305)
  | Va   (-1) ...  -0.0000258774 (err=  0.0000193533)
  | Vija (+1) ...  -0.0709248091 (err=  0.0009690039)
  | Vij  (+2) ...  -0.0154708598 (err=  0.0000493642)
  | Via  (+0) ...  -0.1083036778 (err=  0.0000956540)
  | Vi   (+1) ...  -0.0001611290 (err=  0.0000004371)
 Sum of total truncation errors ...   0.0340556740 Eh
  | Pair screening ...   0.0111395100 Eh
  | PNO truncation ...   0.0229161640 Eh

 UMP2 correlation energy (PAO) ...  -2.6904855066
  | alpha-alpha ...  -0.3869089670 (NP_aa=  889)
  | alpha-beta  ...  -1.9962584380 (NP_ab= 1628)
  | beta -beta  ...  -0.3073181016 (NP_bb=  706)
 UMP2 correlation energy (PNO) ...  -2.6560469063
  | alpha-alpha ...  -0.3749601238 (err=  0.0119488432, NP_aa=  575)
  | alpha-beta  ...  -1.9777363448 (err=  0.0185220932, NP_ab= 1056)
  | beta -beta  ...  -0.3033504376 (err=  0.0039676640, NP_bb=  448)
 Sum of total UMP2 truncation errors ...   0.0344386003 Eh
  | Pair screening ...   0.0111543709 Eh
  | PNO truncation ...   0.0232842294 Eh
 Timing for NEV-PNO construction (sec.)
  | Intermediate construction  ..           46.671
  | Amplitude construction     ..           70.033
  | Total time                 ..          116.705
 Making pair pair interaction lists ...      ok
 Total size for 2-ext PNO integrals ...     10.8 MB
Checking the number of SOMO/SOMO doubles PNOs ... 
 #Truncate: (72, 72)[157] -> [86] .. 
 #Truncate: (73, 73)[160] -> [86] .. 
 #Truncate: (74, 74)[158] -> [86] .. 
 #Truncate: (75, 75)[160] -> [86] .. 
 #Truncate: (76, 76)[157] -> [86] .. 

--------------------------------
LOCAL RI TRANSFORMATION (VABPAO)
--------------------------------

Number of PAOs:    1030
Basis functions:   1025 (343 shells)
Aux. functions:    2424 (644 shells)

Processing maps (0.0 sec)
Average map sizes:
   Aux shells -> PAOs           1030.0
   PAOs       -> AO shells       343.0

Calculating integrals (203.6 sec, 37370.165 MB)
Finished
-----------------------------
LOCAL RI TRANSFORMATION (IJV)
-----------------------------

Orbital window:      29 to 76
Basis functions:   1025 (343 shells)
Aux. functions:    2424 (644 shells)

Processing maps (0.0 sec)
Average map sizes:
   Aux shells -> MOs(i)           45.4
   Aux shells -> MOs(j)           48.0
   MOs        -> AO shells       339.8

Calculating integrals (23.0 sec, 40.455 MB)
Sorting integrals (1.6 sec, 40.428 MB)
Total time for the integral transformation: 24.7 sec


-------------------------------------
Pair Pair Term precalculation with     
RI-(ij|mn) and (im|jn) transformation  
ON THE FLY                             
-------------------------------------

   IBatch   1 (of   2)              ... done ( 1171.090 sec)
   IBatch   2 (of   2)              ... done ( 1155.750 sec)
Total EXT                           ...        2326.841 sec

---------------------
RI-PNO TRANSFORMATION
---------------------

Total Number of PNOs                   ... 34189
Total Number of IJ-PNOs                ... 30032
Total Number of IP-PNOs                ...  3199
Total Number of PQ-PNOs                ...   958
Total Number of IJ-pairs               ...   939
Total Number of PI-pairs               ...   117
Total Number of PQ-pairs               ...    25
Average number of PNOs per pair        ...    31
Maximal number of PNOs per pair        ...    86
>> Statistics for ij-pairs..
   #pairs with  1 -  5 PNOs   :    0
   #pairs with  6 - 10 PNOs   :    0
   #pairs with 11 - 15 PNOs   :   64
   #pairs with 16 - 20 PNOs   :  202
   #pairs with 21 - 25 PNOs   :  148
   #pairs with 26 - 30 PNOs   :  164
   #pairs with 31 - 35 PNOs   :   64
   #pairs with 36 - 40 PNOs   :   48
   #pairs with 41 - 45 PNOs   :   54
   #pairs with 46 - 50 PNOs   :   24
   #pairs with 51 - 55 PNOs   :   34
   #pairs with 56 - 60 PNOs   :   56
   #pairs with 61 - 65 PNOs   :   72
   #pairs with 66 - 70 PNOs   :    6
   #pairs with 76 - 80 PNOs   :    1
   #pairs with 81 - 85 PNOs   :    2
>> Statistics for ip-pairs..
   #pairs with  1 -  5 PNOs   :    0
   #pairs with  6 - 10 PNOs   :    1
   #pairs with 11 - 15 PNOs   :   15
   #pairs with 16 - 20 PNOs   :    5
   #pairs with 21 - 25 PNOs   :   27
   #pairs with 26 - 30 PNOs   :   11
   #pairs with 31 - 35 PNOs   :   45
   #pairs with 36 - 40 PNOs   :   13
   #pairs with 41 - 45 PNOs   :    0
   #pairs with 46 - 50 PNOs   :    0
>> Statistics for pq-pairs..
   #pairs with  1 -  5 PNOs   :    0
   #pairs with  6 - 10 PNOs   :    0
   #pairs with 11 - 15 PNOs   :    0
   #pairs with 16 - 20 PNOs   :    0
   #pairs with 21 - 25 PNOs   :   10
   #pairs with 26 - 30 PNOs   :   10
   #pairs with 31 - 35 PNOs   :    0
   #pairs with 36 - 40 PNOs   :    0
   #pairs with 41 - 45 PNOs   :    0
   #pairs with 46 - 50 PNOs   :    0
   #pairs with 86 - 90 PNOs   :    5

Generation of (ij|ab)[P] integrals            ... on
Generation of (ia|bc)[P],(ja|bc)[P] integrals ... on
Storage of 3 and 4 external integrals         ... on
Generation of ALL (ka|bc)[P] integrals        ... on
Keep RI integrals in memory                   ... off

Ibatch:  1 (of  1)
Starting 2-4 index PNO integral generation ... done

Timings:
Total PNO integral transformation time     ...       2288.829 sec
Size of the 3-external file                ...       290 MB
Size of the 4-external file                ...      1984 MB
Size of the IKJL file                      ...        17 MB
Size of the all 3-external file            ...      6971 MB
Size of the 1-external file                ...        22 MB

Size of the PAO/PNO coefficient matrices   ...     218.4 MB

Making pair/pair overlap matrices          ... done (  354.946 sec)
Size of the pair overlap file              ...    2401.0 MB
Total # unrestricted pairs ...       2079
  # of alpha-alpha pairs   ...        575
  # of alpha-beta pairs    ...       1056
  # of beta-beta pairs     ...        448
Constructing the guess amplitudes          ... done (    0.697 sec)

-------------------------
FINAL STARTUP INFORMATION
-------------------------

E(0)                                       ...  -3028.438245284
E(SL-UMP2 in NEV-PNO space)                ...     -2.691474672
Initial E(tot)                             ...  -3031.129719956
<T|T>                                      ...      0.537315319
Number of unrestricted pairs included      ... 2079
Total number of pairs                      ... 4095
----------------------------------------------------------
                     OPEN-SHELL COUPLED CLUSTER ITERATIONS
----------------------------------------------------------

Number of PNO amplitudes to be optimized        ...          2127079
Number of canonical amplitudes for strong pairs ...       1877755779
Untruncated number of canonical amplitudes      ...       3698645738

Iter       E(tot)           E(Corr)          Delta-E          Residual     Time
  0  -3031.136848667     -2.663175617      0.028299055      0.020949348 1940.30
                           *** Turning on DIIS ***
  1  -3031.247662626     -2.773989576     -0.110813959      0.010263130 1943.19
  2  -3031.312333250     -2.838660201     -0.064670625      0.008366870 1949.63
  3  -3031.333681947     -2.860008898     -0.021348697      0.002938997 1940.46
  4  -3031.340964622     -2.867291572     -0.007282674      0.002664409 1938.33
  5  -3031.344903091     -2.871230041     -0.003938469      0.001590511 1957.51
  6  -3031.346336594     -2.872663544     -0.001433503      0.000782518 1660.73
  7  -3031.347021746     -2.873348696     -0.000685152      0.000684075 1668.00
  8  -3031.347181863     -2.873508814     -0.000160118      0.000234401 1654.07
  9  -3031.347239990     -2.873566941     -0.000058127      0.000198086 1663.75
 10  -3031.347235634     -2.873562584      0.000004357      0.000089593 1657.24
 11  -3031.347248566     -2.873575516     -0.000012932      0.000069277 1651.72
 12  -3031.347254690     -2.873581641     -0.000006124      0.000029702 1695.92
 13  -3031.347257195     -2.873584146     -0.000002505      0.000014435 1700.98
 14  -3031.347258826     -2.873585776     -0.000001631      0.000007584 1729.06
               --- The CCSD iterations have converged ---

E(0)                                       ...  -3028.438245284
E(CORR)(strong-pairs)                      ...     -2.873585776
E(CORR)(weak-pairs)                        ...     -0.035427766
E(CORR)(corrected)                         ...     -2.909013542
E(TOT)                                     ...  -3031.347258826
Singles norm <S|S>**1/2                    ...      0.194799464 ( 0.066090095, 0.128709369)  
T1 diagnostic                              ...      0.020420532                              
<S**2>(linearized)                         ...      8.7508236 (ideal value:      8.7500000)

----------------------
LARGEST PNO AMPLITUDES
----------------------
  71a-> 77a  71b-> 77b       0.063833
  51b-> 76b  -1b-> -1b       0.054685
  50b-> 76b  -1b-> -1b       0.053572
  48b-> 72b  -1b-> -1b       0.053155
  71a-> 78a  71b-> 78b       0.050797
  44a-> 77a  -1a-> -1a       0.048035
  48b-> 75b  -1b-> -1b       0.046652
  62a-> 77a  62b-> 77b       0.045776
  48b-> 74b  -1b-> -1b       0.045757
  66a-> 77a  66b-> 77b       0.045705
  44b-> 77b  -1b-> -1b       0.045229
  44a-> 77a  44b-> 77b       0.044342
  70a-> 77a  70b-> 77b       0.043522
  55a-> 78a  55b-> 78b       0.043443
  57a-> 78a  57b-> 78b       0.043423
  37b-> 73b  -1b-> -1b       0.043056

Total # unrestricted pairs ...       1144
  # of alpha-alpha pairs   ...        314
  # of alpha-beta pairs    ...        572
  # of beta-beta pairs     ...        258

-------------------------------------------
DLPNO BASED TRIPLES CORRECTION
-------------------------------------------

Singles multiplier          ...  1.000000
Fragment selection                          .... not used
TCutTNO                     ... 1.000e-09
TCutMP2Pairs                ... 1.000e-05
TCutDOStrong                ... 2.000e-02
TCutMKNStrong               ... 1.000e-02
TCutDOWeak                  ... 4.000e-02
TCutMKNWeak                 ... 1.000e-01
NTCutTNO                    ... 1

Number of Triples that are to be computed         ...     32382

 . . . . . . . . .
10% done  
20% done  
30% done  
40% done  
50% done  
60% done  
70% done  
80% done  
90% done  
          Batch   1   done (  13694.239 sec)

Triples-Correction TCutTNO=   1.000e-09 (NWeakPairs = 0  1  2  3)  -0.118287251145   -0.001899130120    0.000000000000    0.000000000000
Triples-Correction  -0.120186381266

Triples timings:
Total time                      ... 14275.316 sec

Triples List generation         ...     0.000 sec
TNO generation                  ...   580.838 sec
Pair density generation         ...     0.088 sec
Look up tables                  ...     0.105 sec
Generating 3-index integrals    ...  8408.451 sec
Make 4-ind.int. from 3-ind.int  ...     3.335 sec
Projecting amplitudes (D + S)   ...  5021.271 sec
Sorting integrals for spin cases...    53.018 sec
Calculate W0/W1                 ...   168.737 sec
Energy contr. (sum over a,b,c)  ...    39.298 sec

Everything after 3-index        ...  5410.186 sec

Energy contribution AAA         ...    25.195 sec
Energy contribution AAB         ...   115.210 sec
Energy contribution ABB         ...   106.130 sec
Energy contribution BBB         ...    14.555 sec
prep                ...     3.021 sec
makeTTNO            ...  4969.263 sec
copyij              ...     0.128 sec
copyil              ...     4.004 sec
transposeij         ...     0.076 sec
newMatInDoubleProj  ...    49.087 sec
BlasInDoubleProj    ...  2703.786 sec
ProjSingles         ...    42.453 sec
ProjDoubles         ...  4978.817 sec
overall Doubles for projection      ... 2862635
used Doubles for projection         ... 2862635


Number of Triples   (0, 1, 2, 3 weak pairs; overall):  15927   10872       0       0  ( 26799)
Number of Atoms     (0, 1, 2, 3 weak pairs; overall):   19.1    14.6     0.0     0.0  (    29)
Number of PAOs      (0, 1, 2, 3 weak pairs; overall):  746.1   591.5     0.0     0.0  (  1025)
Number of AuxFcns   (0, 1, 2, 3 weak pairs; overall):  897.2   570.0     0.0     0.0  (  2424)
Number of TNOs (0, 1, 2, 3 weak pairs         ):   79.9    57.8     0.0     0.0
Aver. Number of NTNO, Atoms, PAOs, AuxFcns / Triples:  26799    70.9    17.3   683.3   764.5

Triples Correction (T)                     ...     -0.120186381
    alpha-alpha-alpha ... -0.003903374 (  3.2%)
    alpha-alpha-beta  ... -0.056409629 ( 46.9%)
    alpha-beta -beta  ... -0.055724536 ( 46.4%)
    beta -beta -beta  ... -0.004148842 (  3.5%)
Final correlation energy                   ...     -3.029199923
E(CCSD)                                    ...  -3031.347258826
E(CCSD(T))                                 ...  -3031.467445207

----------------------------
STATISTICS FOR PAIR-ENERGIES
----------------------------
Minimum, maximum and average ratios of UMP and CCSD pair-energies ... 0.47, 1.44, 1.02


------------------------------------------------------------------------------- 
                                     TIMINGS                                   
------------------------------------------------------------------------------- 


Total execution time                   ...    50310.564 sec

Localization of occupied MO's          ...       11.191 sec (  0.0%)
Fock Matrix Formation                  ...     1544.818 sec (  3.1%)
Differential overlap integrals         ...        1.562 sec (  0.0%)
Organizing maps                        ...        1.811 sec (  0.0%)
RI 3-index integral generations        ...      295.874 sec (  0.6%)
RI-PNO integral transformation         ...     5235.528 sec ( 10.4%)
Initial Guess                          ...     1897.227 sec (  3.8%)
DIIS Solver                            ...       17.478 sec (  0.0%)
State Vector Update                    ...        0.774 sec (  0.0%)
Sigma-vector construction              ...    26750.909 sec ( 53.2%)
  <0|H|D>                              ...        0.030 sec (  0.0% of sigma)
  <D|H|D>(0-ext)                       ...     4715.142 sec ( 17.6% of sigma)
  <D|H|D>(2-ext Fock)                  ...        1.623 sec (  0.0% of sigma)
  <D|H|D>(2-ext)                       ...     3991.355 sec ( 14.9% of sigma)
  <D|H|D>(4-ext)                       ...      139.232 sec (  0.5% of sigma)
  <D|H|D>(4-ext-corr)                  ...      862.717 sec (  3.2% of sigma)
  CCSD doubles correction              ...      476.993 sec (  1.8% of sigma)
  <S|H|S>                              ...      636.451 sec (  2.4% of sigma)
  <S|H|D>(1-ext)                       ...      239.281 sec (  0.9% of sigma)
  <D|H|S>(1-ext)                       ...        1.171 sec (  0.0% of sigma)
  <S|H|D>(3-ext)                       ...       19.647 sec (  0.1% of sigma)
  CCSD singles correction              ...        0.004 sec (  0.0% of sigma)
  Fock-dressing                        ...     7696.922 sec ( 28.8% of sigma)
  Singles amplitudes                   ...       98.349 sec (  0.4% of sigma)
  (ik|jl)-dressing                     ...     6275.121 sec ( 23.5% of sigma)
  (ij|ab),(ia|jb)-dressing             ...     1450.517 sec (  5.4% of sigma)
  Pair energies                        ...        0.163 sec (  0.0% of sigma)
Total Time for computing (T)           ...    14917.907 sec ( 29.7% of ALL)


-------------------------   --------------------
FINAL SINGLE POINT ENERGY     -3031.467445207041
-------------------------   --------------------


                            ***************************************
                            *     ORCA property calculations      *
                            ***************************************

                                    ---------------------
                                    Active property flags
                                    ---------------------
   (+) Dipole Moment


------------------------------------------------------------------------------
                       ORCA ELECTRIC PROPERTIES CALCULATION
------------------------------------------------------------------------------

Dipole Moment Calculation                       ... on
Quadrupole Moment Calculation                   ... off
Polarizability Calculation                      ... off
GBWName                                         ... simple-grid-215-295-b3lyp_d3bj-631gd-gas-singlepoint-DLPNO_CCSD_T1-NormalPNO-augtz-gas.gbw
Electron density file                           ... simple-grid-215-295-b3lyp_d3bj-631gd-gas-singlepoint-DLPNO_CCSD_T1-NormalPNO-augtz-gas.scfp.tmp
The origin for moment calculation is the CENTER OF MASS  = ( 0.330743,  0.044454 -0.012309)

-------------
DIPOLE MOMENT
-------------
                                X             Y             Z
Electronic contribution:     44.74297       5.66635      -1.89883
Nuclear contribution   :    -49.28067      -6.62365       1.83399
                        -----------------------------------------
Total Dipole Moment    :     -4.53770      -0.95730      -0.06484
                        -----------------------------------------
Magnitude (a.u.)       :      4.63803
Magnitude (Debye)      :     11.78895



--------------------
Rotational spectrum 
--------------------
 
Rotational constants in cm-1:     0.019857     0.009989     0.009563 
Rotational constants in MHz :   595.311287   299.454006   286.697708 

 Dipole components along the rotational axes: 
x,y,z [a.u.] :    -4.539903     0.940490    -0.126991 
x,y,z [Debye]:   -11.539515     2.390535    -0.322784 

 

Timings for individual modules:

Sum of individual times         ...    65811.166 sec (=1096.853 min)
GTO integral calculation        ...       11.686 sec (=   0.195 min)   0.0 %
SCF iterations                  ...    15471.201 sec (= 257.853 min)  23.5 %
MDCI module                     ...    50328.279 sec (= 838.805 min)  76.5 %
                             ****ORCA TERMINATED NORMALLY****
TOTAL RUN TIME: 0 days 18 hours 16 minutes 53 seconds 666 msec
