
                                 *****************
                                 * O   R   C   A *
                                 *****************

           --- An Ab Initio, DFT and Semiempirical electronic structure package ---

                  #######################################################
                  #                        -***-                        #
                  #          Department of theory and spectroscopy      #
                  #               Directorship: Frank Neese             #
                  #        Max Planck Institute fuer Kohlenforschung    #
                  #                Kaiser Wilhelm Platz 1               #
                  #                 D-45470 Muelheim/Ruhr               #
                  #                      Germany                        #
                  #                                                     #
                  #                  All rights reserved                #
                  #                        -***-                        #
                  #######################################################


                         Program Version 4.1.2  - RELEASE  -


 With contributions from (in alphabetic order):
   Daniel Aravena         : Magnetic Properties
   Michael Atanasov       : Ab Initio Ligand Field Theory
   Alexander A. Auer      : GIAO ZORA
   Ute Becker             : Parallelization
   Giovanni Bistoni       : ED, Open-shell LED
   Martin Brehm           : Molecular dynamics
   Dmytro Bykov           : SCF Hessian
   Vijay G. Chilkuri      : MRCI spin determinant printing
   Dipayan Datta          : RHF DLPNO-CCSD density
   Achintya Kumar Dutta   : EOM-CC, STEOM-CC
   Dmitry Ganyushin       : Spin-Orbit,Spin-Spin,Magnetic field MRCI
   Miquel Garcia          : C-PCM Hessian
   Yang Guo               : DLPNO-NEVPT2, CIM, IAO-localization
   Andreas Hansen         : Spin unrestricted coupled pair/coupled cluster methods
   Benjamin Helmich-Paris : CASSCF linear response (MC-RPA)
   Lee Huntington         : MR-EOM, pCC
   Robert Izsak           : Overlap fitted RIJCOSX, COSX-SCS-MP3, EOM
   Christian Kollmar      : KDIIS, OOCD, Brueckner-CCSD(T), CCSD density
   Simone Kossmann        : Meta GGA functionals, TD-DFT gradient, OOMP2, MP2 Hessian
   Martin Krupicka        : AUTO-CI
   Lucas Lang             : DCDCAS
   Dagmar Lenk            : GEPOL surface, SMD
   Dimitrios Liakos       : Extrapolation schemes; parallel MDCI
   Dimitrios Manganas     : ROCIS; embedding schemes
   Dimitrios Pantazis     : SARC Basis sets
   Taras Petrenko         : DFT Hessian,TD-DFT gradient, ASA, ECA, R-Raman, ABS, FL, XAS/XES, NRVS
   Peter Pinski           : DLPNO-MP2, DLPNO-MP2 Gradient
   Christoph Reimann      : Effective Core Potentials
   Marius Retegan         : Local ZFS, SOC
   Christoph Riplinger    : Optimizer, TS searches, QM/MM, DLPNO-CCSD(T), (RO)-DLPNO pert. Triples
   Tobias Risthaus        : Range-separated hybrids, TD-DFT gradient, RPA, STAB
   Michael Roemelt        : Restricted open shell CIS
   Masaaki Saitow         : Open-shell DLPNO
   Barbara Sandhoefer     : DKH picture change effects
   Avijit Sen             : IP-ROCIS
   Kantharuban Sivalingam : CASSCF convergence, NEVPT2, FIC-MRCI
   Bernardo de Souza      : ESD, SOC TD-DFT
   Georgi Stoychev        : AutoAux, RI-MP2 NMR
   Willem Van den Heuvel  : Paramagnetic NMR
   Boris Wezisla          : Elementary symmetry handling
   Frank Wennmohs         : Technical directorship


 We gratefully acknowledge several colleagues who have allowed us to
 interface, adapt or use parts of their codes:
   Stefan Grimme, W. Hujo, H. Kruse,             : VdW corrections, initial TS optimization,
                  C. Bannwarth                     DFT functionals, gCP, sTDA/sTD-DF
   Ed Valeev                                     : LibInt (2-el integral package), F12 methods
   Garnet Chan, S. Sharma, J. Yang, R. Olivares  : DMRG
   Ulf Ekstrom                                   : XCFun DFT Library
   Mihaly Kallay                                 : mrcc  (arbitrary order and MRCC methods)
   Andreas Klamt, Michael Diedenhofen            : otool_cosmo (COSMO solvation model)
   Jiri Pittner, Ondrej Demel                    : Mk-CCSD
   Frank Weinhold                                : gennbo (NPA and NBO analysis)
   Christopher J. Cramer and Donald G. Truhlar   : smd solvation model
   Lars Goerigk                                  : TD-DFT with DH, B97 family of functionals
   V. Asgeirsson, H. Jonsson                     : NEB implementation
   FAccTs GmbH                                   : IRC, NEB, NEB-TS, Multilevel


 Your calculation uses the libint2 library for the computation of 2-el integrals
 For citations please refer to: http://libint.valeyev.net

 This ORCA versions uses:
   CBLAS   interface :  Fast vector & matrix operations
   LAPACKE interface :  Fast linear algebra routines
   SCALAPACK package :  Parallel linear algebra routines


----- Orbital basis set information -----
Your calculation utilizes the basis: aug-cc-pVTZ 
    H, B-Ne : Obtained from the ccRepo (grant-hill.group.shef.ac.uk/ccrepo) Feb. 2017
              R. A. Kendall, T. H. Dunning, Jr., R. J. Harrison, J. Chem. Phys. 96, 6796 (1992)
         He : Obtained from the ccRepo (grant-hill.group.shef.ac.uk/ccrepo) Feb. 2017
              D. E. Woon, T. H. Dunning, Jr., J. Chem. Phys. 100, 2975 (1994)
  Li-Be, Na : Obtained from the ccRepo (grant-hill.group.shef.ac.uk/ccrepo) Feb. 2017
              B. P. Prascher, D. E. Woon, K. A. Peterson, T. H. Dunning, Jr., A. K. Wilson, Theor. Chem. Acc. 128, 69 (2011)
         Mg : Obtained from the Peterson Research Group Website (tyr0.chem.wsu.edu/~kipeters) Feb. 2017
              B. P. Prascher, D. E. Woon, K. A. Peterson, T. H. Dunning, Jr., A. K. Wilson, Theor. Chem. Acc. 128, 69 (2011)
      Al-Ar : Obtained from the ccRepo (grant-hill.group.shef.ac.uk/ccrepo) Feb. 2017
              D. E. Woon, T. H. Dunning, Jr., J. Chem. Phys. 98, 1358 (1993)
      Sc-Zn : Obtained from the ccRepo (grant-hill.group.shef.ac.uk/ccrepo) Feb. 2017
              N. B. Balabanov, K. A. Peterson, J. Chem. Phys. 123, 064107 (2005)
              N. B. Balabanov, K. A. Peterson, J. Chem. Phys. 125, 074110 (2006)
      Ga-Kr : Obtained from the ccRepo (grant-hill.group.shef.ac.uk/ccrepo) Feb. 2017
              A. K. Wilson, D. E. Woon, K. A. Peterson, T. H. Dunning, Jr., J. Chem. Phys. 110, 7667 (1999)
     Ag, Au : Obtained from the Peterson Research Group Website (tyr0.chem.wsu.edu/~kipeters) Feb. 2017
              K. A. Peterson, C. Puzzarini, Theor. Chem. Acc. 114, 283 (2005)

----- AuxJ basis set information -----
Your calculation utilizes the AutoAux generation procedure.
  G. L. Stoychev, A. A. Auer, F. Neese, J. Chem. Theory Comput. 13, 554 (2017)

----- AuxC basis set information -----
Your calculation utilizes the auxiliary basis: aug-cc-pVTZ/C 
  H-He, B-F, Al-Ar, Ga-Kr : Obtained from the EMSL Basis Set Exchange (bse.pnl.gov) Feb. 2017
                            F. Weigend, A. Kohn, C. Hattig, J. Chem. Phys. 116, 3175 (2002)
                   Be, Mg : Obtained from the TURBOMOLE 7.0 basis set library
                            C. Haettig, Phys. Chem. Chem. Phys. 7, 59 (2005)
                       Ne : Obtained from the EMSL Basis Set Exchange (bse.pnl.gov) Feb. 2017
                            C. Haettig, Phys. Chem. Chem. Phys. 7, 59 (2005)
                            F. Weigend, A. Kohn, C. Hattig, J. Chem. Phys. 116, 3175 (2002)
                    Sc-Zn : Obtained from the EMSL Basis Set Exchange (bse.pnl.gov) Feb. 2017
                            J. G. Hill, J. A. Platts, J. Chem. Phys. 128, 044104 (2008)

----- AuxJK basis set information -----
Your calculation utilizes the AutoAux generation procedure.
  G. L. Stoychev, A. A. Auer, F. Neese, J. Chem. Theory Comput. 13, 554 (2017)

================================================================================
                                        WARNINGS
                       Please study these warnings very carefully!
================================================================================


WARNING: your system is open-shell and RHF/RKS was chosen
  ===> : WILL SWITCH to UHF/UKS


WARNING: MDCI localization with Augmented Hessian Foster-Boys
  ===> : Switching off randomization!

WARNING: Post HF methods need fully converged wavefunctions
  ===> : Setting SCFConvForced true
         You can overwrite this default with %scf ConvForced false 


INFO   : the flag for use of LIBINT has been found!

================================================================================
                                       INPUT FILE
================================================================================
NAME = simple-grid-225-265-b3lyp_d3bj-631gd-gas-singlepoint-DLPNO_CCSD_T1-NormalPNO-augtz-gas.inp
|  1> ! aug-cc-pVTZ aug-cc-pVTZ/C DLPNO-CCSD(T1) TightSCF NormalPNO UNO MiniPrint AutoAux
|  2> %pal nproc 10 end
|  3> %maxcore 20000
|  4> %mdci
|  5>      density none
|  6> end
|  7> 
|  8> * xyz 0 6
|  9>  O     -0.28246400     -0.22680000     -0.79022700
| 10>  C     -1.15228500     -1.14999100     -0.62930400
| 11>  C     -2.87304900     -0.22762800      0.48905100
| 12>  C     -2.55268600      0.95641300     -0.10572800
| 13>  C     -3.07402400      1.33270300     -1.45878400
| 14> Fe      1.44141700      0.13107500     -0.00483900
| 15> Cl      2.03434500      2.04909500     -0.86831800
| 16>  C     -1.64886400      1.96930400      0.51559500
| 17> Cl      2.63622700     -1.60252100     -0.61450700
| 18> Cl      1.16462200      0.21633900      2.18436000
| 19>  H     -3.62359700     -0.83813900     -0.00983300
| 20>  H     -2.21139000      2.89724100      0.68644000
| 21>  H     -1.21071700      1.65197600      1.46029000
| 22>  H     -0.83711900      2.22375700     -0.17740800
| 23>  H     -3.57410800      2.30746300     -1.39571900
| 24>  H     -2.24270800      1.45860600     -2.16508800
| 25>  H     -3.78766900      0.60884400     -1.85821200
| 26>  C     -2.69127500     -0.50808900      1.96315400
| 27>  H     -3.45774100      0.03278600      2.53285500
| 28>  H     -2.81838600     -1.57001500      2.18545500
| 29>  H     -1.71628000     -0.19627100      2.34393600
| 30>  C     -0.88570700     -2.23136900      0.38632500
| 31>  H     -1.75355300     -2.87105000      0.55304300
| 32>  H     -0.08245600     -2.84174300     -0.05097100
| 33>  H     -0.51273100     -1.83425300      1.32951300
| 34>  C     -1.87776300     -1.59351700     -1.87797100
| 35>  H     -1.17804500     -2.26180900     -2.39834400
| 36>  H     -2.78713100     -2.15725300     -1.66306200
| 37>  H     -2.08786600     -0.76015400     -2.54540200
| 38> *
| 39> 
| 40> 
| 41>                          ****END OF INPUT****
================================================================================

                       ****************************
                       * Single Point Calculation *
                       ****************************

---------------------------------
CARTESIAN COORDINATES (ANGSTROEM)
---------------------------------
  O     -0.282464   -0.226800   -0.790227
  C     -1.152285   -1.149991   -0.629304
  C     -2.873049   -0.227628    0.489051
  C     -2.552686    0.956413   -0.105728
  C     -3.074024    1.332703   -1.458784
  Fe     1.441417    0.131075   -0.004839
  Cl     2.034345    2.049095   -0.868318
  C     -1.648864    1.969304    0.515595
  Cl     2.636227   -1.602521   -0.614507
  Cl     1.164622    0.216339    2.184360
  H     -3.623597   -0.838139   -0.009833
  H     -2.211390    2.897241    0.686440
  H     -1.210717    1.651976    1.460290
  H     -0.837119    2.223757   -0.177408
  H     -3.574108    2.307463   -1.395719
  H     -2.242708    1.458606   -2.165088
  H     -3.787669    0.608844   -1.858212
  C     -2.691275   -0.508089    1.963154
  H     -3.457741    0.032786    2.532855
  H     -2.818386   -1.570015    2.185455
  H     -1.716280   -0.196271    2.343936
  C     -0.885707   -2.231369    0.386325
  H     -1.753553   -2.871050    0.553043
  H     -0.082456   -2.841743   -0.050971
  H     -0.512731   -1.834253    1.329513
  C     -1.877763   -1.593517   -1.877971
  H     -1.178045   -2.261809   -2.398344
  H     -2.787131   -2.157253   -1.663062
  H     -2.087866   -0.760154   -2.545402

----------------------------
CARTESIAN COORDINATES (A.U.)
----------------------------
  NO LB      ZA    FRAG     MASS         X           Y           Z
   0 O     8.0000    0    15.999   -0.533780   -0.428590   -1.493313
   1 C     6.0000    0    12.011   -2.177503   -2.173168   -1.189212
   2 C     6.0000    0    12.011   -5.429276   -0.430155    0.924172
   3 C     6.0000    0    12.011   -4.823877    1.807359   -0.199797
   4 C     6.0000    0    12.011   -5.809063    2.518444   -2.756702
   5 Fe   26.0000    0    55.850    2.723883    0.247696   -0.009144
   6 Cl   17.0000    0    35.453    3.844355    3.872228   -1.640883
   7 C     6.0000    0    12.011   -3.115901    3.721445    0.974333
   8 Cl   17.0000    0    35.453    4.981747   -3.028326   -1.161250
   9 Cl   17.0000    0    35.453    2.200817    0.408821    4.127842
  10 H     1.0000    0     1.008   -6.847606   -1.583853   -0.018582
  11 H     1.0000    0     1.008   -4.178921    5.474992    1.297184
  12 H     1.0000    0     1.008   -2.287924    3.121782    2.759548
  13 H     1.0000    0     1.008   -1.581926    4.202292   -0.335253
  14 H     1.0000    0     1.008   -6.754085    4.360473   -2.637527
  15 H     1.0000    0     1.008   -4.238104    2.756366   -4.091423
  16 H     1.0000    0     1.008   -7.157657    1.150548   -3.511512
  17 C     6.0000    0    12.011   -5.085773   -0.960149    3.709823
  18 H     1.0000    0     1.008   -6.534184    0.061957    4.786402
  19 H     1.0000    0     1.008   -5.325978   -2.966898    4.129911
  20 H     1.0000    0     1.008   -3.243299   -0.370898    4.429397
  21 C     6.0000    0    12.011   -1.673744   -4.216676    0.730048
  22 H     1.0000    0     1.008   -3.313735   -5.425498    1.045100
  23 H     1.0000    0     1.008   -0.155819   -5.370116   -0.096321
  24 H     1.0000    0     1.008   -0.968921   -3.466236    2.512415
  25 C     6.0000    0    12.011   -3.548458   -3.011311   -3.548851
  26 H     1.0000    0     1.008   -2.226182   -4.274200   -4.532213
  27 H     1.0000    0     1.008   -5.266914   -4.076617   -3.142732
  28 H     1.0000    0     1.008   -3.945495   -1.436483   -4.810113



           ************************************************************
           *        Program running with 10 parallel MPI-processes    *
           *              working on a common directory               *
           ************************************************************


           ************************************************************
           *        Program running with 10 parallel MPI-processes    *
           *              working on a common directory               *
           ************************************************************

Diagonalization of the overlap matrix:
Smallest eigenvalue                        ... 7.723e-07
Time for diagonalization                   ...    0.350 sec
Threshold for overlap eigenvalues          ... 1.000e-08
Number of eigenvalues below threshold      ... 0
Time for construction of square roots      ...    0.285 sec
Total time needed                          ...    0.642 sec

-------------------
DFT GRID GENERATION
-------------------

General Integration Accuracy     IntAcc      ...  4.340
Radial Grid Type                 RadialGrid  ... Gauss-Chebyshev
Angular Grid (max. acc.)         AngularGrid ... Lebedev-110
Angular grid pruning method      GridPruning ... 3 (G Style)
Weight generation scheme         WeightScheme... Becke
Basis function cutoff            BFCut       ...    1.0000e-11
Integration weight cutoff        WCut        ...    1.0000e-14
Grids for H and He will be reduced by one unit

# of grid points (after initial pruning)     ...  36112 (   0.0 sec)
# of grid points (after weights+screening)   ...  32354 (   0.1 sec)
nearest neighbour list constructed           ...    0.0 sec
Grid point re-assignment to atoms done       ...    0.0 sec
Grid point division into batches done        ...    0.0 sec
Reduced shell lists constructed in    0.3 sec

Total number of grid points                  ...    32354
Total number of batches                      ...      521
Average number of points per batch           ...       62
Average number of grid points per atom       ...     1116
Average number of shells per batch           ...   291.37 (84.95%)
Average number of basis functions per batch  ...   865.81 (84.47%)
Average number of large shells per batch     ...   238.83 (81.97%)
Average number of large basis fcns per batch ...   709.35 (81.93%)
Maximum spatial batch extension              ...   3.51,  4.20,  5.01 au
Average spatial batch extension              ...   0.18,  0.19,  0.18 au

Time for grid setup =    0.430 sec

Loading Hartree-Fock densities                     ... done
Calculating cut-offs                               ... done
Setting up the integral package                    ... done
Initializing the effective Hamiltonian             ... done
Starting the Coulomb interaction                   ... done (   1.1 sec)
Reading the grid                                   ... done
Mapping shells                                     ... done
Starting the XC term evaluation                    ... done (   1.0 sec)
Transforming the Hamiltonian                       ... done (   0.2 sec)
Diagonalizing the Hamiltonian                      ... done (   0.4 sec)
Back transforming the eigenvectors                 ... done (   0.1 sec)
Now organizing SCF variables                       ... done
--------------
SCF ITERATIONS
--------------
ITER       Energy         Delta-E        Max-DP      RMS-DP      [F,P]     Damp
               ***  Starting incremental Fock matrix formation  ***
  0  -3027.5805335091   0.000000000000 0.23627882  0.00104960  0.2624986 0.7000
  1  -3027.8304031952  -0.249869686139 0.17390244  0.00081839  0.1577450 0.7000
                               ***Turning on DIIS***
  2  -3027.9981434404  -0.167740245153 0.12093182  0.00060250  0.1094280 0.7000
  3  -3029.6120360622  -1.613892621817 0.26794024  0.00151291  0.0819528 0.0000
  4  -3028.2984238393   1.313612222910 0.04483946  0.00021826  0.0199287 0.0000
  5  -3028.4166308522  -0.118207012871 0.03941033  0.00017303  0.0114645 0.0000
  6  -3028.4582319516  -0.041601099489 0.02034730  0.00007065  0.0052280 0.0000
  7  -3028.4718730764  -0.013641124780 0.00897081  0.00003262  0.0033815 0.0000
  8  -3028.4627719163   0.009101160151 0.00593205  0.00001866  0.0014944 0.0000
  9  -3028.4571527345   0.005619181763 0.00247121  0.00001092  0.0007308 0.0000
 10  -3028.4453851408   0.011767593670 0.00091698  0.00000320  0.0004090 0.0000
 11  -3028.4511229883  -0.005737847423 0.00030276  0.00000178  0.0000647 0.0000
 12  -3028.4490590615   0.002063926753 0.00044970  0.00000154  0.0000222 0.0000
 13  -3028.4491020028  -0.000042941325 0.00083706  0.00000215  0.0000090 0.0000
 14  -3028.4491379649  -0.000035962100 0.00071727  0.00000222  0.0000052 0.0000
 15  -3028.4490777491   0.000060215819 0.00057758  0.00000158  0.0000029 0.0000
 16  -3028.4490964828  -0.000018733650 0.00070841  0.00000217  0.0000018 0.0000
 17  -3028.4491137485  -0.000017265751 0.00070073  0.00000180  0.0000011 0.0000
                            ***DIIS convergence achieved***

               *****************************************************
               *                     SUCCESS                       *
               *           SCF CONVERGED AFTER  18 CYCLES          *
               *****************************************************

Total Energy       :        -3028.44909670 Eh          -82408.28948 eV
  Last Energy change         ...    1.7053e-05  Tolerance :   1.0000e-08
  Last MAX-Density change    ...    1.3703e-03  Tolerance :   1.0000e-07
             **** THE GBW FILE WAS UPDATED (simple-grid-225-265-b3lyp_d3bj-631gd-gas-singlepoint-DLPNO_CCSD_T1-NormalPNO-augtz-gas.gbw) ****
             **** DENSITY FILE WAS UPDATED (simple-grid-225-265-b3lyp_d3bj-631gd-gas-singlepoint-DLPNO_CCSD_T1-NormalPNO-augtz-gas.scfp.tmp) ****
             **** ENERGY FILE WAS UPDATED (simple-grid-225-265-b3lyp_d3bj-631gd-gas-singlepoint-DLPNO_CCSD_T1-NormalPNO-augtz-gas.en.tmp) ****
----------------------
UHF SPIN CONTAMINATION
----------------------

Expectation value of <S**2>     :     8.764614
Ideal value S*(S+1) for S=2.5   :     8.750000
Deviation                       :     0.014614

----------------
ORBITAL ENERGIES
----------------
                 SPIN UP ORBITALS
  NO   OCC          E(Eh)            E(eV) 
   0   1.0000    -261.565754     -7117.5660 
   1   1.0000    -104.787383     -2851.4097 
   2   1.0000    -104.783391     -2851.3010 
   3   1.0000    -104.782315     -2851.2718 
   4   1.0000     -32.233569      -877.1200 
   5   1.0000     -27.709822      -754.0226 
   6   1.0000     -27.709043      -754.0014 
   7   1.0000     -27.708859      -753.9964 
   8   1.0000     -20.591398      -560.3204 
   9   1.0000     -11.413185      -310.5685 
  10   1.0000     -11.303145      -307.5742 
  11   1.0000     -11.269682      -306.6636 
  12   1.0000     -11.263691      -306.5006 
  13   1.0000     -11.259284      -306.3807 
  14   1.0000     -11.258172      -306.3504 
  15   1.0000     -11.244020      -305.9653 
  16   1.0000     -11.241757      -305.9038 
  17   1.0000     -10.514058      -286.1021 
  18   1.0000     -10.510054      -285.9931 
  19   1.0000     -10.508933      -285.9626 
  20   1.0000      -7.980920      -217.1719 
  21   1.0000      -7.980106      -217.1497 
  22   1.0000      -7.980073      -217.1488 
  23   1.0000      -7.976917      -217.0629 
  24   1.0000      -7.976151      -217.0421 
  25   1.0000      -7.976089      -217.0404 
  26   1.0000      -7.975736      -217.0308 
  27   1.0000      -7.975050      -217.0121 
  28   1.0000      -7.974989      -217.0105 
  29   1.0000      -4.588663      -124.8639 
  30   1.0000      -3.201580       -87.1194 
  31   1.0000      -3.200318       -87.0851 
  32   1.0000      -3.200070       -87.0783 
  33   1.0000      -1.437038       -39.1038 
  34   1.0000      -1.148839       -31.2615 
  35   1.0000      -1.092079       -29.7170 
  36   1.0000      -1.059341       -28.8261 
  37   1.0000      -1.053529       -28.6680 
  38   1.0000      -1.050771       -28.5929 
  39   1.0000      -1.031208       -28.0606 
  40   1.0000      -1.000893       -27.2357 
  41   1.0000      -0.974595       -26.5201 
  42   1.0000      -0.933760       -25.4089 
  43   1.0000      -0.917766       -24.9737 
  44   1.0000      -0.917707       -24.9721 
  45   1.0000      -0.911206       -24.7952 
  46   1.0000      -0.907806       -24.7027 
  47   1.0000      -0.907088       -24.6831 
  48   1.0000      -0.801037       -21.7973 
  49   1.0000      -0.746636       -20.3170 
  50   1.0000      -0.697256       -18.9733 
  51   1.0000      -0.689675       -18.7670 
  52   1.0000      -0.683541       -18.6001 
  53   1.0000      -0.667429       -18.1617 
  54   1.0000      -0.635674       -17.2976 
  55   1.0000      -0.622527       -16.9398 
  56   1.0000      -0.604720       -16.4553 
  57   1.0000      -0.596051       -16.2194 
  58   1.0000      -0.582651       -15.8547 
  59   1.0000      -0.574201       -15.6248 
  60   1.0000      -0.564710       -15.3665 
  61   1.0000      -0.557955       -15.1827 
  62   1.0000      -0.553171       -15.0526 
  63   1.0000      -0.547271       -14.8920 
  64   1.0000      -0.538764       -14.6605 
  65   1.0000      -0.526829       -14.3357 
  66   1.0000      -0.509362       -13.8604 
  67   1.0000      -0.491128       -13.3643 
  68   1.0000      -0.470737       -12.8094 
  69   1.0000      -0.467316       -12.7163 
  70   1.0000      -0.439048       -11.9471 
  71   1.0000      -0.434480       -11.8228 
  72   1.0000      -0.432733       -11.7753 
  73   1.0000      -0.423932       -11.5358 
  74   1.0000      -0.422738       -11.5033 
  75   1.0000      -0.421723       -11.4757 
  76   1.0000      -0.371689       -10.1142 
  77   0.0000       0.011637         0.3167 
  78   0.0000       0.021868         0.5951 
  79   0.0000       0.023105         0.6287 
  80   0.0000       0.029885         0.8132 
  81   0.0000       0.038025         1.0347 
  82   0.0000       0.040079         1.0906 
  83   0.0000       0.042408         1.1540 
  84   0.0000       0.044357         1.2070 
  85   0.0000       0.044767         1.2182 
  86   0.0000       0.052116         1.4182 
  87   0.0000       0.056973         1.5503 
  88   0.0000       0.060693         1.6515 
  89   0.0000       0.063134         1.7180 
  90   0.0000       0.063805         1.7362 
  91   0.0000       0.065263         1.7759 
  92   0.0000       0.072770         1.9802 
  93   0.0000       0.076733         2.0880 
  94   0.0000       0.081483         2.2173 
  95   0.0000       0.090251         2.4559 
  96   0.0000       0.092054         2.5049 
  97   0.0000       0.093613         2.5473 
  98   0.0000       0.097344         2.6489 
  99   0.0000       0.100436         2.7330 
 100   0.0000       0.103479         2.8158 
 101   0.0000       0.108040         2.9399 
 102   0.0000       0.115381         3.1397 
 103   0.0000       0.122237         3.3262 
 104   0.0000       0.123860         3.3704 
 105   0.0000       0.124476         3.3872 
 106   0.0000       0.126829         3.4512 
 107   0.0000       0.128373         3.4932 
 108   0.0000       0.130846         3.5605 
 109   0.0000       0.133309         3.6275 
 110   0.0000       0.135353         3.6831 
 111   0.0000       0.138266         3.7624 
 112   0.0000       0.143944         3.9169 
 113   0.0000       0.144592         3.9345 
 114   0.0000       0.151627         4.1260 
 115   0.0000       0.152430         4.1478 
 116   0.0000       0.156492         4.2584 
 117   0.0000       0.161113         4.3841 
 118   0.0000       0.162613         4.4249 
 119   0.0000       0.166573         4.5327 
 120   0.0000       0.169755         4.6193 
 121   0.0000       0.171070         4.6551 
 122   0.0000       0.175034         4.7629 
 123   0.0000       0.180518         4.9121 
 124   0.0000       0.181548         4.9402 
 125   0.0000       0.187351         5.0981 
 126   0.0000       0.187689         5.1073 
 127   0.0000       0.191736         5.2174 
 128   0.0000       0.197267         5.3679 
 129   0.0000       0.197993         5.3877 
 130   0.0000       0.200015         5.4427 
 131   0.0000       0.200990         5.4692 
 132   0.0000       0.203617         5.5407 
 133   0.0000       0.208269         5.6673 
 134   0.0000       0.213795         5.8177 
 135   0.0000       0.216811         5.8997 
 136   0.0000       0.220090         5.9889 
 137   0.0000       0.225535         6.1371 
 138   0.0000       0.227321         6.1857 
 139   0.0000       0.232493         6.3265 
 140   0.0000       0.235450         6.4069 
 141   0.0000       0.238288         6.4841 
 142   0.0000       0.239812         6.5256 
 143   0.0000       0.243355         6.6220 
 144   0.0000       0.245774         6.6879 
 145   0.0000       0.245980         6.6935 
 146   0.0000       0.251578         6.8458 
 147   0.0000       0.256828         6.9887 
 148   0.0000       0.259168         7.0523 
 149   0.0000       0.261734         7.1221 
 150   0.0000       0.262383         7.1398 
 151   0.0000       0.268094         7.2952 
 152   0.0000       0.278114         7.5679 
 153   0.0000       0.280603         7.6356 
 154   0.0000       0.281536         7.6610 
 155   0.0000       0.287316         7.8183 
 156   0.0000       0.288084         7.8392 
 157   0.0000       0.291838         7.9413 
 158   0.0000       0.295803         8.0492 
 159   0.0000       0.304542         8.2870 
 160   0.0000       0.308394         8.3918 
 161   0.0000       0.314203         8.5499 
 162   0.0000       0.318199         8.6586 
 163   0.0000       0.319847         8.7035 
 164   0.0000       0.324928         8.8417 
 165   0.0000       0.328427         8.9369 
 166   0.0000       0.331425         9.0185 
 167   0.0000       0.337630         9.1874 
 168   0.0000       0.340163         9.2563 
 169   0.0000       0.342581         9.3221 
 170   0.0000       0.345722         9.4076 
 171   0.0000       0.352986         9.6052 
 172   0.0000       0.356020         9.6878 
 173   0.0000       0.360538         9.8107 
 174   0.0000       0.362032         9.8514 
 175   0.0000       0.365937         9.9576 
 176   0.0000       0.370837        10.0910 
 177   0.0000       0.372106        10.1255 
 178   0.0000       0.376517        10.2455 
 179   0.0000       0.379700        10.3322 
 180   0.0000       0.382414        10.4060 
 181   0.0000       0.384137        10.4529 
 182   0.0000       0.384818        10.4714 
 183   0.0000       0.387898        10.5552 
 184   0.0000       0.390570        10.6279 
 185   0.0000       0.394690        10.7401 
 186   0.0000       0.396625        10.7927 
 187   0.0000       0.399896        10.8817 
 188   0.0000       0.402784        10.9603 
 189   0.0000       0.408062        11.1039 
 190   0.0000       0.412383        11.2215 
 191   0.0000       0.415038        11.2938 
 192   0.0000       0.420341        11.4381 
 193   0.0000       0.424845        11.5606 
 194   0.0000       0.426860        11.6155 
 195   0.0000       0.434629        11.8269 
 196   0.0000       0.438205        11.9242 
 197   0.0000       0.440305        11.9813 
 198   0.0000       0.443757        12.0752 
 199   0.0000       0.446504        12.1500 
 200   0.0000       0.451651        12.2900 
 201   0.0000       0.455399        12.3920 
 202   0.0000       0.457251        12.4424 
 203   0.0000       0.460241        12.5238 
 204   0.0000       0.463467        12.6116 
 205   0.0000       0.466462        12.6931 
 206   0.0000       0.471754        12.8371 
 207   0.0000       0.473820        12.8933 
 208   0.0000       0.478933        13.0324 
 209   0.0000       0.480089        13.0639 
 210   0.0000       0.484954        13.1963 
 211   0.0000       0.490044        13.3348 
 212   0.0000       0.493187        13.4203 
 213   0.0000       0.496224        13.5029 
 214   0.0000       0.499130        13.5820 
 215   0.0000       0.503136        13.6910 
 216   0.0000       0.504970        13.7409 
 217   0.0000       0.506719        13.7885 
 218   0.0000       0.512244        13.9389 
 219   0.0000       0.514302        13.9949 
 220   0.0000       0.516382        14.0515 
 221   0.0000       0.517174        14.0730 
 222   0.0000       0.524142        14.2626 
 223   0.0000       0.525383        14.2964 
 224   0.0000       0.529986        14.4216 
 225   0.0000       0.533320        14.5124 
 226   0.0000       0.534788        14.5523 
 227   0.0000       0.536391        14.5959 
 228   0.0000       0.541499        14.7349 
 229   0.0000       0.546097        14.8601 
 230   0.0000       0.546997        14.8846 
 231   0.0000       0.552697        15.0397 
 232   0.0000       0.558837        15.2067 
 233   0.0000       0.559724        15.2309 
 234   0.0000       0.564519        15.3614 
 235   0.0000       0.568769        15.4770 
 236   0.0000       0.572787        15.5863 
 237   0.0000       0.573553        15.6072 
 238   0.0000       0.578964        15.7544 
 239   0.0000       0.586187        15.9510 
 240   0.0000       0.587011        15.9734 
 241   0.0000       0.587266        15.9803 
 242   0.0000       0.592770        16.1301 
 243   0.0000       0.596740        16.2381 
 244   0.0000       0.601681        16.3726 
 245   0.0000       0.603550        16.4234 
 246   0.0000       0.604271        16.4431 
 247   0.0000       0.612898        16.6778 
 248   0.0000       0.617567        16.8048 
 249   0.0000       0.621981        16.9250 
 250   0.0000       0.624693        16.9987 
 251   0.0000       0.628809        17.1108 
 252   0.0000       0.632585        17.2135 
 253   0.0000       0.637325        17.3425 
 254   0.0000       0.641195        17.4478 
 255   0.0000       0.643120        17.5002 
 256   0.0000       0.649690        17.6790 
 257   0.0000       0.651295        17.7226 
 258   0.0000       0.655873        17.8472 
 259   0.0000       0.661503        18.0004 
 260   0.0000       0.663858        18.0645 
 261   0.0000       0.665347        18.1050 
 262   0.0000       0.670205        18.2372 
 263   0.0000       0.674206        18.3461 
 264   0.0000       0.676973        18.4214 
 265   0.0000       0.685449        18.6520 
 266   0.0000       0.688321        18.7302 
 267   0.0000       0.691523        18.8173 
 268   0.0000       0.696105        18.9420 
 269   0.0000       0.699242        19.0273 
 270   0.0000       0.707058        19.2400 
 271   0.0000       0.710916        19.3450 
 272   0.0000       0.712057        19.3760 
 273   0.0000       0.718849        19.5609 
 274   0.0000       0.723256        19.6808 
 275   0.0000       0.730219        19.8703 
 276   0.0000       0.731721        19.9112 
 277   0.0000       0.734655        19.9910 
 278   0.0000       0.739956        20.1352 
 279   0.0000       0.745939        20.2980 
 280   0.0000       0.748263        20.3613 
 281   0.0000       0.750303        20.4168 
 282   0.0000       0.760647        20.6983 
 283   0.0000       0.765486        20.8299 
 284   0.0000       0.769237        20.9320 
 285   0.0000       0.781501        21.2657 
 286   0.0000       0.785936        21.3864 
 287   0.0000       0.790831        21.5196 
 288   0.0000       0.801406        21.8074 
 289   0.0000       0.803769        21.8717 
 290   0.0000       0.812379        22.1060 
 291   0.0000       0.818431        22.2706 
 292   0.0000       0.828324        22.5398 
 293   0.0000       0.829707        22.5775 
 294   0.0000       0.837183        22.7809 
 295   0.0000       0.839061        22.8320 
 296   0.0000       0.843246        22.9459 
 297   0.0000       0.846457        23.0333 
 298   0.0000       0.855420        23.2772 
 299   0.0000       0.856120        23.2962 
 300   0.0000       0.859424        23.3861 
 301   0.0000       0.863169        23.4880 
 302   0.0000       0.866787        23.5865 
 303   0.0000       0.873264        23.7627 
 304   0.0000       0.881789        23.9947 
 305   0.0000       0.885988        24.1089 
 306   0.0000       0.890158        24.2224 
 307   0.0000       0.892770        24.2935 
 308   0.0000       0.905373        24.6364 
 309   0.0000       0.906552        24.6685 
 310   0.0000       0.909334        24.7442 
 311   0.0000       0.915648        24.9161 
 312   0.0000       0.921962        25.0878 
 313   0.0000       0.922842        25.1118 
 314   0.0000       0.926385        25.2082 
 315   0.0000       0.930537        25.3212 
 316   0.0000       0.936282        25.4775 
 317   0.0000       0.937466        25.5097 
 318   0.0000       0.940206        25.5843 
 319   0.0000       0.942495        25.6466 
 320   0.0000       0.944933        25.7129 
 321   0.0000       0.951198        25.8834 
 322   0.0000       0.955909        26.0116 
 323   0.0000       0.958489        26.0818 
 324   0.0000       0.962656        26.1952 
 325   0.0000       0.965021        26.2596 
 326   0.0000       0.968478        26.3536 
 327   0.0000       0.972875        26.4733 
 328   0.0000       0.977502        26.5992 
 329   0.0000       0.978579        26.6285 
 330   0.0000       0.983567        26.7642 
 331   0.0000       0.987138        26.8614 
 332   0.0000       0.988487        26.8981 
 333   0.0000       0.991958        26.9925 
 334   0.0000       0.995509        27.0892 
 335   0.0000       1.000486        27.2246 
 336   0.0000       1.006457        27.3871 
 337   0.0000       1.012123        27.5413 
 338   0.0000       1.016230        27.6530 
 339   0.0000       1.022652        27.8278 
 340   0.0000       1.025942        27.9173 
 341   0.0000       1.027271        27.9535 
 342   0.0000       1.029523        28.0148 
 343   0.0000       1.031105        28.0578 
 344   0.0000       1.035916        28.1887 
 345   0.0000       1.036626        28.2080 
 346   0.0000       1.042413        28.3655 
 347   0.0000       1.045174        28.4406 
 348   0.0000       1.048436        28.5294 
 349   0.0000       1.054194        28.6861 
 350   0.0000       1.056782        28.7565 
 351   0.0000       1.058036        28.7906 
 352   0.0000       1.061872        28.8950 
 353   0.0000       1.067083        29.0368 
 354   0.0000       1.068906        29.0864 
 355   0.0000       1.071555        29.1585 
 356   0.0000       1.082410        29.4539 
 357   0.0000       1.085767        29.5452 
 358   0.0000       1.089619        29.6500 
 359   0.0000       1.091743        29.7078 
 360   0.0000       1.093345        29.7514 
 361   0.0000       1.095076        29.7985 
 362   0.0000       1.103780        30.0354 
 363   0.0000       1.108628        30.1673 
 364   0.0000       1.111563        30.2472 
 365   0.0000       1.118158        30.4266 
 366   0.0000       1.120088        30.4792 
 367   0.0000       1.126265        30.6472 
 368   0.0000       1.129920        30.7467 
 369   0.0000       1.133559        30.8457 
 370   0.0000       1.135245        30.8916 
 371   0.0000       1.138516        30.9806 
 372   0.0000       1.146100        31.1870 
 373   0.0000       1.148290        31.2466 
 374   0.0000       1.156327        31.4653 
 375   0.0000       1.160484        31.5784 
 376   0.0000       1.166640        31.7459 
 377   0.0000       1.170686        31.8560 
 378   0.0000       1.170910        31.8621 
 379   0.0000       1.177820        32.0501 
 380   0.0000       1.187047        32.3012 
 381   0.0000       1.190983        32.4083 
 382   0.0000       1.191606        32.4253 
 383   0.0000       1.196510        32.5587 
 384   0.0000       1.198120        32.6025 
 385   0.0000       1.205976        32.8163 
 386   0.0000       1.210894        32.9501 
 387   0.0000       1.213903        33.0320 
 388   0.0000       1.218858        33.1668 
 389   0.0000       1.226244        33.3678 
 390   0.0000       1.234786        33.6002 
 391   0.0000       1.237158        33.6648 
 392   0.0000       1.243019        33.8243 
 393   0.0000       1.244398        33.8618 
 394   0.0000       1.247139        33.9364 
 395   0.0000       1.254892        34.1474 
 396   0.0000       1.256345        34.1869 
 397   0.0000       1.263064        34.3697 
 398   0.0000       1.270089        34.5609 
 399   0.0000       1.274807        34.6893 
 400   0.0000       1.277652        34.7667 
 401   0.0000       1.283946        34.9379 
 402   0.0000       1.285145        34.9706 
 403   0.0000       1.292237        35.1636 
 404   0.0000       1.298678        35.3388 
 405   0.0000       1.306365        35.5480 
 406   0.0000       1.310015        35.6473 
 407   0.0000       1.311774        35.6952 
 408   0.0000       1.313612        35.7452 
 409   0.0000       1.320964        35.9453 
 410   0.0000       1.326873        36.1060 
 411   0.0000       1.331243        36.2250 
 412   0.0000       1.333022        36.2734 
 413   0.0000       1.336738        36.3745 
 414   0.0000       1.341409        36.5016 
 415   0.0000       1.353642        36.8345 
 416   0.0000       1.356331        36.9076 
 417   0.0000       1.363334        37.0982 
 418   0.0000       1.370440        37.2916 
 419   0.0000       1.378080        37.4995 
 420   0.0000       1.379790        37.5460 
 421   0.0000       1.386472        37.7278 
 422   0.0000       1.392441        37.8902 
 423   0.0000       1.395007        37.9601 
 424   0.0000       1.400307        38.1043 
 425   0.0000       1.404168        38.2093 
 426   0.0000       1.414383        38.4873 
 427   0.0000       1.418300        38.5939 
 428   0.0000       1.420085        38.6425 
 429   0.0000       1.428133        38.8615 
 430   0.0000       1.431469        38.9523 
 431   0.0000       1.435269        39.0557 
 432   0.0000       1.449314        39.4378 
 433   0.0000       1.451674        39.5021 
 434   0.0000       1.454009        39.5656 
 435   0.0000       1.462844        39.8060 
 436   0.0000       1.466965        39.9182 
 437   0.0000       1.474678        40.1280 
 438   0.0000       1.477410        40.2024 
 439   0.0000       1.481000        40.3001 
 440   0.0000       1.492090        40.6018 
 441   0.0000       1.494525        40.6681 
 442   0.0000       1.498303        40.7709 
 443   0.0000       1.504143        40.9298 
 444   0.0000       1.508761        41.0555 
 445   0.0000       1.513086        41.1732 
 446   0.0000       1.522061        41.4174 
 447   0.0000       1.523981        41.4696 
 448   0.0000       1.526279        41.5322 
 449   0.0000       1.530704        41.6526 
 450   0.0000       1.533341        41.7243 
 451   0.0000       1.539183        41.8833 
 452   0.0000       1.545699        42.0606 
 453   0.0000       1.548890        42.1474 
 454   0.0000       1.555443        42.3258 
 455   0.0000       1.560670        42.4680 
 456   0.0000       1.566742        42.6332 
 457   0.0000       1.572992        42.8033 
 458   0.0000       1.578922        42.9646 
 459   0.0000       1.581434        43.0330 
 460   0.0000       1.592006        43.3207 
 461   0.0000       1.595963        43.4284 
 462   0.0000       1.600248        43.5450 
 463   0.0000       1.608062        43.7576 
 464   0.0000       1.612911        43.8895 
 465   0.0000       1.614520        43.9333 
 466   0.0000       1.618995        44.0551 
 467   0.0000       1.624901        44.2158 
 468   0.0000       1.635582        44.5064 
 469   0.0000       1.638260        44.5793 
 470   0.0000       1.641782        44.6752 
 471   0.0000       1.646957        44.8160 
 472   0.0000       1.652306        44.9615 
 473   0.0000       1.657249        45.0960 
 474   0.0000       1.662680        45.2438 
 475   0.0000       1.667766        45.3822 
 476   0.0000       1.675321        45.5878 
 477   0.0000       1.680417        45.7265 
 478   0.0000       1.682691        45.7883 
 479   0.0000       1.695520        46.1374 
 480   0.0000       1.700184        46.2644 
 481   0.0000       1.704108        46.3711 
 482   0.0000       1.709076        46.5063 
 483   0.0000       1.711738        46.5788 
 484   0.0000       1.716630        46.7119 
 485   0.0000       1.722768        46.8789 
 486   0.0000       1.730209        47.0814 
 487   0.0000       1.734605        47.2010 
 488   0.0000       1.739186        47.3256 
 489   0.0000       1.746471        47.5239 
 490   0.0000       1.748843        47.5884 
 491   0.0000       1.753962        47.7277 
 492   0.0000       1.759908        47.8895 
 493   0.0000       1.762951        47.9723 
 494   0.0000       1.767941        48.1081 
 495   0.0000       1.771639        48.2087 
 496   0.0000       1.774733        48.2930 
 497   0.0000       1.780854        48.4595 
 498   0.0000       1.787342        48.6360 
 499   0.0000       1.793787        48.8114 
 500   0.0000       1.802188        49.0400 
 501   0.0000       1.806230        49.1500 
 502   0.0000       1.811390        49.2904 
 503   0.0000       1.816356        49.4256 
 504   0.0000       1.818970        49.4967 
 505   0.0000       1.827271        49.7226 
 506   0.0000       1.835067        49.9347 
 507   0.0000       1.840878        50.0928 
 508   0.0000       1.844502        50.1915 
 509   0.0000       1.853381        50.4330 
 510   0.0000       1.854198        50.4553 
 511   0.0000       1.857401        50.5424 
 512   0.0000       1.864601        50.7384 
 513   0.0000       1.869955        50.8841 
 514   0.0000       1.872895        50.9641 
 515   0.0000       1.881476        51.1976 
 516   0.0000       1.884587        51.2822 
 517   0.0000       1.888836        51.3978 
 518   0.0000       1.893584        51.5270 
 519   0.0000       1.900610        51.7182 
 520   0.0000       1.902905        51.7807 
 521   0.0000       1.906078        51.8670 
 522   0.0000       1.909116        51.9497 
 523   0.0000       1.911727        52.0207 
 524   0.0000       1.928515        52.4775 
 525   0.0000       1.932711        52.5917 
 526   0.0000       1.934674        52.6451 
 527   0.0000       1.941761        52.8380 
 528   0.0000       1.948652        53.0255 
 529   0.0000       1.950947        53.0880 
 530   0.0000       1.958213        53.2857 
 531   0.0000       1.960287        53.3421 
 532   0.0000       1.964326        53.4520 
 533   0.0000       1.975181        53.7474 
 534   0.0000       1.981770        53.9267 
 535   0.0000       1.988639        54.1136 
 536   0.0000       1.996965        54.3402 
 537   0.0000       1.998798        54.3901 
 538   0.0000       2.006289        54.5939 
 539   0.0000       2.014379        54.8140 
 540   0.0000       2.019073        54.9418 
 541   0.0000       2.030346        55.2485 
 542   0.0000       2.037124        55.4330 
 543   0.0000       2.039525        55.4983 
 544   0.0000       2.049876        55.7800 
 545   0.0000       2.054832        55.9148 
 546   0.0000       2.060922        56.0806 
 547   0.0000       2.063916        56.1620 
 548   0.0000       2.070401        56.3385 
 549   0.0000       2.080076        56.6018 
 550   0.0000       2.083685        56.7000 
 551   0.0000       2.093650        56.9711 
 552   0.0000       2.096241        57.0416 
 553   0.0000       2.109177        57.3936 
 554   0.0000       2.114729        57.5447 
 555   0.0000       2.118119        57.6369 
 556   0.0000       2.124648        57.8146 
 557   0.0000       2.132163        58.0191 
 558   0.0000       2.142103        58.2896 
 559   0.0000       2.145997        58.3955 
 560   0.0000       2.148616        58.4668 
 561   0.0000       2.153570        58.6016 
 562   0.0000       2.165689        58.9314 
 563   0.0000       2.174493        59.1710 
 564   0.0000       2.185317        59.4655 
 565   0.0000       2.189101        59.5685 
 566   0.0000       2.193007        59.6748 
 567   0.0000       2.196603        59.7726 
 568   0.0000       2.202337        59.9286 
 569   0.0000       2.218943        60.3805 
 570   0.0000       2.222972        60.4902 
 571   0.0000       2.229130        60.6577 
 572   0.0000       2.233491        60.7764 
 573   0.0000       2.240067        60.9553 
 574   0.0000       2.243740        61.0553 
 575   0.0000       2.259328        61.4794 
 576   0.0000       2.265978        61.6604 
 577   0.0000       2.271915        61.8220 
 578   0.0000       2.282766        62.1172 
 579   0.0000       2.288117        62.2628 
 580   0.0000       2.297154        62.5087 
 581   0.0000       2.303509        62.6817 
 582   0.0000       2.309349        62.8406 
 583   0.0000       2.321150        63.1617 
 584   0.0000       2.322358        63.1946 
 585   0.0000       2.325752        63.2869 
 586   0.0000       2.339713        63.6668 
 587   0.0000       2.349994        63.9466 
 588   0.0000       2.357996        64.1643 
 589   0.0000       2.363139        64.3043 
 590   0.0000       2.368194        64.4418 
 591   0.0000       2.378436        64.7205 
 592   0.0000       2.381895        64.8147 
 593   0.0000       2.396837        65.2212 
 594   0.0000       2.400988        65.3342 
 595   0.0000       2.416312        65.7512 
 596   0.0000       2.421326        65.8876 
 597   0.0000       2.426959        66.0409 
 598   0.0000       2.432978        66.2047 
 599   0.0000       2.437375        66.3244 
 600   0.0000       2.447035        66.5872 
 601   0.0000       2.456278        66.8387 
 602   0.0000       2.463254        67.0286 
 603   0.0000       2.470135        67.2158 
 604   0.0000       2.480090        67.4867 
 605   0.0000       2.485169        67.6249 
 606   0.0000       2.494284        67.8729 
 607   0.0000       2.510840        68.3234 
 608   0.0000       2.519022        68.5461 
 609   0.0000       2.534816        68.9758 
 610   0.0000       2.537865        69.0588 
 611   0.0000       2.551927        69.4415 
 612   0.0000       2.570138        69.9370 
 613   0.0000       2.583056        70.2885 
 614   0.0000       2.587060        70.3975 
 615   0.0000       2.591175        70.5095 
 616   0.0000       2.611344        71.0583 
 617   0.0000       2.628181        71.5164 
 618   0.0000       2.635809        71.7240 
 619   0.0000       2.636973        71.7557 
 620   0.0000       2.654622        72.2359 
 621   0.0000       2.666963        72.5718 
 622   0.0000       2.673218        72.7420 
 623   0.0000       2.680489        72.9398 
 624   0.0000       2.684787        73.0568 
 625   0.0000       2.702105        73.5280 
 626   0.0000       2.709408        73.7267 
 627   0.0000       2.718384        73.9710 
 628   0.0000       2.727401        74.2164 
 629   0.0000       2.738228        74.5110 
 630   0.0000       2.745036        74.6962 
 631   0.0000       2.762166        75.1624 
 632   0.0000       2.776882        75.5628 
 633   0.0000       2.780591        75.6637 
 634   0.0000       2.785826        75.8062 
 635   0.0000       2.790390        75.9304 
 636   0.0000       2.804589        76.3167 
 637   0.0000       2.816860        76.6507 
 638   0.0000       2.824767        76.8658 
 639   0.0000       2.833207        77.0955 
 640   0.0000       2.863490        77.9195 
 641   0.0000       2.865256        77.9676 
 642   0.0000       2.867890        78.0393 
 643   0.0000       2.886492        78.5454 
 644   0.0000       2.894212        78.7555 
 645   0.0000       2.910776        79.2062 
 646   0.0000       2.914109        79.2969 
 647   0.0000       2.922245        79.5183 
 648   0.0000       2.941109        80.0316 
 649   0.0000       2.947262        80.1991 
 650   0.0000       2.960919        80.5707 
 651   0.0000       2.971229        80.8512 
 652   0.0000       2.984183        81.2037 
 653   0.0000       3.022228        82.2390 
 654   0.0000       3.028986        82.4229 
 655   0.0000       3.052286        83.0569 
 656   0.0000       3.070807        83.5609 
 657   0.0000       3.084382        83.9303 
 658   0.0000       3.088319        84.0374 
 659   0.0000       3.108508        84.5868 
 660   0.0000       3.111991        84.6816 
 661   0.0000       3.117392        84.8285 
 662   0.0000       3.138664        85.4074 
 663   0.0000       3.169490        86.2462 
 664   0.0000       3.174545        86.3838 
 665   0.0000       3.188317        86.7585 
 666   0.0000       3.197826        87.0173 
 667   0.0000       3.208156        87.2984 
 668   0.0000       3.217381        87.5494 
 669   0.0000       3.230284        87.9005 
 670   0.0000       3.233297        87.9825 
 671   0.0000       3.237990        88.1102 
 672   0.0000       3.254535        88.5604 
 673   0.0000       3.263032        88.7916 
 674   0.0000       3.271460        89.0209 
 675   0.0000       3.283514        89.3490 
 676   0.0000       3.285034        89.3903 
 677   0.0000       3.296085        89.6910 
 678   0.0000       3.304986        89.9332 
 679   0.0000       3.311335        90.1060 
 680   0.0000       3.329210        90.5924 
 681   0.0000       3.331947        90.6669 
 682   0.0000       3.339902        90.8833 
 683   0.0000       3.348870        91.1274 
 684   0.0000       3.359306        91.4114 
 685   0.0000       3.361161        91.4618 
 686   0.0000       3.372012        91.7571 
 687   0.0000       3.400463        92.5313 
 688   0.0000       3.403400        92.6112 
 689   0.0000       3.418065        93.0103 
 690   0.0000       3.424343        93.1811 
 691   0.0000       3.440902        93.6317 
 692   0.0000       3.452859        93.9571 
 693   0.0000       3.458628        94.1141 
 694   0.0000       3.470470        94.4363 
 695   0.0000       3.472585        94.4938 
 696   0.0000       3.483215        94.7831 
 697   0.0000       3.493836        95.0721 
 698   0.0000       3.502267        95.3015 
 699   0.0000       3.503331        95.3305 
 700   0.0000       3.515189        95.6532 
 701   0.0000       3.523806        95.8876 
 702   0.0000       3.529277        96.0365 
 703   0.0000       3.538402        96.2848 
 704   0.0000       3.543949        96.4358 
 705   0.0000       3.555910        96.7612 
 706   0.0000       3.564561        96.9966 
 707   0.0000       3.565615        97.0253 
 708   0.0000       3.572629        97.2162 
 709   0.0000       3.580067        97.4186 
 710   0.0000       3.590807        97.7108 
 711   0.0000       3.593482        97.7836 
 712   0.0000       3.612945        98.3132 
 713   0.0000       3.626853        98.6917 
 714   0.0000       3.631598        98.8208 
 715   0.0000       3.638537        99.0096 
 716   0.0000       3.652105        99.3788 
 717   0.0000       3.663562        99.6906 
 718   0.0000       3.669134        99.8422 
 719   0.0000       3.675404       100.0128 
 720   0.0000       3.682435       100.2041 
 721   0.0000       3.690720       100.4296 
 722   0.0000       3.695399       100.5569 
 723   0.0000       3.699043       100.6561 
 724   0.0000       3.703058       100.7653 
 725   0.0000       3.713017       101.0363 
 726   0.0000       3.721728       101.2734 
 727   0.0000       3.726960       101.4157 
 728   0.0000       3.730214       101.5043 
 729   0.0000       3.738985       101.7429 
 730   0.0000       3.752628       102.1142 
 731   0.0000       3.760215       102.3207 
 732   0.0000       3.766127       102.4815 
 733   0.0000       3.772714       102.6608 
 734   0.0000       3.783639       102.9581 
 735   0.0000       3.786192       103.0275 
 736   0.0000       3.794673       103.2583 
 737   0.0000       3.807892       103.6180 
 738   0.0000       3.811301       103.7108 
 739   0.0000       3.821159       103.9790 
 740   0.0000       3.830021       104.2202 
 741   0.0000       3.831446       104.2590 
 742   0.0000       3.839319       104.4732 
 743   0.0000       3.845007       104.6280 
 744   0.0000       3.862747       105.1107 
 745   0.0000       3.869341       105.2901 
 746   0.0000       3.872583       105.3783 
 747   0.0000       3.883299       105.6699 
 748   0.0000       3.889285       105.8328 
 749   0.0000       3.898924       106.0951 
 750   0.0000       3.902768       106.1997 
 751   0.0000       3.911882       106.4477 
 752   0.0000       3.916052       106.5612 
 753   0.0000       3.921689       106.7146 
 754   0.0000       3.924940       106.8031 
 755   0.0000       3.934039       107.0506 
 756   0.0000       3.938556       107.1735 
 757   0.0000       3.944584       107.3376 
 758   0.0000       3.951293       107.5201 
 759   0.0000       3.966316       107.9289 
 760   0.0000       3.973095       108.1134 
 761   0.0000       3.974677       108.1565 
 762   0.0000       3.979074       108.2761 
 763   0.0000       3.983120       108.3862 
 764   0.0000       3.987525       108.5061 
 765   0.0000       3.993864       108.6786 
 766   0.0000       4.010211       109.1234 
 767   0.0000       4.014150       109.2306 
 768   0.0000       4.025913       109.5507 
 769   0.0000       4.033623       109.7605 
 770   0.0000       4.038920       109.9046 
 771   0.0000       4.041833       109.9839 
 772   0.0000       4.043756       110.0362 
 773   0.0000       4.052338       110.2697 
 774   0.0000       4.069152       110.7272 
 775   0.0000       4.072934       110.8302 
 776   0.0000       4.081336       111.0588 
 777   0.0000       4.088795       111.2618 
 778   0.0000       4.106264       111.7371 
 779   0.0000       4.113247       111.9271 
 780   0.0000       4.116315       112.0106 
 781   0.0000       4.123994       112.2196 
 782   0.0000       4.134590       112.5079 
 783   0.0000       4.136722       112.5659 
 784   0.0000       4.140490       112.6685 
 785   0.0000       4.145153       112.7954 
 786   0.0000       4.148369       112.8829 
 787   0.0000       4.170818       113.4937 
 788   0.0000       4.178406       113.7002 
 789   0.0000       4.185503       113.8933 
 790   0.0000       4.193244       114.1040 
 791   0.0000       4.199715       114.2801 
 792   0.0000       4.208105       114.5084 
 793   0.0000       4.226107       114.9982 
 794   0.0000       4.231755       115.1519 
 795   0.0000       4.243097       115.4605 
 796   0.0000       4.246451       115.5518 
 797   0.0000       4.262900       115.9994 
 798   0.0000       4.266467       116.0965 
 799   0.0000       4.287107       116.6581 
 800   0.0000       4.293724       116.8382 
 801   0.0000       4.297208       116.9330 
 802   0.0000       4.305220       117.1510 
 803   0.0000       4.310825       117.3035 
 804   0.0000       4.319192       117.5312 
 805   0.0000       4.333607       117.9234 
 806   0.0000       4.337338       118.0250 
 807   0.0000       4.343788       118.2005 
 808   0.0000       4.358008       118.5874 
 809   0.0000       4.363235       118.7297 
 810   0.0000       4.375313       119.0583 
 811   0.0000       4.379476       119.1716 
 812   0.0000       4.389372       119.4409 
 813   0.0000       4.399108       119.7058 
 814   0.0000       4.410758       120.0228 
 815   0.0000       4.418107       120.2228 
 816   0.0000       4.422623       120.3457 
 817   0.0000       4.440229       120.8248 
 818   0.0000       4.450258       121.0977 
 819   0.0000       4.458604       121.3248 
 820   0.0000       4.476756       121.8187 
 821   0.0000       4.485507       122.0569 
 822   0.0000       4.487646       122.1151 
 823   0.0000       4.500433       122.4630 
 824   0.0000       4.509831       122.7187 
 825   0.0000       4.519083       122.9705 
 826   0.0000       4.526013       123.1591 
 827   0.0000       4.537517       123.4721 
 828   0.0000       4.541124       123.5703 
 829   0.0000       4.541813       123.5890 
 830   0.0000       4.550168       123.8164 
 831   0.0000       4.564755       124.2133 
 832   0.0000       4.576944       124.5450 
 833   0.0000       4.594588       125.0251 
 834   0.0000       4.605479       125.3215 
 835   0.0000       4.617949       125.6608 
 836   0.0000       4.623654       125.8160 
 837   0.0000       4.627381       125.9174 
 838   0.0000       4.657069       126.7253 
 839   0.0000       4.668329       127.0317 
 840   0.0000       4.672835       127.1543 
 841   0.0000       4.681895       127.4009 
 842   0.0000       4.686166       127.5171 
 843   0.0000       4.696021       127.7852 
 844   0.0000       4.712376       128.2303 
 845   0.0000       4.714603       128.2909 
 846   0.0000       4.731430       128.7487 
 847   0.0000       4.740273       128.9894 
 848   0.0000       4.747200       129.1779 
 849   0.0000       4.757390       129.4552 
 850   0.0000       4.778192       130.0212 
 851   0.0000       4.790142       130.3464 
 852   0.0000       4.806012       130.7782 
 853   0.0000       4.812460       130.9537 
 854   0.0000       4.823695       131.2594 
 855   0.0000       4.837690       131.6402 
 856   0.0000       4.843204       131.7903 
 857   0.0000       4.859622       132.2370 
 858   0.0000       4.878584       132.7530 
 859   0.0000       4.885822       132.9500 
 860   0.0000       4.895380       133.2101 
 861   0.0000       4.907193       133.5315 
 862   0.0000       4.916269       133.7785 
 863   0.0000       4.921726       133.9270 
 864   0.0000       4.931713       134.1987 
 865   0.0000       4.947267       134.6220 
 866   0.0000       4.966482       135.1448 
 867   0.0000       4.977093       135.4336 
 868   0.0000       4.980637       135.5300 
 869   0.0000       4.996371       135.9582 
 870   0.0000       5.001256       136.0911 
 871   0.0000       5.007460       136.2599 
 872   0.0000       5.036142       137.0404 
 873   0.0000       5.039306       137.1265 
 874   0.0000       5.049170       137.3949 
 875   0.0000       5.053292       137.5071 
 876   0.0000       5.064075       137.8005 
 877   0.0000       5.081789       138.2825 
 878   0.0000       5.096888       138.6934 
 879   0.0000       5.120992       139.3493 
 880   0.0000       5.124203       139.4366 
 881   0.0000       5.133023       139.6767 
 882   0.0000       5.138211       139.8178 
 883   0.0000       5.160821       140.4331 
 884   0.0000       5.166677       140.5924 
 885   0.0000       5.173017       140.7650 
 886   0.0000       5.180273       140.9624 
 887   0.0000       5.192461       141.2941 
 888   0.0000       5.211988       141.8254 
 889   0.0000       5.222955       142.1238 
 890   0.0000       5.242566       142.6575 
 891   0.0000       5.252243       142.9208 
 892   0.0000       5.263754       143.2340 
 893   0.0000       5.277374       143.6046 
 894   0.0000       5.282482       143.7437 
 895   0.0000       5.291791       143.9969 
 896   0.0000       5.308088       144.4404 
 897   0.0000       5.316656       144.6736 
 898   0.0000       5.334517       145.1596 
 899   0.0000       5.356863       145.7676 
 900   0.0000       5.368362       146.0806 
 901   0.0000       5.369886       146.1220 
 902   0.0000       5.373521       146.2209 
 903   0.0000       5.409242       147.1930 
 904   0.0000       5.418260       147.4384 
 905   0.0000       5.422948       147.5659 
 906   0.0000       5.430736       147.7779 
 907   0.0000       5.457510       148.5064 
 908   0.0000       5.465816       148.7324 
 909   0.0000       5.468402       148.8028 
 910   0.0000       5.478795       149.0856 
 911   0.0000       5.484309       149.2356 
 912   0.0000       5.488505       149.3498 
 913   0.0000       5.496274       149.5612 
 914   0.0000       5.530401       150.4899 
 915   0.0000       5.538134       150.7003 
 916   0.0000       5.549820       151.0183 
 917   0.0000       5.575654       151.7213 
 918   0.0000       5.585985       152.0024 
 919   0.0000       5.593087       152.1956 
 920   0.0000       5.605758       152.5404 
 921   0.0000       5.610211       152.6616 
 922   0.0000       5.625104       153.0668 
 923   0.0000       5.630597       153.2163 
 924   0.0000       5.644472       153.5939 
 925   0.0000       5.654668       153.8713 
 926   0.0000       5.670640       154.3060 
 927   0.0000       5.676212       154.4576 
 928   0.0000       5.686241       154.7305 
 929   0.0000       5.706244       155.2748 
 930   0.0000       5.711091       155.4067 
 931   0.0000       5.713304       155.4669 
 932   0.0000       5.734759       156.0507 
 933   0.0000       5.746255       156.3635 
 934   0.0000       5.767139       156.9318 
 935   0.0000       5.785083       157.4201 
 936   0.0000       5.791553       157.5962 
 937   0.0000       5.798208       157.7773 
 938   0.0000       5.813747       158.2001 
 939   0.0000       5.832741       158.7170 
 940   0.0000       5.849814       159.1815 
 941   0.0000       5.868014       159.6768 
 942   0.0000       5.884247       160.1185 
 943   0.0000       5.908353       160.7745 
 944   0.0000       5.916409       160.9937 
 945   0.0000       6.016907       163.7284 
 946   0.0000       6.052096       164.6859 
 947   0.0000       6.086586       165.6244 
 948   0.0000       6.113220       166.3492 
 949   0.0000       6.129095       166.7811 
 950   0.0000       6.142019       167.1328 
 951   0.0000       6.163262       167.7109 
 952   0.0000       6.182610       168.2374 
 953   0.0000       6.198706       168.6754 
 954   0.0000       6.227006       169.4454 
 955   0.0000       6.238306       169.7529 
 956   0.0000       6.249154       170.0481 
 957   0.0000       6.266493       170.5199 
 958   0.0000       6.276202       170.7841 
 959   0.0000       6.295348       171.3051 
 960   0.0000       6.317527       171.9087 
 961   0.0000       6.327062       172.1681 
 962   0.0000       6.339169       172.4975 
 963   0.0000       6.362554       173.1339 
 964   0.0000       6.375442       173.4846 
 965   0.0000       6.393748       173.9827 
 966   0.0000       6.407895       174.3677 
 967   0.0000       6.421724       174.7440 
 968   0.0000       6.486682       176.5116 
 969   0.0000       6.525455       177.5667 
 970   0.0000       6.577492       178.9826 
 971   0.0000       6.672876       181.5782 
 972   0.0000       6.835595       186.0060 
 973   0.0000       6.858213       186.6215 
 974   0.0000       6.884279       187.3308 
 975   0.0000       6.901171       187.7904 
 976   0.0000       6.927370       188.5033 
 977   0.0000       6.958149       189.3409 
 978   0.0000       6.985123       190.0748 
 979   0.0000       7.003040       190.5624 
 980   0.0000       7.012986       190.8331 
 981   0.0000       7.033000       191.3777 
 982   0.0000       7.039558       191.5561 
 983   0.0000       7.070491       192.3978 
 984   0.0000       7.102364       193.2651 
 985   0.0000       7.156765       194.7455 
 986   0.0000       7.283924       198.2056 
 987   0.0000       7.347199       199.9274 
 988   0.0000       7.391722       201.1390 
 989   0.0000       7.446393       202.6267 
 990   0.0000       7.527826       204.8426 
 991   0.0000       7.613015       207.1607 
 992   0.0000       7.685850       209.1426 
 993   0.0000       7.695976       209.4182 
 994   0.0000       7.791887       212.0280 
 995   0.0000       7.904083       215.0810 
 996   0.0000       7.964891       216.7357 
 997   0.0000       8.044269       218.8957 
 998   0.0000       8.295404       225.7294 
 999   0.0000       9.416993       256.2494 
 1000   0.0000       9.438508       256.8349 
 1001   0.0000       9.441375       256.9129 
 1002   0.0000       9.455364       257.2935 
 1003   0.0000       9.471071       257.7209 
 1004   0.0000       9.498790       258.4752 
 1005   0.0000       9.697698       263.8878 
 1006   0.0000      10.093671       274.6628 
 1007   0.0000      10.104283       274.9515 
 1008   0.0000      10.117302       275.3058 
 1009   0.0000      10.209609       277.8176 
 1010   0.0000      10.217713       278.0381 
 1011   0.0000      10.241354       278.6814 
 1012   0.0000      10.359395       281.8935 
 1013   0.0000      10.403401       283.0909 
 1014   0.0000      10.496604       285.6271 
 1015   0.0000      12.835595       349.2743 
 1016   0.0000      17.206365       468.2090 
 1017   0.0000      17.860038       485.9963 
 1018   0.0000      18.326871       498.6995 
 1019   0.0000      18.520482       503.9679 
 1020   0.0000      18.745754       510.0979 
 1021   0.0000      18.883975       513.8591 
 1022   0.0000      20.425893       555.8168 
 1023   0.0000      20.875780       568.0589 
 1024   0.0000      21.795348       593.0816 

                 SPIN DOWN ORBITALS
  NO   OCC          E(Eh)            E(eV) 
   0   1.0000    -261.562192     -7117.4691 
   1   1.0000    -104.785959     -2851.3709 
   2   1.0000    -104.781878     -2851.2598 
   3   1.0000    -104.780825     -2851.2312 
   4   1.0000     -32.071523      -872.7105 
   5   1.0000     -27.549462      -749.6590 
   6   1.0000     -27.549402      -749.6573 
   7   1.0000     -27.549166      -749.6509 
   8   1.0000     -20.587287      -560.2086 
   9   1.0000     -11.413106      -310.5664 
  10   1.0000     -11.303005      -307.5704 
  11   1.0000     -11.269568      -306.6605 
  12   1.0000     -11.263677      -306.5002 
  13   1.0000     -11.259289      -306.3808 
  14   1.0000     -11.258190      -306.3509 
  15   1.0000     -11.244018      -305.9653 
  16   1.0000     -11.241795      -305.9048 
  17   1.0000     -10.512532      -286.0605 
  18   1.0000     -10.508437      -285.9491 
  19   1.0000     -10.507346      -285.9194 
  20   1.0000      -7.978423      -217.1039 
  21   1.0000      -7.977799      -217.0869 
  22   1.0000      -7.977747      -217.0855 
  23   1.0000      -7.974339      -216.9928 
  24   1.0000      -7.973653      -216.9741 
  25   1.0000      -7.973565      -216.9717 
  26   1.0000      -7.973326      -216.9652 
  27   1.0000      -7.972518      -216.9432 
  28   1.0000      -7.972432      -216.9409 
  29   1.0000      -4.146407      -112.8295 
  30   1.0000      -2.668050       -72.6013 
  31   1.0000      -2.668027       -72.6007 
  32   1.0000      -2.667342       -72.5821 
  33   1.0000      -1.426686       -38.8221 
  34   1.0000      -1.148252       -31.2455 
  35   1.0000      -1.089411       -29.6444 
  36   1.0000      -1.044407       -28.4198 
  37   1.0000      -1.032415       -28.0934 
  38   1.0000      -1.030565       -28.0431 
  39   1.0000      -1.028781       -27.9945 
  40   1.0000      -1.000104       -27.2142 
  41   1.0000      -0.974484       -26.5171 
  42   1.0000      -0.911675       -24.8079 
  43   1.0000      -0.814416       -22.1614 
  44   1.0000      -0.746761       -20.3204 
  45   1.0000      -0.700047       -19.0492 
  46   1.0000      -0.689071       -18.7506 
  47   1.0000      -0.682519       -18.5723 
  48   1.0000      -0.667159       -18.1543 
  49   1.0000      -0.635596       -17.2954 
  50   1.0000      -0.622022       -16.9261 
  51   1.0000      -0.604158       -16.4400 
  52   1.0000      -0.595998       -16.2179 
  53   1.0000      -0.582446       -15.8492 
  54   1.0000      -0.573125       -15.5955 
  55   1.0000      -0.564543       -15.3620 
  56   1.0000      -0.557781       -15.1780 
  57   1.0000      -0.552918       -15.0457 
  58   1.0000      -0.544893       -14.8273 
  59   1.0000      -0.537494       -14.6260 
  60   1.0000      -0.516179       -14.0459 
  61   1.0000      -0.509107       -13.8535 
  62   1.0000      -0.491213       -13.3666 
  63   1.0000      -0.477632       -12.9970 
  64   1.0000      -0.475492       -12.9388 
  65   1.0000      -0.447444       -12.1756 
  66   1.0000      -0.444393       -12.0926 
  67   1.0000      -0.441822       -12.0226 
  68   1.0000      -0.426486       -11.6053 
  69   1.0000      -0.422441       -11.4952 
  70   1.0000      -0.407801       -11.0968 
  71   1.0000      -0.370073       -10.0702 
  72   0.0000       0.011625         0.3163 
  73   0.0000       0.021844         0.5944 
  74   0.0000       0.023089         0.6283 
  75   0.0000       0.029766         0.8100 
  76   0.0000       0.037675         1.0252 
  77   0.0000       0.039926         1.0864 
  78   0.0000       0.042254         1.1498 
  79   0.0000       0.044355         1.2070 
  80   0.0000       0.044720         1.2169 
  81   0.0000       0.049979         1.3600 
  82   0.0000       0.056943         1.5495 
  83   0.0000       0.060592         1.6488 
  84   0.0000       0.062684         1.7057 
  85   0.0000       0.063757         1.7349 
  86   0.0000       0.064791         1.7630 
  87   0.0000       0.072251         1.9660 
  88   0.0000       0.076601         2.0844 
  89   0.0000       0.081368         2.2141 
  90   0.0000       0.089766         2.4427 
  91   0.0000       0.091918         2.5012 
  92   0.0000       0.093434         2.5425 
  93   0.0000       0.097245         2.6462 
  94   0.0000       0.100412         2.7324 
  95   0.0000       0.103247         2.8095 
  96   0.0000       0.106239         2.8909 
  97   0.0000       0.111906         3.0451 
  98   0.0000       0.112638         3.0650 
  99   0.0000       0.114796         3.1237 
 100   0.0000       0.116233         3.1629 
 101   0.0000       0.117853         3.2069 
 102   0.0000       0.121076         3.2946 
 103   0.0000       0.123074         3.3490 
 104   0.0000       0.124535         3.3888 
 105   0.0000       0.125710         3.4207 
 106   0.0000       0.128987         3.5099 
 107   0.0000       0.130416         3.5488 
 108   0.0000       0.132880         3.6159 
 109   0.0000       0.135766         3.6944 
 110   0.0000       0.136516         3.7148 
 111   0.0000       0.139523         3.7966 
 112   0.0000       0.144809         3.9405 
 113   0.0000       0.147102         4.0029 
 114   0.0000       0.152682         4.1547 
 115   0.0000       0.154098         4.1932 
 116   0.0000       0.158593         4.3155 
 117   0.0000       0.161776         4.4022 
 118   0.0000       0.162783         4.4296 
 119   0.0000       0.167511         4.5582 
 120   0.0000       0.171659         4.6711 
 121   0.0000       0.174043         4.7360 
 122   0.0000       0.178383         4.8541 
 123   0.0000       0.180973         4.9245 
 124   0.0000       0.183112         4.9827 
 125   0.0000       0.188063         5.1175 
 126   0.0000       0.191474         5.2103 
 127   0.0000       0.193625         5.2688 
 128   0.0000       0.197968         5.3870 
 129   0.0000       0.200934         5.4677 
 130   0.0000       0.201115         5.4726 
 131   0.0000       0.203439         5.5359 
 132   0.0000       0.206460         5.6181 
 133   0.0000       0.209626         5.7042 
 134   0.0000       0.217405         5.9159 
 135   0.0000       0.221041         6.0148 
 136   0.0000       0.225820         6.1449 
 137   0.0000       0.227985         6.2038 
 138   0.0000       0.230620         6.2755 
 139   0.0000       0.235191         6.3999 
 140   0.0000       0.237285         6.4568 
 141   0.0000       0.240357         6.5404 
 142   0.0000       0.242134         6.5888 
 143   0.0000       0.248262         6.7556 
 144   0.0000       0.250538         6.8175 
 145   0.0000       0.251437         6.8419 
 146   0.0000       0.253588         6.9005 
 147   0.0000       0.260767         7.0958 
 148   0.0000       0.262521         7.1436 
 149   0.0000       0.269414         7.3311 
 150   0.0000       0.273557         7.4439 
 151   0.0000       0.278449         7.5770 
 152   0.0000       0.280861         7.6426 
 153   0.0000       0.282731         7.6935 
 154   0.0000       0.287091         7.8121 
 155   0.0000       0.292563         7.9611 
 156   0.0000       0.294255         8.0071 
 157   0.0000       0.298788         8.1304 
 158   0.0000       0.300195         8.1687 
 159   0.0000       0.306346         8.3361 
 160   0.0000       0.309832         8.4310 
 161   0.0000       0.320352         8.7172 
 162   0.0000       0.321691         8.7537 
 163   0.0000       0.323905         8.8139 
 164   0.0000       0.329315         8.9611 
 165   0.0000       0.331847         9.0300 
 166   0.0000       0.337741         9.1904 
 167   0.0000       0.341677         9.2975 
 168   0.0000       0.344480         9.3738 
 169   0.0000       0.345455         9.4003 
 170   0.0000       0.351565         9.5666 
 171   0.0000       0.355826         9.6825 
 172   0.0000       0.359802         9.7907 
 173   0.0000       0.363482         9.8908 
 174   0.0000       0.365084         9.9344 
 175   0.0000       0.367387         9.9971 
 176   0.0000       0.372190        10.1278 
 177   0.0000       0.373369        10.1599 
 178   0.0000       0.381854        10.3908 
 179   0.0000       0.384179        10.4541 
 180   0.0000       0.387168        10.5354 
 181   0.0000       0.389616        10.6020 
 182   0.0000       0.393936        10.7195 
 183   0.0000       0.395361        10.7583 
 184   0.0000       0.396593        10.7918 
 185   0.0000       0.397303        10.8112 
 186   0.0000       0.398975        10.8567 
 187   0.0000       0.401918        10.9367 
 188   0.0000       0.404640        11.0108 
 189   0.0000       0.411358        11.1936 
 190   0.0000       0.417572        11.3627 
 191   0.0000       0.419697        11.4205 
 192   0.0000       0.423421        11.5219 
 193   0.0000       0.428117        11.6496 
 194   0.0000       0.431912        11.7529 
 195   0.0000       0.437302        11.8996 
 196   0.0000       0.439672        11.9641 
 197   0.0000       0.441964        12.0265 
 198   0.0000       0.446534        12.1508 
 199   0.0000       0.451022        12.2729 
 200   0.0000       0.456943        12.4341 
 201   0.0000       0.460277        12.5248 
 202   0.0000       0.462821        12.5940 
 203   0.0000       0.466308        12.6889 
 204   0.0000       0.467594        12.7239 
 205   0.0000       0.469623        12.7791 
 206   0.0000       0.477628        12.9969 
 207   0.0000       0.480907        13.0861 
 208   0.0000       0.482656        13.1337 
 209   0.0000       0.484791        13.1918 
 210   0.0000       0.487953        13.2779 
 211   0.0000       0.494831        13.4650 
 212   0.0000       0.496822        13.5192 
 213   0.0000       0.499255        13.5854 
 214   0.0000       0.503778        13.7085 
 215   0.0000       0.504707        13.7338 
 216   0.0000       0.506402        13.7799 
 217   0.0000       0.510298        13.8859 
 218   0.0000       0.515531        14.0283 
 219   0.0000       0.516965        14.0673 
 220   0.0000       0.520902        14.1745 
 221   0.0000       0.522846        14.2274 
 222   0.0000       0.526326        14.3221 
 223   0.0000       0.530951        14.4479 
 224   0.0000       0.531671        14.4675 
 225   0.0000       0.534718        14.5504 
 226   0.0000       0.539559        14.6821 
 227   0.0000       0.540990        14.7211 
 228   0.0000       0.542764        14.7693 
 229   0.0000       0.548537        14.9264 
 230   0.0000       0.549451        14.9513 
 231   0.0000       0.555802        15.1241 
 232   0.0000       0.560857        15.2617 
 233   0.0000       0.561774        15.2867 
 234   0.0000       0.566142        15.4055 
 235   0.0000       0.570849        15.5336 
 236   0.0000       0.573879        15.6160 
 237   0.0000       0.574889        15.6435 
 238   0.0000       0.581486        15.8230 
 239   0.0000       0.587935        15.9985 
 240   0.0000       0.588028        16.0010 
 241   0.0000       0.589760        16.0482 
 242   0.0000       0.594842        16.1865 
 243   0.0000       0.599023        16.3002 
 244   0.0000       0.602721        16.4009 
 245   0.0000       0.604371        16.4458 
 246   0.0000       0.605813        16.4850 
 247   0.0000       0.617141        16.7933 
 248   0.0000       0.620141        16.8749 
 249   0.0000       0.625604        17.0235 
 250   0.0000       0.626928        17.0596 
 251   0.0000       0.629895        17.1403 
 252   0.0000       0.635548        17.2941 
 253   0.0000       0.639609        17.4047 
 254   0.0000       0.642649        17.4874 
 255   0.0000       0.645413        17.5626 
 256   0.0000       0.652426        17.7534 
 257   0.0000       0.656468        17.8634 
 258   0.0000       0.658957        17.9311 
 259   0.0000       0.662702        18.0330 
 260   0.0000       0.666827        18.1453 
 261   0.0000       0.668452        18.1895 
 262   0.0000       0.674059        18.3421 
 263   0.0000       0.677228        18.4283 
 264   0.0000       0.679713        18.4959 
 265   0.0000       0.687133        18.6978 
 266   0.0000       0.692110        18.8333 
 267   0.0000       0.693374        18.8677 
 268   0.0000       0.698863        19.0170 
 269   0.0000       0.703125        19.1330 
 270   0.0000       0.710844        19.3431 
 271   0.0000       0.712919        19.3995 
 272   0.0000       0.717864        19.5341 
 273   0.0000       0.723838        19.6966 
 274   0.0000       0.726422        19.7669 
 275   0.0000       0.734849        19.9963 
 276   0.0000       0.737278        20.0623 
 277   0.0000       0.740224        20.1425 
 278   0.0000       0.743162        20.2225 
 279   0.0000       0.748875        20.3779 
 280   0.0000       0.751722        20.4554 
 281   0.0000       0.755188        20.5497 
 282   0.0000       0.765169        20.8213 
 283   0.0000       0.766536        20.8585 
 284   0.0000       0.771823        21.0024 
[...]
  | sigma^2 in % of trace(Dij) retained ...   9.12e+00
  | sigma^2 in % of trace(Dip) retained ...   1.92e+01
  | sigma^2 in % of trace(Dpq) retained ...   1.35e-01
  | Av. % of trace(Di) retained         ...  99.998512532650
  | Av. % of trace(Dp) retained         ...  99.999999375071
  | sigma^2 in % of trace(Di) retained  ...   7.02e-07
  | sigma^2 in % of trace(Dp) retained  ...   1.37e-12
 Distributions of % trace(Dij) recovered:
  |       >= 99.9  ...   105 ( 21.2 % of all IJ-pairs)
  |   [80.0, 90.0) ...    30 (  6.0 % of all IJ-pairs)
  |   [90.0, 99.0) ...   268 ( 54.0 % of all IJ-pairs)
  |   [99.0, 99.9) ...    93 ( 18.8 % of all IJ-pairs)
 Distributions of % trace(Dip) recovered:
  |   [80.0, 90.0) ...    18 ( 15.1 % of all IP-pairs)
  |   [90.0, 99.0) ...    57 ( 47.9 % of all IP-pairs)
  |   [99.0, 99.9) ...    44 ( 37.0 % of all IP-pairs)
 Distributions of % trace(Dpq) recovered:
  |       >= 99.9  ...     5 ( 33.3 % of all PQ-pairs)
  |   [99.0, 99.9) ...    10 ( 66.7 % of all PQ-pairs)
 Distributions of % trace(Di) recovered :
  |       >= 99.9  ...    43 (100.0 % of all I-pairs )
 Distributions of % trace(Dp) recovered :
  |       >= 99.9  ...     5 (100.0 % of all P-pairs )

                       ===========================
                       1093 OF 1685 PAIRS ARE KEPT
                       ===========================

 Initial PAO correlation energy (all pairs)    ...  -2.6933799926 Eh
 Energy constituents in PAO basis (Eh):
  | Vijab(+0) ...  -2.2656562525
  | Viab (-1) ...  -0.1745213858
  | Vab  (-2) ...  -0.0573528648
  | Va   (-1) ...  -0.0000431700
  | Vija (+1) ...  -0.0718011882
  | Vij  (+2) ...  -0.0155056660
  | Via  (+0) ...  -0.1083396277
  | Vi   (+1) ...  -0.0001598377
 Initial PNO correlation energy                ...  -2.6583238281 Eh
 Energy constituents in PNO basis (Eh):
  | Vijab(+0) ...  -2.2464029114 (err=  0.0192533411)
  | Viab (-1) ...  -0.1604105452 (err=  0.0141108406)
  | Vab  (-2) ...  -0.0569009781 (err=  0.0004518867)
  | Va   (-1) ...  -0.0000250450 (err=  0.0000181250)
  | Vija (+1) ...  -0.0707438223 (err=  0.0010573659)
  | Vij  (+2) ...  -0.0154399451 (err=  0.0000657208)
  | Via  (+0) ...  -0.1082411151 (err=  0.0000985126)
  | Vi   (+1) ...  -0.0001594660 (err=  0.0000003716)
 Sum of total truncation errors ...   0.0350561645 Eh
  | Pair screening ...   0.0121811842 Eh
  | PNO truncation ...   0.0228749803 Eh

 UMP2 correlation energy (PAO) ...  -2.6884208103
  | alpha-alpha ...  -0.3865240361 (NP_aa=  906)
  | alpha-beta  ...  -1.9950075213 (NP_ab= 1660)
  | beta -beta  ...  -0.3068892529 (NP_bb=  721)
 UMP2 correlation energy (PNO) ...  -2.6529765327
  | alpha-alpha ...  -0.3743604848 (err=  0.0121635513, NP_aa=  582)
  | alpha-beta  ...  -1.9759881007 (err=  0.0190194206, NP_ab= 1068)
  | beta -beta  ...  -0.3026279472 (err=  0.0042613057, NP_bb=  453)
 Sum of total UMP2 truncation errors ...   0.0354442776 Eh
  | Pair screening ...   0.0122025107 Eh
  | PNO truncation ...   0.0232417669 Eh
 Timing for NEV-PNO construction (sec.)
  | Intermediate construction  ..           42.930
  | Amplitude construction     ..           62.848
  | Total time                 ..          105.778
 Making pair pair interaction lists ...      ok
 Total size for 2-ext PNO integrals ...     11.0 MB
Checking the number of SOMO/SOMO doubles PNOs ... 
 #Truncate: (72, 72)[177] -> [86] .. 
 #Truncate: (73, 73)[178] -> [86] .. 
 #Truncate: (74, 74)[179] -> [86] .. 
 #Truncate: (75, 75)[177] -> [86] .. 
 #Truncate: (76, 76)[178] -> [86] .. 

--------------------------------
LOCAL RI TRANSFORMATION (VABPAO)
--------------------------------

Number of PAOs:    1030
Basis functions:   1025 (343 shells)
Aux. functions:    2424 (644 shells)

Processing maps (0.0 sec)
Average map sizes:
   Aux shells -> PAOs           1030.0
   PAOs       -> AO shells       343.0

Calculating integrals (196.3 sec, 37370.165 MB)
Finished
-----------------------------
LOCAL RI TRANSFORMATION (IJV)
-----------------------------

Orbital window:      29 to 76
Basis functions:   1025 (343 shells)
Aux. functions:    2424 (644 shells)

Processing maps (0.0 sec)
Average map sizes:
   Aux shells -> MOs(i)           46.6
   Aux shells -> MOs(j)           48.0
   MOs        -> AO shells       340.4

Calculating integrals (22.4 sec, 41.499 MB)
Sorting integrals (0.3 sec, 41.471 MB)
Total time for the integral transformation: 22.8 sec


-------------------------------------
Pair Pair Term precalculation with     
RI-(ij|mn) and (im|jn) transformation  
ON THE FLY                             
-------------------------------------

   IBatch   1 (of   2)              ... done ( 1130.574 sec)
   IBatch   2 (of   2)              ... done ( 1008.407 sec)
Total EXT                           ...        2138.981 sec

---------------------
RI-PNO TRANSFORMATION
---------------------

Total Number of PNOs                   ... 34190
Total Number of IJ-PNOs                ... 30015
Total Number of IP-PNOs                ...  3217
Total Number of PQ-PNOs                ...   958
Total Number of IJ-pairs               ...   949
Total Number of PI-pairs               ...   119
Total Number of PQ-pairs               ...    25
Average number of PNOs per pair        ...    31
Maximal number of PNOs per pair        ...    86
>> Statistics for ij-pairs..
   #pairs with  1 -  5 PNOs   :    0
   #pairs with  6 - 10 PNOs   :    0
   #pairs with 11 - 15 PNOs   :   62
   #pairs with 16 - 20 PNOs   :  228
   #pairs with 21 - 25 PNOs   :  166
   #pairs with 26 - 30 PNOs   :  140
   #pairs with 31 - 35 PNOs   :   56
   #pairs with 36 - 40 PNOs   :   52
   #pairs with 41 - 45 PNOs   :   48
   #pairs with 46 - 50 PNOs   :   24
   #pairs with 51 - 55 PNOs   :   37
   #pairs with 56 - 60 PNOs   :   54
   #pairs with 61 - 65 PNOs   :   77
   #pairs with 66 - 70 PNOs   :    2
   #pairs with 76 - 80 PNOs   :    1
   #pairs with 81 - 85 PNOs   :    2
>> Statistics for ip-pairs..
   #pairs with  1 -  5 PNOs   :    0
   #pairs with  6 - 10 PNOs   :    1
   #pairs with 11 - 15 PNOs   :   17
   #pairs with 16 - 20 PNOs   :    3
   #pairs with 21 - 25 PNOs   :   29
   #pairs with 26 - 30 PNOs   :   11
   #pairs with 31 - 35 PNOs   :   44
   #pairs with 36 - 40 PNOs   :   13
   #pairs with 41 - 45 PNOs   :    1
   #pairs with 46 - 50 PNOs   :    0
>> Statistics for pq-pairs..
   #pairs with  1 -  5 PNOs   :    0
   #pairs with  6 - 10 PNOs   :    0
   #pairs with 11 - 15 PNOs   :    0
   #pairs with 16 - 20 PNOs   :    0
   #pairs with 21 - 25 PNOs   :   10
   #pairs with 26 - 30 PNOs   :   10
   #pairs with 31 - 35 PNOs   :    0
   #pairs with 36 - 40 PNOs   :    0
   #pairs with 41 - 45 PNOs   :    0
   #pairs with 46 - 50 PNOs   :    0
   #pairs with 86 - 90 PNOs   :    5

Generation of (ij|ab)[P] integrals            ... on
Generation of (ia|bc)[P],(ja|bc)[P] integrals ... on
Storage of 3 and 4 external integrals         ... on
Generation of ALL (ka|bc)[P] integrals        ... on
Keep RI integrals in memory                   ... off

Ibatch:  1 (of  1)
Starting 2-4 index PNO integral generation ... done

Timings:
Total PNO integral transformation time     ...       2102.871 sec
Size of the 3-external file                ...       288 MB
Size of the 4-external file                ...      1966 MB
Size of the IKJL file                      ...        18 MB
Size of the all 3-external file            ...      6918 MB
Size of the 1-external file                ...        22 MB

Size of the PAO/PNO coefficient matrices   ...     219.5 MB

Making pair/pair overlap matrices          ... done (  321.369 sec)
Size of the pair overlap file              ...    2420.0 MB
Total # unrestricted pairs ...       2103
  # of alpha-alpha pairs   ...        582
  # of alpha-beta pairs    ...       1068
  # of beta-beta pairs     ...        453
Constructing the guess amplitudes          ... done (    0.601 sec)

-------------------------
FINAL STARTUP INFORMATION
-------------------------

E(0)                                       ...  -3028.441093965
E(SL-UMP2 in NEV-PNO space)                ...     -2.689444377
Initial E(tot)                             ...  -3031.130538342
<T|T>                                      ...      0.535180889
Number of unrestricted pairs included      ... 2103
Total number of pairs                      ... 4095
----------------------------------------------------------
                     OPEN-SHELL COUPLED CLUSTER ITERATIONS
----------------------------------------------------------

Number of PNO amplitudes to be optimized        ...          2110004
Number of canonical amplitudes for strong pairs ...       1899429080
Untruncated number of canonical amplitudes      ...       3698645738

Iter       E(tot)           E(Corr)          Delta-E          Residual     Time
  0  -3031.137730538     -2.660168728      0.029275649      0.020631029 1655.24
                           *** Turning on DIIS ***
  1  -3031.250753988     -2.773192179     -0.113023451      0.008626122 1611.69
  2  -3031.315358947     -2.837797137     -0.064604958      0.008294386 1874.20
  3  -3031.336749911     -2.859188102     -0.021390964      0.002944760 1910.23
  4  -3031.344050805     -2.866488995     -0.007300894      0.002671181 1913.11
  5  -3031.347992468     -2.870430658     -0.003941663      0.001575731 1931.83
  6  -3031.349421928     -2.871860119     -0.001429461      0.000902109 1938.43
  7  -3031.350105598     -2.872543788     -0.000683669      0.000574059 1928.78
  8  -3031.350258417     -2.872696608     -0.000152819      0.000282077 1921.31
  9  -3031.350316405     -2.872754596     -0.000057988      0.000192262 1918.39
 10  -3031.350313498     -2.872751689      0.000002907      0.000118868 1913.84
 11  -3031.350325469     -2.872763660     -0.000011971      0.000079656 1911.85
 12  -3031.350331017     -2.872769208     -0.000005548      0.000039212 1908.24
 13  -3031.350333470     -2.872771660     -0.000002453      0.000017243 1903.52
 14  -3031.350334960     -2.872773151     -0.000001491      0.000006155 1902.09
               --- The CCSD iterations have converged ---

E(0)                                       ...  -3028.441093965
E(CORR)(strong-pairs)                      ...     -2.872773151
E(CORR)(weak-pairs)                        ...     -0.036467844
E(CORR)(corrected)                         ...     -2.909240995
E(TOT)                                     ...  -3031.350334960
Singles norm <S|S>**1/2                    ...      0.193163834 ( 0.064922585, 0.128241250)  
T1 diagnostic                              ...      0.020249072                              
<S**2>(linearized)                         ...      8.7507958 (ideal value:      8.7500000)

----------------------
LARGEST PNO AMPLITUDES
----------------------
  50b-> 76b  -1b-> -1b       0.054910
  71a-> 78a  71b-> 78b       0.053704
  71a-> 77a  71b-> 77b       0.053399
  48b-> 72b  -1b-> -1b       0.053238
  51b-> 76b  -1b-> -1b       0.052984
  48b-> 74b  -1b-> -1b       0.046902
  48b-> 75b  -1b-> -1b       0.045865
  44a-> 77a  -1a-> -1a       0.045861
  65a-> 77a  65b-> 77b       0.045443
  44b-> 77b  -1b-> -1b       0.045042
  54a-> 77a  54b-> 77b       0.044532
  61a-> 77a  61b-> 77b       0.044436
  69a-> 77a  69b-> 77b       0.043836
  55a-> 78a  55b-> 78b       0.042979
  38b-> 73b  -1b-> -1b       0.042897
  63a-> 77a  63b-> 77b       0.042825

Total # unrestricted pairs ...       1184
  # of alpha-alpha pairs   ...        324
  # of alpha-beta pairs    ...        592
  # of beta-beta pairs     ...        268

-------------------------------------------
DLPNO BASED TRIPLES CORRECTION
-------------------------------------------

Singles multiplier          ...  1.000000
Fragment selection                          .... not used
TCutTNO                     ... 1.000e-09
TCutMP2Pairs                ... 1.000e-05
TCutDOStrong                ... 2.000e-02
TCutMKNStrong               ... 1.000e-02
TCutDOWeak                  ... 4.000e-02
TCutMKNWeak                 ... 1.000e-01
NTCutTNO                    ... 1

Number of Triples that are to be computed         ...     33674

 . . . . . . . . .
10% done  
20% done  
30% done  
40% done  
50% done  
60% done  
70% done  
80% done  
90% done  
          Batch   1   done (  14572.116 sec)

Triples-Correction TCutTNO=   1.000e-09 (NWeakPairs = 0  1  2  3)  -0.117520070403   -0.001993962904    0.000000000000    0.000000000000
Triples-Correction  -0.119514033307

Triples timings:
Total time                      ... 15214.582 sec

Triples List generation         ...     0.000 sec
TNO generation                  ...   642.177 sec
Pair density generation         ...     0.105 sec
Look up tables                  ...     0.111 sec
Generating 3-index integrals    ...  8959.788 sec
Make 4-ind.int. from 3-ind.int  ...     3.371 sec
Projecting amplitudes (D + S)   ...  5359.866 sec
Sorting integrals for spin cases...    51.783 sec
Calculate W0/W1                 ...   159.519 sec
Energy contr. (sum over a,b,c)  ...    37.660 sec

Everything after 3-index        ...  5735.237 sec

Energy contribution AAA         ...    24.248 sec
Energy contribution AAB         ...   110.379 sec
Energy contribution ABB         ...   100.840 sec
Energy contribution BBB         ...    13.537 sec
prep                ...     3.123 sec
makeTTNO            ...  5304.846 sec
copyij              ...     0.125 sec
copyil              ...     3.997 sec
transposeij         ...     0.076 sec
newMatInDoubleProj  ...    52.746 sec
BlasInDoubleProj    ...  2878.280 sec
ProjSingles         ...    45.285 sec
ProjDoubles         ...  5314.580 sec
overall Doubles for projection      ... 3015342
used Doubles for projection         ... 3015342


Number of Triples   (0, 1, 2, 3 weak pairs; overall):  15645   12235       0       0  ( 27880)
Number of Atoms     (0, 1, 2, 3 weak pairs; overall):   19.5    14.2     0.0     0.0  (    29)
Number of PAOs      (0, 1, 2, 3 weak pairs; overall):  762.7   575.3     0.0     0.0  (  1025)
Number of AuxFcns   (0, 1, 2, 3 weak pairs; overall):  887.2   573.9     0.0     0.0  (  2424)
Number of TNOs (0, 1, 2, 3 weak pairs         ):   79.6    56.3     0.0     0.0
Aver. Number of NTNO, Atoms, PAOs, AuxFcns / Triples:  27880    69.4    17.2   680.4   749.7

Triples Correction (T)                     ...     -0.119514033
    alpha-alpha-alpha ... -0.003883160 (  3.2%)
    alpha-alpha-beta  ... -0.056119054 ( 47.0%)
    alpha-beta -beta  ... -0.055399510 ( 46.4%)
    beta -beta -beta  ... -0.004112310 (  3.4%)
Final correlation energy                   ...     -3.028755029
E(CCSD)                                    ...  -3031.350334960
E(CCSD(T))                                 ...  -3031.469848994

----------------------------
STATISTICS FOR PAIR-ENERGIES
----------------------------
Minimum, maximum and average ratios of UMP and CCSD pair-energies ... 0.54, 1.44, 1.02


------------------------------------------------------------------------------- 
                                     TIMINGS                                   
------------------------------------------------------------------------------- 


Total execution time                   ...    51502.162 sec

Localization of occupied MO's          ...        9.953 sec (  0.0%)
Fock Matrix Formation                  ...     1369.679 sec (  2.7%)
Differential overlap integrals         ...        1.406 sec (  0.0%)
Organizing maps                        ...        1.679 sec (  0.0%)
RI 3-index integral generations        ...      283.241 sec (  0.5%)
RI-PNO integral transformation         ...     4751.291 sec (  9.2%)
Initial Guess                          ...     1808.926 sec (  3.5%)
DIIS Solver                            ...       18.287 sec (  0.0%)
State Vector Update                    ...        0.756 sec (  0.0%)
Sigma-vector construction              ...    28142.749 sec ( 54.6%)
  <0|H|D>                              ...        0.030 sec (  0.0% of sigma)
  <D|H|D>(0-ext)                       ...     5619.120 sec ( 20.0% of sigma)
  <D|H|D>(2-ext Fock)                  ...        1.595 sec (  0.0% of sigma)
  <D|H|D>(2-ext)                       ...     3535.534 sec ( 12.6% of sigma)
  <D|H|D>(4-ext)                       ...      175.215 sec (  0.6% of sigma)
  <D|H|D>(4-ext-corr)                  ...     1082.956 sec (  3.8% of sigma)
  CCSD doubles correction              ...      516.121 sec (  1.8% of sigma)
  <S|H|S>                              ...      725.993 sec (  2.6% of sigma)
  <S|H|D>(1-ext)                       ...      285.294 sec (  1.0% of sigma)
  <D|H|S>(1-ext)                       ...        0.786 sec (  0.0% of sigma)
  <S|H|D>(3-ext)                       ...       21.757 sec (  0.1% of sigma)
  CCSD singles correction              ...        0.005 sec (  0.0% of sigma)
  Fock-dressing                        ...     8474.842 sec ( 30.1% of sigma)
  Singles amplitudes                   ...      117.842 sec (  0.4% of sigma)
  (ik|jl)-dressing                     ...     5972.401 sec ( 21.2% of sigma)
  (ij|ab),(ia|jb)-dressing             ...     1419.640 sec (  5.0% of sigma)
  Pair energies                        ...        0.162 sec (  0.0% of sigma)
Total Time for computing (T)           ...    15456.618 sec ( 30.0% of ALL)


-------------------------   --------------------
FINAL SINGLE POINT ENERGY     -3031.469848993645
-------------------------   --------------------


                            ***************************************
                            *     ORCA property calculations      *
                            ***************************************

                                    ---------------------
                                    Active property flags
                                    ---------------------
   (+) Dipole Moment


------------------------------------------------------------------------------
                       ORCA ELECTRIC PROPERTIES CALCULATION
------------------------------------------------------------------------------

Dipole Moment Calculation                       ... on
Quadrupole Moment Calculation                   ... off
Polarizability Calculation                      ... off
GBWName                                         ... simple-grid-225-265-b3lyp_d3bj-631gd-gas-singlepoint-DLPNO_CCSD_T1-NormalPNO-augtz-gas.gbw
Electron density file                           ... simple-grid-225-265-b3lyp_d3bj-631gd-gas-singlepoint-DLPNO_CCSD_T1-NormalPNO-augtz-gas.scfp.tmp
The origin for moment calculation is the CENTER OF MASS  = ( 0.308776,  0.036236  0.014033)

-------------
DIPOLE MOMENT
-------------
                                X             Y             Z
Electronic contribution:     42.04887       4.51646       1.52041
Nuclear contribution   :    -46.00756      -5.39913      -2.09097
                        -----------------------------------------
Total Dipole Moment    :     -3.95869      -0.88266      -0.57056
                        -----------------------------------------
Magnitude (a.u.)       :      4.09584
Magnitude (Debye)      :     10.41079



--------------------
Rotational spectrum 
--------------------
 
Rotational constants in cm-1:     0.019099     0.011128     0.010461 
Rotational constants in MHz :   572.585255   333.608670   313.601902 

 Dipole components along the rotational axes: 
x,y,z [a.u.] :    -3.952635     0.880821    -0.613768 
x,y,z [Debye]:   -10.046800     2.238869    -1.560073 

 

Timings for individual modules:

Sum of individual times         ...    67504.951 sec (=1125.083 min)
GTO integral calculation        ...       12.557 sec (=   0.209 min)   0.0 %
SCF iterations                  ...    15973.120 sec (= 266.219 min)  23.7 %
MDCI module                     ...    51519.274 sec (= 858.655 min)  76.3 %
                             ****ORCA TERMINATED NORMALLY****
TOTAL RUN TIME: 0 days 18 hours 45 minutes 7 seconds 484 msec
