 Entering Gaussian System, Link 0=g16
 Input=styrene-first_betaine_gs3-b3lyp_d3bj-juldz-gas.gjf
 Output=styrene-first_betaine_gs3-b3lyp_d3bj-juldz-gas.out
 Initial command:
 /SFS/product/gaussian/g16.a03/x86_64/avx/g16/l1.exe "/scratch/kwaneu.3018110.bmbhpcps002/Gau-30853.inp" -scrdir="/scratch/kwaneu.3018110.bmbhpcps002/"
 Entering Link 1 = /SFS/product/gaussian/g16.a03/x86_64/avx/g16/l1.exe PID=     30854.
  
 Copyright (c) 1988,1990,1992,1993,1995,1998,2003,2009,2016,
            Gaussian, Inc.  All Rights Reserved.
  
 This is part of the Gaussian(R) 16 program.  It is based on
 the Gaussian(R) 09 system (copyright 2009, Gaussian, Inc.),
 the Gaussian(R) 03 system (copyright 2003, Gaussian, Inc.),
 the Gaussian(R) 98 system (copyright 1998, Gaussian, Inc.),
 the Gaussian(R) 94 system (copyright 1995, Gaussian, Inc.),
 the Gaussian 92(TM) system (copyright 1992, Gaussian, Inc.),
 the Gaussian 90(TM) system (copyright 1990, Gaussian, Inc.),
 the Gaussian 88(TM) system (copyright 1988, Gaussian, Inc.),
 the Gaussian 86(TM) system (copyright 1986, Carnegie Mellon
 University), and the Gaussian 82(TM) system (copyright 1983,
 Carnegie Mellon University). Gaussian is a federally registered
 trademark of Gaussian, Inc.
  
 This software contains proprietary and confidential information,
 including trade secrets, belonging to Gaussian, Inc.
  
 This software is provided under written license and may be
 used, copied, transmitted, or stored only in accord with that
 written license.
  
 The following legend is applicable only to US Government
 contracts under FAR:
  
                    RESTRICTED RIGHTS LEGEND
  
 Use, reproduction and disclosure by the US Government is
 subject to restrictions as set forth in subparagraphs (a)
 and (c) of the Commercial Computer Software - Restricted
 Rights clause in FAR 52.227-19.
  
 Gaussian, Inc.
 340 Quinnipiac St., Bldg. 40, Wallingford CT 06492
  
  
 ---------------------------------------------------------------
 Warning -- This program may not be used in any manner that
 competes with the business of Gaussian, Inc. or will provide
 assistance to any competitor of Gaussian, Inc.  The licensee
 of this program is prohibited from giving any competitor of
 Gaussian, Inc. access to this program.  By using this program,
 the user acknowledges that Gaussian, Inc. is engaged in the
 business of creating and licensing software in the field of
 computational chemistry and represents and warrants to the
 licensee that it is not a competitor of Gaussian, Inc. and that
 it will not use this program in any manner prohibited above.
 ---------------------------------------------------------------
  

 Cite this work as:
 Gaussian 16, Revision A.03,
 M. J. Frisch, G. W. Trucks, H. B. Schlegel, G. E. Scuseria, 
 M. A. Robb, J. R. Cheeseman, G. Scalmani, V. Barone, 
 G. A. Petersson, H. Nakatsuji, X. Li, M. Caricato, A. V. Marenich, 
 J. Bloino, B. G. Janesko, R. Gomperts, B. Mennucci, H. P. Hratchian, 
 J. V. Ortiz, A. F. Izmaylov, J. L. Sonnenberg, D. Williams-Young, 
 F. Ding, F. Lipparini, F. Egidi, J. Goings, B. Peng, A. Petrone, 
 T. Henderson, D. Ranasinghe, V. G. Zakrzewski, J. Gao, N. Rega, 
 G. Zheng, W. Liang, M. Hada, M. Ehara, K. Toyota, R. Fukuda, 
 J. Hasegawa, M. Ishida, T. Nakajima, Y. Honda, O. Kitao, H. Nakai, 
 T. Vreven, K. Throssell, J. A. Montgomery, Jr., J. E. Peralta, 
 F. Ogliaro, M. J. Bearpark, J. J. Heyd, E. N. Brothers, K. N. Kudin, 
 V. N. Staroverov, T. A. Keith, R. Kobayashi, J. Normand, 
 K. Raghavachari, A. P. Rendell, J. C. Burant, S. S. Iyengar, 
 J. Tomasi, M. Cossi, J. M. Millam, M. Klene, C. Adamo, R. Cammi, 
 J. W. Ochterski, R. L. Martin, K. Morokuma, O. Farkas, 
 J. B. Foresman, and D. J. Fox, Gaussian, Inc., Wallingford CT, 2016.
 
 ******************************************
 Gaussian 16:  ES64L-G16RevA.03 25-Dec-2016
                17-Jul-2021 
 ******************************************
 %nprocshared=16
 Will use up to   16 processors via shared memory.
 %mem=16GB
 -------------------------------------------------------------------
 #p freq=noraman b3lyp jul-cc-pvdz pop=cm5 empiricaldispersion=gd3bj
 -------------------------------------------------------------------
 1/10=4,30=1,38=1/1,3;
 2/12=2,17=6,18=5,40=1/2;
 3/5=16,7=50,11=2,25=1,30=1,71=2,74=-5,124=41,140=1/1,2,3;
 4//1;
 5/5=2,38=5,98=1/2;
 8/6=4,10=90,11=11/1;
 11/6=1,8=1,9=11,15=111,16=1/1,2,10;
 10/6=1/2;
 6/7=2,8=2,9=2,10=2,28=1,79=1/1;
 7/8=1,10=1,25=1/1,2,3,16;
 1/10=4,30=1/3;
 99//99;
 Leave Link    1 at Sat Jul 17 15:10:10 2021, MaxMem=  2147483648 cpu:               1.6 elap:               0.1
 (Enter /SFS/product/gaussian/g16.a03/x86_64/avx/g16/l101.exe)
 -----
 title
 -----
 Symbolic Z-matrix:
 Charge =  0 Multiplicity = 6
 C                    -2.77906  -0.4721   -0.46461 
 C                    -1.537    -0.28967   0.16489 
 C                    -1.51207  -0.00757   1.53679 
 C                    -2.70077   0.0839    2.2641 
 C                    -3.93334  -0.1036    1.63175 
 C                    -3.9673   -0.38545   0.26263 
 C                    -0.21584  -0.40419  -0.58706 
 C                     0.07617  -1.79181  -1.32274 
 C                     0.41467  -1.50749  -2.79228 
 C                     0.74177  -0.01384  -2.87641 
 C                    -0.27241   0.63894  -1.9372 
 C                     0.0409    1.92314  -1.39336 
 O                     0.81783  -0.06199   0.21317 
 Fe                    2.63813  -0.02158   0.5747 
 Cl                    3.64534  -1.48691  -0.76121 
 Cl                    2.89222  -0.43585   2.72541 
 Cl                    3.24237   2.08424   0.02198 
 H                    -0.54957   0.12228   2.02666 
 H                    -2.66059   0.29509   3.33334 
 H                    -4.86099  -0.03678   2.20167 
 H                    -4.92118  -0.54424  -0.24203 
 H                    -2.83264  -0.726    -1.52275 
 H                     0.95025  -2.17428  -0.78525 
 C                    -1.04465  -2.79727  -1.14055 
 H                     1.25527  -2.12287  -3.13168 
 H                    -0.45769  -1.75114  -3.41285 
 H                     1.76035   0.18656  -2.52288 
 H                     0.65112   0.38234  -3.89598 
 H                    -1.2943    0.5436   -2.31283 
 O                    -1.03082  -3.29105   0.10765 
 O                    -1.84931  -3.12278  -1.99102 
 C                    -2.13673  -4.15108   0.48149 
 C                    -2.04743  -4.3642    1.97779 
 H                    -3.06997  -3.65116   0.19151 
 H                    -2.0568   -5.08747  -0.08705 
 H                    -2.87281  -5.01162   2.30662 
 H                    -1.09788  -4.84265   2.25248 
 H                    -2.1233   -3.4037    2.50501 
 C                    -0.84601   2.86657  -0.83451 
 C                    -0.27766   3.96302  -0.12484 
 C                    -2.26086   2.72086  -0.87209 
 C                    -1.09482   4.8778    0.52165 
 H                     0.80914   4.04378  -0.07359 
 C                    -3.0673    3.62982  -0.20751 
 H                    -2.70684   1.88848  -1.40816 
 C                    -2.48657   4.70691   0.48227 
 H                    -0.66045   5.71266   1.07065 
 H                    -4.15038   3.51219  -0.21964 
 H                    -3.13034   5.42191   0.99726 
 H                     1.10542   2.12925  -1.23725 
 
 ITRead=  0  0  0  0  0  0  0  0  0  0  0  0  0  0  0  0  0  0  0  0
 ITRead=  0  0  0  0  0  0  0  0  0  0  0  0  0  0  0  0  0  0  0  0
 ITRead=  0  0  0  0  0  0  0  0  0  0
 MicOpt= -1 -1 -1 -1 -1 -1 -1 -1 -1 -1 -1 -1 -1 -1 -1 -1 -1 -1 -1 -1
 MicOpt= -1 -1 -1 -1 -1 -1 -1 -1 -1 -1 -1 -1 -1 -1 -1 -1 -1 -1 -1 -1
 MicOpt= -1 -1 -1 -1 -1 -1 -1 -1 -1 -1
 NAtoms=     50 NQM=       50 NQMF=       0 NMMI=      0 NMMIF=      0
                NMic=       0 NMicF=      0.
                    Isotopes and Nuclear Properties:
 (Nuclear quadrupole moments (NQMom) in fm**2, nuclear magnetic moments (NMagM)
  in nuclear magnetons)

  Atom         1           2           3           4           5           6           7           8           9          10
 IAtWgt=          12          12          12          12          12          12          12          12          12          12
 AtmWgt=  12.0000000  12.0000000  12.0000000  12.0000000  12.0000000  12.0000000  12.0000000  12.0000000  12.0000000  12.0000000
 NucSpn=           0           0           0           0           0           0           0           0           0           0
 AtZEff=  -0.0000000  -0.0000000  -0.0000000  -0.0000000  -0.0000000  -0.0000000  -0.0000000  -0.0000000  -0.0000000  -0.0000000
 NQMom=    0.0000000   0.0000000   0.0000000   0.0000000   0.0000000   0.0000000   0.0000000   0.0000000   0.0000000   0.0000000
 NMagM=    0.0000000   0.0000000   0.0000000   0.0000000   0.0000000   0.0000000   0.0000000   0.0000000   0.0000000   0.0000000
 AtZNuc=   6.0000000   6.0000000   6.0000000   6.0000000   6.0000000   6.0000000   6.0000000   6.0000000   6.0000000   6.0000000

  Atom        11          12          13          14          15          16          17          18          19          20
 IAtWgt=          12          12          16          56          35          35          35           1           1           1
 AtmWgt=  12.0000000  12.0000000  15.9949146  55.9349393  34.9688527  34.9688527  34.9688527   1.0078250   1.0078250   1.0078250
 NucSpn=           0           0           0           0           3           3           3           1           1           1
 AtZEff=  -0.0000000  -0.0000000  -0.0000000  -0.0000000  -0.0000000  -0.0000000  -0.0000000  -0.0000000  -0.0000000  -0.0000000
 NQMom=    0.0000000   0.0000000   0.0000000   0.0000000  -8.1650000  -8.1650000  -8.1650000   0.0000000   0.0000000   0.0000000
 NMagM=    0.0000000   0.0000000   0.0000000   0.0000000   0.8218740   0.8218740   0.8218740   2.7928460   2.7928460   2.7928460
 AtZNuc=   6.0000000   6.0000000   8.0000000  26.0000000  17.0000000  17.0000000  17.0000000   1.0000000   1.0000000   1.0000000

  Atom        21          22          23          24          25          26          27          28          29          30
 IAtWgt=           1           1           1          12           1           1           1           1           1          16
 AtmWgt=   1.0078250   1.0078250   1.0078250  12.0000000   1.0078250   1.0078250   1.0078250   1.0078250   1.0078250  15.9949146
 NucSpn=           1           1           1           0           1           1           1           1           1           0
 AtZEff=  -0.0000000  -0.0000000  -0.0000000  -0.0000000  -0.0000000  -0.0000000  -0.0000000  -0.0000000  -0.0000000  -0.0000000
 NQMom=    0.0000000   0.0000000   0.0000000   0.0000000   0.0000000   0.0000000   0.0000000   0.0000000   0.0000000   0.0000000
 NMagM=    2.7928460   2.7928460   2.7928460   0.0000000   2.7928460   2.7928460   2.7928460   2.7928460   2.7928460   0.0000000
 AtZNuc=   1.0000000   1.0000000   1.0000000   6.0000000   1.0000000   1.0000000   1.0000000   1.0000000   1.0000000   8.0000000

  Atom        31          32          33          34          35          36          37          38          39          40
 IAtWgt=          16          12          12           1           1           1           1           1          12          12
 AtmWgt=  15.9949146  12.0000000  12.0000000   1.0078250   1.0078250   1.0078250   1.0078250   1.0078250  12.0000000  12.0000000
 NucSpn=           0           0           0           1           1           1           1           1           0           0
 AtZEff=  -0.0000000  -0.0000000  -0.0000000  -0.0000000  -0.0000000  -0.0000000  -0.0000000  -0.0000000  -0.0000000  -0.0000000
 NQMom=    0.0000000   0.0000000   0.0000000   0.0000000   0.0000000   0.0000000   0.0000000   0.0000000   0.0000000   0.0000000
 NMagM=    0.0000000   0.0000000   0.0000000   2.7928460   2.7928460   2.7928460   2.7928460   2.7928460   0.0000000   0.0000000
 AtZNuc=   8.0000000   6.0000000   6.0000000   1.0000000   1.0000000   1.0000000   1.0000000   1.0000000   6.0000000   6.0000000

  Atom        41          42          43          44          45          46          47          48          49          50
 IAtWgt=          12          12           1          12           1          12           1           1           1           1
 AtmWgt=  12.0000000  12.0000000   1.0078250  12.0000000   1.0078250  12.0000000   1.0078250   1.0078250   1.0078250   1.0078250
 NucSpn=           0           0           1           0           1           0           1           1           1           1
 AtZEff=  -0.0000000  -0.0000000  -0.0000000  -0.0000000  -0.0000000  -0.0000000  -0.0000000  -0.0000000  -0.0000000  -0.0000000
 NQMom=    0.0000000   0.0000000   0.0000000   0.0000000   0.0000000   0.0000000   0.0000000   0.0000000   0.0000000   0.0000000
 NMagM=    0.0000000   0.0000000   2.7928460   0.0000000   2.7928460   0.0000000   2.7928460   2.7928460   2.7928460   2.7928460
 AtZNuc=   6.0000000   6.0000000   1.0000000   6.0000000   1.0000000   6.0000000   1.0000000   1.0000000   1.0000000   1.0000000
 Leave Link  101 at Sat Jul 17 15:10:10 2021, MaxMem=  2147483648 cpu:               2.3 elap:               0.2
 (Enter /SFS/product/gaussian/g16.a03/x86_64/avx/g16/l103.exe)

 GradGradGradGradGradGradGradGradGradGradGradGradGradGradGradGradGradGrad
 Berny optimization.
 Initialization pass.
 Trust Radius=3.00D-01 FncErr=1.00D-07 GrdErr=1.00D-07 EigMax=2.50D+02 EigMin=1.00D-04
 Number of steps in this run=      2 maximum allowed number of steps=      2.
 GradGradGradGradGradGradGradGradGradGradGradGradGradGradGradGradGradGrad

 Leave Link  103 at Sat Jul 17 15:10:10 2021, MaxMem=  2147483648 cpu:               0.4 elap:               0.1
 (Enter /SFS/product/gaussian/g16.a03/x86_64/avx/g16/l202.exe)
                          Input orientation:                          
 ---------------------------------------------------------------------
 Center     Atomic      Atomic             Coordinates (Angstroms)
 Number     Number       Type             X           Y           Z
 ---------------------------------------------------------------------
      1          6           0       -2.779059   -0.472095   -0.464611
      2          6           0       -1.537002   -0.289665    0.164887
      3          6           0       -1.512067   -0.007572    1.536785
      4          6           0       -2.700771    0.083896    2.264099
      5          6           0       -3.933344   -0.103601    1.631747
      6          6           0       -3.967297   -0.385446    0.262632
      7          6           0       -0.215835   -0.404190   -0.587060
      8          6           0        0.076169   -1.791812   -1.322741
      9          6           0        0.414670   -1.507492   -2.792275
     10          6           0        0.741773   -0.013839   -2.876410
     11          6           0       -0.272409    0.638940   -1.937202
     12          6           0        0.040895    1.923141   -1.393360
     13          8           0        0.817829   -0.061988    0.213165
     14         26           0        2.638132   -0.021576    0.574702
     15         17           0        3.645341   -1.486909   -0.761210
     16         17           0        2.892221   -0.435849    2.725408
     17         17           0        3.242372    2.084238    0.021982
     18          1           0       -0.549574    0.122276    2.026662
     19          1           0       -2.660590    0.295094    3.333341
     20          1           0       -4.860986   -0.036784    2.201673
     21          1           0       -4.921175   -0.544235   -0.242033
     22          1           0       -2.832639   -0.725997   -1.522749
     23          1           0        0.950253   -2.174278   -0.785252
     24          6           0       -1.044645   -2.797266   -1.140555
     25          1           0        1.255270   -2.122874   -3.131676
     26          1           0       -0.457687   -1.751135   -3.412848
     27          1           0        1.760345    0.186557   -2.522875
     28          1           0        0.651116    0.382338   -3.895981
     29          1           0       -1.294301    0.543595   -2.312832
     30          8           0       -1.030816   -3.291049    0.107647
     31          8           0       -1.849305   -3.122784   -1.991018
     32          6           0       -2.136728   -4.151081    0.481486
     33          6           0       -2.047434   -4.364203    1.977785
     34          1           0       -3.069975   -3.651161    0.191506
     35          1           0       -2.056804   -5.087474   -0.087050
     36          1           0       -2.872810   -5.011618    2.306621
     37          1           0       -1.097876   -4.842650    2.252480
     38          1           0       -2.123296   -3.403698    2.505007
     39          6           0       -0.846009    2.866567   -0.834508
     40          6           0       -0.277659    3.963022   -0.124843
     41          6           0       -2.260862    2.720861   -0.872086
     42          6           0       -1.094815    4.877797    0.521647
     43          1           0        0.809143    4.043780   -0.073585
     44          6           0       -3.067295    3.629819   -0.207512
     45          1           0       -2.706842    1.888482   -1.408163
     46          6           0       -2.486574    4.706911    0.482269
     47          1           0       -0.660454    5.712659    1.070652
     48          1           0       -4.150381    3.512190   -0.219643
     49          1           0       -3.130343    5.421914    0.997264
     50          1           0        1.105424    2.129250   -1.237253
 ---------------------------------------------------------------------
                    Distance matrix (angstroms):
                    1          2          3          4          5
     1  C    0.000000
     2  C    1.404370   0.000000
     3  C    2.413843   1.400822   0.000000
     4  C    2.785877   2.429114   1.396556   0.000000
     5  C    2.421338   2.815804   2.425041   1.397949   0.000000
     6  C    1.395815   2.434145   2.791847   2.414589   1.398236
     7  C    2.567045   1.524475   2.519572   3.813429   4.339739
     8  C    3.260424   2.659286   3.725976   4.908676   5.258826
     9  C    4.085336   3.746590   4.970195   6.148610   6.359883
    10  C    4.292206   3.810300   4.955414   6.187527   6.495249
    11  C    3.112269   2.623029   3.744772   4.884255   5.166354
    12  C    3.814691   3.132795   3.837329   4.927125   5.390133
    13  O    3.683093   2.366304   2.680177   4.075311   4.958604
    14  Fe   5.534356   4.203756   4.260276   5.600810   6.656453
    15  Cl   6.510817   5.398864   5.836786   7.203684   8.066985
    16  Cl   6.506993   5.118169   4.581921   5.636000   6.920608
    17  Cl   6.559668   5.338376   5.410637   6.659535   7.672606
    18  H    3.395633   2.147304   1.087765   2.164601   3.414217
    19  H    3.876474   3.412256   2.153677   1.090641   2.162009
    20  H    3.410716   3.906573   3.414409   2.164484   1.090779
    21  H    2.154856   3.418043   3.882553   3.406676   2.163566
    22  H    1.089492   2.171906   3.408928   3.874730   3.398496
    23  H    4.111935   3.262050   4.018643   5.265726   5.829160
    24  C    2.978508   2.869609   3.894743   4.757680   4.825564
    25  H    5.110197   4.693055   5.824705   7.045174   7.327304
    26  H    3.964444   4.012606   5.352625   6.373891   6.343698
    27  H    5.027570   4.280578   5.217969   6.544251   7.054302
    28  H    4.926505   4.661555   5.860575   7.019316   7.197860
    29  H    2.579157   2.625322   3.894966   4.810174   4.789897
    30  O    3.366056   3.044307   3.613206   4.339273   4.572458
    31  O    3.196954   3.573797   4.718439   5.395722   5.155881
    32  C    3.852613   3.920515   4.321172   4.629350   4.575262
    33  C    4.652857   4.488764   4.411500   4.504932   4.672165
    34  H    3.259077   3.694641   4.184805   4.287494   3.924905
    35  H    4.686782   4.832457   5.360875   5.717138   5.595950
    36  H    5.319378   5.354274   5.242590   5.098595   5.066440
    37  H    5.413937   5.027977   4.905278   5.180759   5.557317
    38  H    4.224092   3.939176   3.583954   3.543279   3.863871
    39  C    3.875586   3.382020   3.785147   4.559031   4.943273
    40  C    5.103206   4.444686   4.477766   5.160052   5.743437
    41  C    3.260296   3.265357   3.715871   4.121015   4.128433
    42  C    5.694798   5.198603   5.007138   5.347590   5.839854
    43  H    5.781109   4.933560   4.939105   5.784889   6.526876
    44  C    4.120058   4.224078   4.323415   4.337830   4.251040
    45  H    2.543193   2.930416   3.700706   4.091708   3.835851
    46  C    5.272972   5.095899   4.928288   4.959140   5.153200
    47  H    6.715408   6.133241   5.802031   6.104931   6.697426
    48  H    4.220789   4.629440   4.736503   4.474767   4.068009
    49  H    6.082748   5.987798   5.691153   5.503075   5.619492
    50  H    4.738479   3.847020   4.371791   5.561480   6.213370
                    6          7          8          9         10
     6  C    0.000000
     7  C    3.846530   0.000000
     8  C    4.565182   1.597494   0.000000
     9  C    5.458304   2.545149   1.534585   0.000000
    10  C    5.671597   2.512073   2.453182   1.531364   0.000000
    11  C    4.420502   1.707104   2.531329   2.410477   1.528659
    12  C    4.912992   2.476388   3.715792   3.723696   2.538220
    13  O    4.796301   1.351267   2.429271   3.359269   3.090886
    14  Fe   6.622800   3.105030   3.646598   4.299798   3.937818
    15  Cl   7.759751   4.013887   3.625917   3.816135   3.882617
    16  Cl   7.288401   4.542407   5.114323   6.142597   6.015221
    17  Cl   7.624735   4.303766   5.182363   5.368097   4.365272
    18  H    3.879486   2.687023   3.908169   5.177650   5.072102
    19  H    3.405858   4.672833   5.790002   7.087292   7.087490
    20  H    2.163360   5.430419   6.314833   7.411818   7.561638
    21  H    1.090772   4.720051   5.262872   5.991898   6.268193
    22  H    2.142664   2.797631   3.104373   3.573156   3.887929
    23  H    5.336692   2.128909   1.095079   2.181649   3.013951
    24  C    4.040755   2.592315   1.516692   2.553683   3.735231
    25  H    6.466466   3.404863   2.184520   1.095672   2.185605
    26  H    5.262283   3.139718   2.157592   1.097943   2.178226
    27  H    6.394695   2.828719   2.861942   2.180188   1.096647
    28  H    6.262052   3.509870   3.417463   2.201257   1.097588
    29  H    3.826361   2.244922   2.883157   2.712454   2.184937
    30  O    4.133941   3.079085   2.349284   3.698656   4.773549
    31  O    4.130115   3.468440   2.434241   2.894264   4.142842
    32  C    4.192718   4.344055   3.703822   4.920946   6.056237
    33  C    4.739001   5.061115   4.692585   6.080808   7.090032
    34  H    3.387498   4.392619   3.955799   5.063696   6.096855
    35  H    5.087369   5.056909   4.115567   5.122763   6.430734
    36  H    5.174675   6.054857   5.677666   7.006081   8.056477
    37  H    5.662132   5.342369   4.844399   6.233829   7.280607
    38  H    4.187891   4.711299   4.699732   6.172363   6.975630
    39  C    4.639153   3.340090   4.773812   4.955255   3.871325
    40  C    5.716007   4.392039   5.888826   6.125442   4.942245
    41  C    3.721377   3.745573   5.101865   5.359530   4.528986
    42  C    6.001664   5.468201   7.018309   7.350683   6.232812
    43  H    6.522688   4.593329   6.012635   6.193828   4.932001
    44  C    4.141665   4.954605   6.365468   6.722875   5.908321
    45  H    3.090478   3.483629   4.614868   4.815832   4.203275
    46  C    5.307813   5.694126   7.215200   7.599912   6.632377
    47  H    6.983909   6.353073   7.911260   8.258854   7.094950
    48  H    3.931625   5.563603   6.871171   7.256399   6.589724
    49  H    5.913172   6.704322   8.228122   8.657043   7.716608
    50  H    5.857120   2.930323   4.054800   4.015112   2.722482
                   11         12         13         14         15
    11  C    0.000000
    12  C    1.429369   0.000000
    13  O    2.510776   2.669323   0.000000
    14  Fe   3.900922   3.794843   1.856299   0.000000
    15  Cl   4.609876   5.002008   3.312798   2.224035   0.000000
    16  Cl   5.736723   5.537070   3.279366   2.204931   3.718659
    17  Cl   4.275626   3.504083   3.243647   2.259438   3.678160
    18  H    4.006991   3.910028   2.278709   3.505760   5.287629
    19  H    5.796573   5.682452   4.686406   5.982209   7.726943
    20  H    6.216263   6.387019   6.016954   7.673593   9.123548
    21  H    5.087684   5.660003   5.777191   7.621243   8.633851
    22  H    2.930802   3.910482   4.096367   5.901258   6.566822
    23  H    3.276597   4.240940   2.340116   3.054920   2.781466
    24  C    3.610887   4.850211   3.575348   4.920306   4.884353
    25  H    3.374639   4.568007   3.953045   4.479397   3.425785
    26  H    2.815016   4.222229   4.198587   5.336293   4.892427
    27  H    2.163273   2.692218   2.904484   3.226269   3.075250
    28  H    2.180724   3.001592   4.136460   4.909011   4.720832
    29  H    1.092910   2.128691   3.347908   4.911344   5.561523
    30  O    4.494597   5.530765   3.722292   4.936474   5.086873
    31  O    4.079224   5.421385   4.619578   6.028059   5.863416
    32  C    5.680672   6.719618   5.051939   6.313540   6.486480
    33  C    6.596156   7.433467   5.461929   6.540763   6.941801
    34  H    5.546417   6.577397   5.291281   6.775191   7.119489
    35  H    6.276858   7.433405   5.797340   6.938563   6.777390
    36  H    7.530002   8.382745   6.519372   7.633515   8.020066
    37  H    6.948573   7.769484   5.539265   6.325777   6.545337
    38  H    6.285056   6.946668   5.006973   6.151099   6.900683
    39  C    2.550936   1.410307   3.527380   4.739882   6.255426
    40  C    3.786053   2.423165   4.185098   4.986805   6.745120
    41  C    3.069660   2.491218   4.289564   5.797784   7.252645
    42  C    4.968923   3.699606   5.306114   6.159672   8.038923
    43  H    4.029362   2.613259   4.115778   4.504730   6.253429
    44  C    4.443937   3.738961   5.375928   6.818830   8.458544
    45  H    2.787060   2.747995   4.342389   6.012389   7.222329
    46  C    5.225395   4.201840   5.808089   6.973503   8.803978
    47  H    5.911040   4.574242   6.022222   6.633859   8.586581
    48  H    5.122913   4.633517   6.135567   7.694309   9.276722
    49  H    6.297279   5.292754   6.802651   7.942635   9.835342
    50  H    2.146946   1.095478   2.643473   3.202878   4.444592
                   16         17         18         19         20
    16  Cl   0.000000
    17  Cl   3.712406   0.000000
    18  H    3.556080   4.716661   0.000000
    19  H    5.633611   7.000792   2.488707   0.000000
    20  H    7.781116   8.655299   4.317893   2.496509   0.000000
    21  H    8.358625   8.580331   4.970122   4.312542   2.496563
    22  H    7.134777   6.869452   4.304680   4.965263   4.296571
    23  H    4.372426   4.903101   3.928168   6.008227   6.874671
    24  C    6.001739   6.599931   4.335906   5.673598   5.775397
    25  H    6.311188   5.620847   5.908182   7.935803   8.378841
    26  H    7.115479   6.340235   5.753814   7.385858   7.338316
    27  H    5.404906   3.503412   5.102759   7.338373   8.137153
    28  H    7.038094   4.996149   6.048718   7.952239   8.230451
    29  H    6.623454   5.329760   4.423046   5.814445   5.782632
    30  O    5.513171   6.867400   3.945250   5.091334   5.444758
    31  O    7.207383   7.555820   5.325549   6.378783   6.014339
    32  C    6.642926   8.247731   4.813336   5.308105   5.225712
    33  C    6.355399   8.566773   4.730166   4.891067   5.166503
    34  H    7.232335   8.530490   4.894798   5.060796   4.506907
    35  H    7.351216   8.917769   5.820740   6.405909   6.213788
    36  H    7.372152   9.641898   5.642045   5.409287   5.358436
    37  H    5.963592   8.473172   5.000212   5.477842   6.104091
    38  H    5.831991   8.066799   3.890746   3.828300   4.350065
    39  C    6.128076   4.249762   3.975588   5.222657   5.811014
    40  C    6.125531   3.992744   4.410696   5.575939   6.512911
    41  C    7.032855   5.611616   4.252516   4.871319   4.879882
    42  C    6.999132   5.183129   5.017702   5.599861   6.415578
    43  H    5.678085   3.125627   4.651381   6.139938   7.346983
    44  C    7.787651   6.500260   4.861410   4.880926   4.739776
    45  H    7.337468   6.121828   4.423948   5.002288   4.623624
    46  C    7.772457   6.317523   5.211142   5.255761   5.576453
    47  H    7.291356   5.431132   5.672621   6.202444   7.209700
    48  H    8.594101   7.533275   5.431686   5.019251   4.354647
    49  H    8.577362   7.259666   5.983828   5.653513   5.851761
    50  H    5.047282   2.480775   4.173740   6.199784   7.219139
                   21         22         23         24         25
    21  H    0.000000
    22  H    2.456675   0.000000
    23  H    6.117662   4.117243   0.000000
    24  C    4.572852   2.762816   2.119899   0.000000
    25  H    6.999329   4.609871   2.366724   3.115923   0.000000
    26  H    5.606550   3.203713   3.010914   2.569480   1.775238
    27  H    7.097817   4.788372   3.041237   4.322265   2.441150
    28  H    6.727578   4.358576   4.037623   4.536283   2.687983
    29  H    4.315762   2.145362   3.841661   3.549354   3.779004
    30  O    4.775160   3.533306   2.443170   1.342394   4.133284
    31  O    4.375414   2.632643   3.192344   1.215207   3.455330
    32  C    4.613671   4.028952   3.878379   2.378335   5.354831
    33  C    5.270497   5.109484   4.627772   3.631105   6.483672
    34  H    3.642511   3.398762   4.392889   2.570114   5.664534
    35  H    5.373050   4.656784   4.244595   2.716504   5.387804
    36  H    5.536149   5.747368   5.676794   4.486487   7.413566
    37  H    6.270294   5.848811   4.532423   3.962211   6.474845
    38  H    4.852925   4.888361   4.667331   3.849853   6.695328
    39  C    5.347109   4.162558   5.351551   5.675573   5.881061
    40  C    6.472352   5.519870   6.293676   6.879058   6.959098
    41  C    4.258531   3.554029   5.855014   5.656941   6.397711
    42  C    6.680020   6.213058   7.458019   7.853154   8.238875
    43  H    7.342670   6.173607   6.260242   7.167626   6.897722
    44  C    4.567361   4.556100   7.082515   6.802140   7.767160
    45  H    3.490164   2.620011   5.501671   4.979031   5.895745
    46  C    5.833218   5.801409   7.795457   7.811875   8.585334
    47  H    7.682812   7.273267   8.260904   8.800901   9.095336
    48  H    4.129069   4.625663   7.659785   7.092454   8.333963
    49  H    6.351210   6.651008   8.805155   8.745017   9.654303
    50  H    6.667674   4.872605   4.329981   5.376124   4.657451
                   26         27         28         29         30
    26  H    0.000000
    27  H    3.076746   0.000000
    28  H    2.452462   1.775990   0.000000
    29  H    2.678758   3.082605   2.513367   0.000000
    30  O    3.885061   5.177255   5.687856   4.542316   0.000000
    31  O    2.416531   4.925869   4.708170   3.722087   2.258901
    32  C    4.872859   6.559609   6.891022   5.527918   1.449983
    33  C    6.197931   7.447452   8.019536   6.562247   2.383818
    34  H    4.839991   6.740025   6.842747   5.198144   2.072410
    35  H    4.974863   6.951207   7.194417   6.102823   2.077908
    36  H    7.012553   8.474148   8.943438   7.395365   3.344964
    37  H    6.485619   7.501091   8.256091   7.063448   2.648069
    38  H    6.366021   7.297410   7.937511   6.283305   2.636956
    39  C    5.302999   4.101965   4.217273   2.789732   6.232018
    40  C    6.595072   4.915863   5.282556   4.184894   7.296769
    41  C    5.450290   5.031690   4.805439   2.783968   6.214173
    42  C    7.734916   6.279234   6.540097   5.182603   8.179580
    43  H    6.807097   4.667116   5.295455   4.657252   7.564259
    44  C    6.785197   6.365773   6.162590   4.135294   7.221149
    45  H    4.724857   4.908655   4.442251   2.149981   5.651043
    46  C    7.809909   6.892083   6.907684   5.154348   8.137993
    47  H    8.709254   7.022215   7.402701   6.210390   9.062632
    48  H    7.178798   7.162499   6.809244   4.620735   7.491520
    49  H    8.834297   7.982429   7.977506   6.174608   9.006395
    50  H    4.715286   2.419876   3.213554   3.070806   5.979291
                   31         32         33         34         35
    31  O    0.000000
    32  C    2.693192   0.000000
    33  C    4.163145   1.514036   0.000000
    34  H    2.555901   1.097706   2.178259   0.000000
    35  H    2.743749   1.098386   2.187865   1.779636   0.000000
    36  H    4.804681   2.147896   1.099329   2.522584   2.530075
    37  H    4.640028   2.166541   1.098194   3.091348   2.540252
    38  H    4.513117   2.157174   1.098311   2.511917   3.091647
    39  C    6.181945   7.255700   7.850888   6.962723   8.080315
    40  C    7.494086   8.346403   8.769026   8.116211   9.223788
    41  C    5.964023   7.005081   7.639728   6.510649   7.850351
    42  C    8.419741   9.088885   9.404381   8.760900  10.030083
    43  H    7.880580   8.725939   9.113854   8.621482   9.570456
    44  C    7.089573   7.866580   8.349852   7.291906   8.776491
    45  H    5.117409   6.353906   7.141116   5.777409   7.129646
    46  C    8.235738   8.864898   9.204049   8.383452   9.820326
    47  H    9.426147   9.990989  10.212235   9.708749  10.951390
    48  H    7.242624   7.954376   8.443260   7.256026   8.851828
    49  H    9.142360   9.638233   9.894554   9.108983  10.619579
    50  H    6.073092   7.273800   7.902020   7.272445   7.962648
                   36         37         38         39         40
    36  H    0.000000
    37  H    1.783780   0.000000
    38  H    1.785087   1.784892   0.000000
    39  C    8.720115   8.308126   7.218036   0.000000
    40  C    9.653548   9.157744   8.036856   1.424380   0.000000
    41  C    8.382714   8.265721   6.995277   1.422832   2.456508
    42  C   10.205289   9.873342   8.577567   2.438464   1.386545
    43  H   10.060934   9.381681   8.409118   2.168954   1.091003
    44  C    9.001840   9.039519   7.597319   2.431006   2.810681
    45  H    7.838274   7.829254   6.607616   2.179089   3.442609
    46  C    9.895820   9.811027   8.366924   2.795035   2.408581
    47  H   11.019630  10.630268   9.343728   3.429913   2.153362
    48  H    8.981620   9.232147   7.704693   3.422537   3.900027
    49  H   10.518523  10.538869   9.009931   3.886305   3.394893
    50  H    8.909399   8.101861   7.419074   2.124601   2.552076
                   41         42         43         44         45
    41  C    0.000000
    42  C    2.820378   0.000000
    43  H    3.436953   2.162161   0.000000
    44  C    1.384990   2.445363   3.900778   0.000000
    45  H    1.085878   3.906252   4.334577   2.145634   0.000000
    46  C    2.414460   1.402764   3.407414   1.404693   3.400852
    47  H    3.909782   1.089528   2.500830   3.429987   4.995654
    48  H    2.149922   3.427955   4.990070   1.089522   2.476452
    49  H    3.397963   2.160011   4.308773   2.160339   4.295413
    50  H    3.437329   3.935644   2.259940   4.552324   3.823683
                   46         47         48         49         50
    46  C    0.000000
    47  H    2.166204   0.000000
    48  H    2.165247   4.322790   0.000000
    49  H    1.091278   2.488025   2.483624   0.000000
    50  H    4.743790   4.613629   5.529154   5.811749   0.000000
 Stoichiometry    C21H22Cl3FeO3(6)
 Framework group  C1[X(C21H22Cl3FeO3)]
 Deg. of freedom   144
 Full point group                 C1      NOp   1
 Largest Abelian subgroup         C1      NOp   1
 Largest concise Abelian subgroup C1      NOp   1
                         Standard orientation:                         
 ---------------------------------------------------------------------
 Center     Atomic      Atomic             Coordinates (Angstroms)
 Number     Number       Type             X           Y           Z
 ---------------------------------------------------------------------
      1          6           0       -2.779059   -0.472096   -0.464611
      2          6           0       -1.537002   -0.289665    0.164887
      3          6           0       -1.512067   -0.007572    1.536785
      4          6           0       -2.700771    0.083895    2.264099
      5          6           0       -3.933344   -0.103602    1.631747
      6          6           0       -3.967297   -0.385447    0.262632
      7          6           0       -0.215835   -0.404190   -0.587060
      8          6           0        0.076169   -1.791812   -1.322741
      9          6           0        0.414670   -1.507492   -2.792275
     10          6           0        0.741773   -0.013839   -2.876410
     11          6           0       -0.272409    0.638940   -1.937202
     12          6           0        0.040895    1.923141   -1.393360
     13          8           0        0.817829   -0.061988    0.213165
     14         26           0        2.638132   -0.021575    0.574702
     15         17           0        3.645341   -1.486908   -0.761210
     16         17           0        2.892221   -0.435848    2.725408
     17         17           0        3.242371    2.084239    0.021982
     18          1           0       -0.549574    0.122276    2.026662
     19          1           0       -2.660590    0.295093    3.333341
     20          1           0       -4.860986   -0.036785    2.201673
     21          1           0       -4.921175   -0.544236   -0.242033
     22          1           0       -2.832639   -0.725998   -1.522749
     23          1           0        0.950254   -2.174278   -0.785252
     24          6           0       -1.044644   -2.797266   -1.140555
     25          1           0        1.255270   -2.122874   -3.131676
     26          1           0       -0.457687   -1.751135   -3.412848
     27          1           0        1.760345    0.186557   -2.522875
     28          1           0        0.651116    0.382338   -3.895981
     29          1           0       -1.294301    0.543595   -2.312832
     30          8           0       -1.030815   -3.291049    0.107647
     31          8           0       -1.849304   -3.122784   -1.991018
     32          6           0       -2.136727   -4.151082    0.481486
     33          6           0       -2.047433   -4.364203    1.977785
     34          1           0       -3.069974   -3.651162    0.191506
     35          1           0       -2.056803   -5.087474   -0.087050
     36          1           0       -2.872809   -5.011619    2.306621
     37          1           0       -1.097875   -4.842650    2.252480
     38          1           0       -2.123295   -3.403699    2.505007
     39          6           0       -0.846010    2.866567   -0.834508
     40          6           0       -0.277660    3.963022   -0.124843
     41          6           0       -2.260863    2.720860   -0.872086
     42          6           0       -1.094816    4.877797    0.521647
     43          1           0        0.809142    4.043780   -0.073585
     44          6           0       -3.067296    3.629818   -0.207512
     45          1           0       -2.706842    1.888481   -1.408163
     46          6           0       -2.486575    4.706910    0.482269
     47          1           0       -0.660455    5.712659    1.070652
     48          1           0       -4.150382    3.512189   -0.219643
     49          1           0       -3.130344    5.421913    0.997264
     50          1           0        1.105423    2.129250   -1.237253
 ---------------------------------------------------------------------
 Rotational constants (GHZ):           0.1455365           0.1366632           0.0961547
 Leave Link  202 at Sat Jul 17 15:10:10 2021, MaxMem=  2147483648 cpu:               0.3 elap:               0.1
 (Enter /SFS/product/gaussian/g16.a03/x86_64/avx/g16/l301.exe)
 Standard basis: Jul-CC-pVDZ (5D, 7F)
 Ernie: Thresh=  0.10000D-02 Tol=  0.10000D-05 Strict=F.
 Ernie:  142 primitive shells out of 1058 were deleted.
 There are   866 symmetry adapted cartesian basis functions of A   symmetry.
 There are   802 symmetry adapted basis functions of A   symmetry.
   802 basis functions,  1743 primitive gaussians,   866 cartesian basis functions
   127 alpha electrons      122 beta electrons
       nuclear repulsion energy      3891.6044338917 Hartrees.
 IExCor=  402 DFT=T Ex+Corr=B3LYP ExCW=0 ScaHFX=  0.200000
 ScaDFX=  0.800000  0.720000  1.000000  0.810000 ScalE2=  1.000000  1.000000
 IRadAn=      5 IRanWt=     -1 IRanGd=            0 ICorTp=0 IEmpDi=141
 NAtoms=   50 NActive=   50 NUniq=   50 SFac= 1.00D+00 NAtFMM=   60 NAOKFM=F Big=F
 Integral buffers will be    131072 words long.
 Raffenetti 2 integral format.
 Two-electron integral symmetry is turned on.
 R6Disp:  Grimme-D3(BJ) Dispersion energy=       -0.1367929967 Hartrees.
 Nuclear repulsion after empirical dispersion term =     3891.4676408950 Hartrees.
 Leave Link  301 at Sat Jul 17 15:10:10 2021, MaxMem=  2147483648 cpu:               1.3 elap:               0.1
 (Enter /SFS/product/gaussian/g16.a03/x86_64/avx/g16/l302.exe)
 NPDir=0 NMtPBC=     1 NCelOv=     1 NCel=       1 NClECP=     1 NCelD=      1
         NCelK=      1 NCelE2=     1 NClLst=     1 CellRange=     0.0.
 One-electron integrals computed using PRISM.
 One-electron integral symmetry used in STVInt
 NBasis=   802 RedAO= T EigKep=  2.01D-06  NBF=   802
 NBsUse=   801 1.00D-06 EigRej=  8.21D-07 NBFU=   801
 Precomputing XC quadrature grid using
 IXCGrd= 4 IRadAn=           5 IRanWt=          -1 IRanGd=           0 AccXCQ= 0.00D+00.
 Generated NRdTot=       0 NPtTot=           0 NUsed=           0 NTot=          32
 NSgBfM=   863   863   863   863   863 MxSgAt=    50 MxSgA2=    50.
 Leave Link  302 at Sat Jul 17 15:10:12 2021, MaxMem=  2147483648 cpu:              28.7 elap:               1.8
 (Enter /SFS/product/gaussian/g16.a03/x86_64/avx/g16/l303.exe)
 DipDrv:  MaxL=1.
 Leave Link  303 at Sat Jul 17 15:10:13 2021, MaxMem=  2147483648 cpu:               4.4 elap:               0.3
 (Enter /SFS/product/gaussian/g16.a03/x86_64/avx/g16/l401.exe)
 ExpMin= 1.40D-02 ExpMax= 4.32D+06 ExpMxC= 4.91D+03 IAcc=3 IRadAn=         5 AccDes= 0.00D+00
 Harris functional with IExCor=  402 and IRadAn=       5 diagonalized for initial guess.
 HarFok:  IExCor=  402 AccDes= 0.00D+00 IRadAn=         5 IDoV= 1 UseB2=F ITyADJ=14
 ICtDFT=  3500011 ScaDFX=  1.000000  1.000000  1.000000  1.000000
 FoFCou: FMM=F IPFlag=           0 FMFlag=      100000 FMFlg1=           0
         NFxFlg=           0 DoJE=T BraDBF=F KetDBF=T FulRan=T
         wScrn=  0.000000 ICntrl=       500 IOpCl=  0 I1Cent=   200000004 NGrid=           0
         NMat0=    1 NMatS0=      1 NMatT0=    0 NMatD0=    1 NMtDS0=    0 NMtDT0=    0
 Petite list used in FoFCou.
 Harris En= -3683.66111015317    
 JPrj=0 DoOrth=F DoCkMO=F.
 Initial guess <Sx>= 0.0000 <Sy>= 0.0000 <Sz>= 2.5000 <S**2>= 8.7500 S= 2.5000
 Leave Link  401 at Sat Jul 17 15:10:23 2021, MaxMem=  2147483648 cpu:             160.0 elap:              10.1
 (Enter /SFS/product/gaussian/g16.a03/x86_64/avx/g16/l502.exe)
 Integral symmetry usage will be decided dynamically.
 UHF open shell SCF:
 Using DIIS extrapolation, IDIIS=  1040.
 NGot=  2147483648 LenX=  2145961826 LenY=  2145211004
 Requested convergence on RMS density matrix=1.00D-08 within 128 cycles.
 Requested convergence on MAX density matrix=1.00D-06.
 Requested convergence on             energy=1.00D-06.
 No special actions if energy rises.
 Fock matrices will be formed incrementally for  20 cycles.

 Cycle   1  Pass 1  IDiag  1:
 FoFJK:  IHMeth= 1 ICntrl=       0 DoSepK=F KAlg= 0 I1Cent=           0 FoldK=F
 IRaf= 910000000 NMat=       1 IRICut=       1 DoRegI=T DoRafI=F ISym2E= 0 IDoP0=0 IntGTp=1.
 FoFCou: FMM=F IPFlag=           0 FMFlag=      100000 FMFlg1=           0
         NFxFlg=           0 DoJE=F BraDBF=F KetDBF=F FulRan=T
         wScrn=  0.000000 ICntrl=         0 IOpCl=  1 I1Cent=           0 NGrid=           0
         NMat0=    1 NMatS0=      1 NMatT0=    0 NMatD0=    1 NMtDS0=    0 NMtDT0=    0
 Symmetry not used in FoFCou.
 E= -3682.91382951924    
 DIIS: error= 2.10D-02 at cycle   1 NSaved=   1.
 NSaved= 1 IEnMin= 1 EnMin= -3682.91382951924     IErMin= 1 ErrMin= 2.10D-02
 ErrMax= 2.10D-02  0.00D+00 EMaxC= 1.00D-01 BMatC= 4.72D+00 BMatP= 4.72D+00
 IDIUse=3 WtCom= 7.90D-01 WtEn= 2.10D-01
 Coeff-Com:  0.100D+01
 Coeff-En:   0.100D+01
 Coeff:      0.100D+01
 Gap=     0.093 Goal=   None    Shift=    0.000
 Gap=     0.447 Goal=   None    Shift=    0.000
 GapD=    0.093 DampG=0.500 DampE=0.250 DampFc=0.1250 IDamp=-1.
 Damping current iteration by 1.25D-01
 RMSDP=3.05D-02 MaxDP=2.86D+00              OVMax= 9.59D-01

 Cycle   2  Pass 1  IDiag  1:
 RMSU=  2.65D-03    CP:  9.54D-01
 E= -3683.22163335167     Delta-E=       -0.307803832429 Rises=F Damp=T
 DIIS: error= 7.73D-03 at cycle   2 NSaved=   2.
 NSaved= 2 IEnMin= 2 EnMin= -3683.22163335167     IErMin= 2 ErrMin= 7.73D-03
 ErrMax= 7.73D-03  0.00D+00 EMaxC= 1.00D-01 BMatC= 1.28D+00 BMatP= 4.72D+00
 IDIUse=3 WtCom= 9.23D-01 WtEn= 7.73D-02
 Coeff-Com: -0.400D+00 0.140D+01
 Coeff-En:   0.578D-01 0.942D+00
 Coeff:     -0.365D+00 0.136D+01
 Gap=    -0.412 Goal=   None    Shift=    0.000
 Gap=    -0.066 Goal=   None    Shift=    0.000
 RMSDP=2.32D-02 MaxDP=2.65D+00 DE=-3.08D-01 OVMax= 9.74D-01

 Cycle   3  Pass 1  IDiag  1:
 RMSU=  8.25D-03    CP:  5.92D-01  2.32D+00
 E= -3682.60459298742     Delta-E=        0.617040364245 Rises=F Damp=F
 DIIS: error= 2.93D-02 at cycle   3 NSaved=   3.
 NSaved= 3 IEnMin= 2 EnMin= -3683.22163335167     IErMin= 2 ErrMin= 7.73D-03
 ErrMax= 2.93D-02  0.00D+00 EMaxC= 1.00D-01 BMatC= 5.96D+00 BMatP= 1.28D+00
 IDIUse=2 WtCom= 0.00D+00 WtEn= 1.00D+00
 Coeff-En:   0.000D+00 0.720D+00 0.280D+00
 Coeff:      0.000D+00 0.720D+00 0.280D+00
 Gap=     0.441 Goal=   None    Shift=    0.000
 Gap=     0.230 Goal=   None    Shift=    0.000
 RMSDP=7.08D-03 MaxDP=6.49D-01 DE= 6.17D-01 OVMax= 7.74D-01

 Cycle   4  Pass 1  IDiag  1:
 RMSU=  4.99D-03    CP:  6.09D-01  3.00D+00  5.08D-01
 E= -3673.06559062555     Delta-E=        9.539002361867 Rises=F Damp=F
 DIIS: error= 1.09D-01 at cycle   4 NSaved=   4.
 NSaved= 4 IEnMin= 2 EnMin= -3683.22163335167     IErMin= 2 ErrMin= 7.73D-03
 ErrMax= 1.09D-01  0.00D+00 EMaxC= 1.00D-01 BMatC= 4.88D+01 BMatP= 1.28D+00
 IDIUse=2 WtCom= 0.00D+00 WtEn= 1.00D+00
 EnCoef did   100 forward-backward iterations
 Coeff-En:   0.370D+00 0.815D-02 0.442D+00 0.180D+00
 Coeff:      0.370D+00 0.815D-02 0.442D+00 0.180D+00
 Gap=     0.103 Goal=   None    Shift=    0.000
 Gap=    -0.003 Goal=   None    Shift=    0.000
 RMSDP=4.99D-03 MaxDP=4.69D-01 DE= 9.54D+00 OVMax= 9.96D-01

 Cycle   5  Pass 1  IDiag  1:
 RMSU=  3.23D-03    CP:  6.28D-01  2.16D+00  6.14D-01  7.21D-01
 E= -3683.13215908812     Delta-E=      -10.066568462566 Rises=F Damp=F
 DIIS: error= 3.14D-02 at cycle   5 NSaved=   5.
 NSaved= 5 IEnMin= 2 EnMin= -3683.22163335167     IErMin= 2 ErrMin= 7.73D-03
 ErrMax= 3.14D-02  0.00D+00 EMaxC= 1.00D-01 BMatC= 5.63D+00 BMatP= 1.28D+00
 IDIUse=2 WtCom= 0.00D+00 WtEn= 1.00D+00
 EnCoef did     3 forward-backward iterations
 Coeff-En:   0.596D-02 0.000D+00 0.418D+00 0.000D+00 0.576D+00
 Coeff:      0.596D-02 0.000D+00 0.418D+00 0.000D+00 0.576D+00
 Gap=     0.089 Goal=   None    Shift=    0.000
 Gap=     0.182 Goal=   None    Shift=    0.000
 RMSDP=4.32D-03 MaxDP=4.93D-01 DE=-1.01D+01 OVMax= 4.42D-01

 Cycle   6  Pass 1  IDiag  1:
 RMSU=  3.00D-03    CP:  6.58D-01  1.52D+00  6.14D-01  4.13D-01  6.53D-01
 E= -3683.72828225606     Delta-E=       -0.596123167944 Rises=F Damp=F
 DIIS: error= 1.67D-02 at cycle   6 NSaved=   6.
 NSaved= 6 IEnMin= 6 EnMin= -3683.72828225606     IErMin= 2 ErrMin= 7.73D-03
 ErrMax= 1.67D-02  0.00D+00 EMaxC= 1.00D-01 BMatC= 1.44D+00 BMatP= 1.28D+00
 IDIUse=2 WtCom= 0.00D+00 WtEn= 1.00D+00
 EnCoef did     9 forward-backward iterations
 Coeff-En:   0.000D+00 0.000D+00 0.215D-01 0.000D+00 0.302D+00 0.676D+00
 Coeff:      0.000D+00 0.000D+00 0.215D-01 0.000D+00 0.302D+00 0.676D+00
 Gap=     0.089 Goal=   None    Shift=    0.000
 Gap=     0.131 Goal=   None    Shift=    0.000
 RMSDP=4.56D-03 MaxDP=4.44D-01 DE=-5.96D-01 OVMax= 5.44D-01

 Cycle   7  Pass 1  IDiag  1:
 RMSU=  3.19D-03    CP:  6.40D-01  2.00D+00  7.17D-01  4.17D-01  5.72D-01
                    CP:  1.12D-01
 E= -3683.61851224175     Delta-E=        0.109770014318 Rises=F Damp=F
 DIIS: error= 1.11D-02 at cycle   7 NSaved=   7.
 NSaved= 7 IEnMin= 6 EnMin= -3683.72828225606     IErMin= 2 ErrMin= 7.73D-03
 ErrMax= 1.11D-02  0.00D+00 EMaxC= 1.00D-01 BMatC= 1.60D+00 BMatP= 1.28D+00
 IDIUse=2 WtCom= 0.00D+00 WtEn= 1.00D+00
 EnCoef did     5 forward-backward iterations
 Coeff-En:   0.000D+00 0.000D+00 0.000D+00 0.000D+00 0.202D+00 0.534D+00
 Coeff-En:   0.264D+00
 Coeff:      0.000D+00 0.000D+00 0.000D+00 0.000D+00 0.202D+00 0.534D+00
 Coeff:      0.264D+00
 Gap=     0.093 Goal=   None    Shift=    0.000
 Gap=     0.130 Goal=   None    Shift=    0.000
 RMSDP=2.44D-03 MaxDP=1.80D-01 DE= 1.10D-01 OVMax= 2.77D-01

 Cycle   8  Pass 1  IDiag  1:
 RMSU=  1.13D-03    CP:  6.31D-01  1.96D+00  6.54D-01  5.60D-01  7.25D-01
                    CP:  2.35D-01  4.34D-01
 E= -3683.96565669375     Delta-E=       -0.347144452006 Rises=F Damp=F
 DIIS: error= 2.18D-03 at cycle   8 NSaved=   8.
 NSaved= 8 IEnMin= 8 EnMin= -3683.96565669375     IErMin= 8 ErrMin= 2.18D-03
 ErrMax= 2.18D-03  0.00D+00 EMaxC= 1.00D-01 BMatC= 9.85D-02 BMatP= 1.28D+00
 IDIUse=3 WtCom= 9.78D-01 WtEn= 2.18D-02
 Coeff-Com: -0.933D-02 0.355D-01-0.203D-01 0.671D-02 0.174D-01 0.235D+00
 Coeff-Com:  0.163D+00 0.572D+00
 Coeff-En:   0.000D+00 0.000D+00 0.000D+00 0.000D+00 0.000D+00 0.306D-01
 Coeff-En:   0.000D+00 0.969D+00
 Coeff:     -0.913D-02 0.348D-01-0.198D-01 0.656D-02 0.170D-01 0.230D+00
 Coeff:      0.159D+00 0.581D+00
 Gap=     0.084 Goal=   None    Shift=    0.000
 Gap=     0.096 Goal=   None    Shift=    0.000
 RMSDP=1.17D-03 MaxDP=1.15D-01 DE=-3.47D-01 OVMax= 5.08D-02

 Cycle   9  Pass 1  IDiag  1:
 RMSU=  7.43D-04    CP:  6.34D-01  1.83D+00  6.57D-01  5.51D-01  7.68D-01
                    CP:  4.59D-01  4.21D-01  6.03D-01
 E= -3683.98253098879     Delta-E=       -0.016874295043 Rises=F Damp=F
 DIIS: error= 1.72D-03 at cycle   9 NSaved=   9.
 NSaved= 9 IEnMin= 9 EnMin= -3683.98253098879     IErMin= 9 ErrMin= 1.72D-03
 ErrMax= 1.72D-03  0.00D+00 EMaxC= 1.00D-01 BMatC= 3.28D-02 BMatP= 9.85D-02
 IDIUse=3 WtCom= 9.83D-01 WtEn= 1.72D-02
 Coeff-Com: -0.339D-01 0.606D-01-0.628D-02 0.245D-02-0.108D-01 0.421D-01
 Coeff-Com:  0.468D-01 0.359D+00 0.540D+00
 Coeff-En:   0.000D+00 0.000D+00 0.000D+00 0.000D+00 0.000D+00 0.000D+00
 Coeff-En:   0.000D+00 0.267D+00 0.733D+00
 Coeff:     -0.333D-01 0.595D-01-0.617D-02 0.241D-02-0.106D-01 0.414D-01
 Coeff:      0.460D-01 0.357D+00 0.544D+00
 Gap=     0.090 Goal=   None    Shift=    0.000
 Gap=     0.100 Goal=   None    Shift=    0.000
 RMSDP=5.33D-04 MaxDP=6.21D-02 DE=-1.69D-02 OVMax= 2.71D-02

 Cycle  10  Pass 1  IDiag  1:
 RMSU=  3.85D-04    CP:  6.35D-01  1.83D+00  6.53D-01  5.57D-01  7.70D-01
                    CP:  4.12D-01  4.60D-01  7.51D-01  6.58D-01
 E= -3683.98881747435     Delta-E=       -0.006286485558 Rises=F Damp=F
 DIIS: error= 8.38D-04 at cycle  10 NSaved=  10.
 NSaved=10 IEnMin=10 EnMin= -3683.98881747435     IErMin=10 ErrMin= 8.38D-04
 ErrMax= 8.38D-04  0.00D+00 EMaxC= 1.00D-01 BMatC= 6.90D-03 BMatP= 3.28D-02
 IDIUse=3 WtCom= 9.92D-01 WtEn= 8.38D-03
 Coeff-Com: -0.193D-01 0.288D-01-0.107D-02 0.909D-03-0.173D-02-0.231D-01
 Coeff-Com: -0.364D-02 0.113D+00 0.357D+00 0.550D+00
 Coeff-En:   0.000D+00 0.000D+00 0.000D+00 0.000D+00 0.000D+00 0.000D+00
 Coeff-En:   0.000D+00 0.000D+00 0.878D-01 0.912D+00
 Coeff:     -0.191D-01 0.286D-01-0.106D-02 0.902D-03-0.172D-02-0.229D-01
 Coeff:     -0.361D-02 0.112D+00 0.354D+00 0.553D+00
 Gap=     0.094 Goal=   None    Shift=    0.000
 Gap=     0.100 Goal=   None    Shift=    0.000
 RMSDP=1.98D-04 MaxDP=1.65D-02 DE=-6.29D-03 OVMax= 1.12D-02

 Cycle  11  Pass 1  IDiag  1:
 RMSU=  1.61D-04    CP:  6.35D-01  1.84D+00  6.54D-01  5.61D-01  7.70D-01
                    CP:  4.12D-01  4.63D-01  7.67D-01  7.63D-01  8.07D-01
 E= -3683.99024780443     Delta-E=       -0.001430330081 Rises=F Damp=F
 DIIS: error= 3.34D-04 at cycle  11 NSaved=  11.
 NSaved=11 IEnMin=11 EnMin= -3683.99024780443     IErMin=11 ErrMin= 3.34D-04
 ErrMax= 3.34D-04  0.00D+00 EMaxC= 1.00D-01 BMatC= 8.55D-04 BMatP= 6.90D-03
 IDIUse=3 WtCom= 9.97D-01 WtEn= 3.34D-03
 Coeff-Com: -0.712D-02 0.101D-01-0.704D-03 0.217D-03 0.212D-02-0.215D-01
 Coeff-Com: -0.962D-02 0.176D-01 0.114D+00 0.286D+00 0.608D+00
 Coeff-En:   0.000D+00 0.000D+00 0.000D+00 0.000D+00 0.000D+00 0.000D+00
 Coeff-En:   0.000D+00 0.000D+00 0.000D+00 0.000D+00 0.100D+01
 Coeff:     -0.710D-02 0.101D-01-0.702D-03 0.216D-03 0.211D-02-0.214D-01
 Coeff:     -0.959D-02 0.176D-01 0.114D+00 0.285D+00 0.610D+00
 Gap=     0.095 Goal=   None    Shift=    0.000
 Gap=     0.099 Goal=   None    Shift=    0.000
 RMSDP=9.80D-05 MaxDP=9.28D-03 DE=-1.43D-03 OVMax= 6.91D-03

 Cycle  12  Pass 1  IDiag  1:
 RMSU=  8.06D-05    CP:  6.35D-01  1.84D+00  6.51D-01  5.63D-01  7.69D-01
                    CP:  4.10D-01  4.53D-01  7.87D-01  7.80D-01  8.63D-01
                    CP:  9.15D-01
 E= -3683.99043076908     Delta-E=       -0.000182964643 Rises=F Damp=F
 DIIS: error= 1.33D-04 at cycle  12 NSaved=  12.
 NSaved=12 IEnMin=12 EnMin= -3683.99043076908     IErMin=12 ErrMin= 1.33D-04
 ErrMax= 1.33D-04  0.00D+00 EMaxC= 1.00D-01 BMatC= 2.04D-04 BMatP= 8.55D-04
 IDIUse=3 WtCom= 9.99D-01 WtEn= 1.33D-03
 Coeff-Com:  0.333D-02-0.416D-02-0.221D-02 0.799D-04 0.257D-02-0.688D-02
 Coeff-Com: -0.276D-02-0.619D-02-0.122D-01 0.263D-01 0.366D+00 0.636D+00
 Coeff-En:   0.000D+00 0.000D+00 0.000D+00 0.000D+00 0.000D+00 0.000D+00
 Coeff-En:   0.000D+00 0.000D+00 0.000D+00 0.000D+00 0.000D+00 0.100D+01
 Coeff:      0.333D-02-0.416D-02-0.221D-02 0.798D-04 0.256D-02-0.687D-02
 Coeff:     -0.276D-02-0.618D-02-0.122D-01 0.262D-01 0.366D+00 0.636D+00
 Gap=     0.097 Goal=   None    Shift=    0.000
 Gap=     0.099 Goal=   None    Shift=    0.000
 RMSDP=5.02D-05 MaxDP=3.50D-03 DE=-1.83D-04 OVMax= 4.59D-03

 Cycle  13  Pass 1  IDiag  1:
 RMSU=  4.51D-05    CP:  6.35D-01  1.85D+00  6.51D-01  5.64D-01  7.70D-01
                    CP:  4.09D-01  4.56D-01  7.96D-01  7.79D-01  8.79D-01
                    CP:  1.00D+00  9.07D-01
 E= -3683.99048554167     Delta-E=       -0.000054772589 Rises=F Damp=F
 DIIS: error= 5.74D-05 at cycle  13 NSaved=  13.
 NSaved=13 IEnMin=13 EnMin= -3683.99048554167     IErMin=13 ErrMin= 5.74D-05
 ErrMax= 5.74D-05  0.00D+00 EMaxC= 1.00D-01 BMatC= 4.51D-05 BMatP= 2.04D-04
 IDIUse=1 WtCom= 1.00D+00 WtEn= 0.00D+00
 Coeff-Com:  0.348D-02-0.423D-02-0.141D-02-0.182D-04 0.148D-02-0.148D-02
 Coeff-Com: -0.156D-03-0.563D-02-0.265D-01-0.380D-01 0.116D+00 0.383D+00
 Coeff-Com:  0.574D+00
 Coeff:      0.348D-02-0.423D-02-0.141D-02-0.182D-04 0.148D-02-0.148D-02
 Coeff:     -0.156D-03-0.563D-02-0.265D-01-0.380D-01 0.116D+00 0.383D+00
 Coeff:      0.574D+00
 Gap=     0.096 Goal=   None    Shift=    0.000
 Gap=     0.098 Goal=   None    Shift=    0.000
 RMSDP=3.02D-05 MaxDP=3.08D-03 DE=-5.48D-05 OVMax= 2.30D-03

 Cycle  14  Pass 1  IDiag  1:
 RMSU=  2.51D-05    CP:  6.35D-01  1.84D+00  6.50D-01  5.64D-01  7.71D-01
                    CP:  4.10D-01  4.58D-01  7.98D-01  7.85D-01  8.85D-01
                    CP:  1.06D+00  9.22D-01  9.99D-01
 E= -3683.99050199342     Delta-E=       -0.000016451753 Rises=F Damp=F
 DIIS: error= 3.28D-05 at cycle  14 NSaved=  14.
 NSaved=14 IEnMin=14 EnMin= -3683.99050199342     IErMin=14 ErrMin= 3.28D-05
 ErrMax= 3.28D-05  0.00D+00 EMaxC= 1.00D-01 BMatC= 7.98D-06 BMatP= 4.51D-05
 IDIUse=1 WtCom= 1.00D+00 WtEn= 0.00D+00
 Coeff-Com:  0.696D-03-0.452D-03-0.800D-04-0.521D-04 0.114D-03 0.223D-03
 Coeff-Com:  0.589D-03 0.306D-03-0.565D-02-0.197D-01-0.236D-01 0.285D-01
 Coeff-Com:  0.313D+00 0.706D+00
 Coeff:      0.696D-03-0.452D-03-0.800D-04-0.521D-04 0.114D-03 0.223D-03
 Coeff:      0.589D-03 0.306D-03-0.565D-02-0.197D-01-0.236D-01 0.285D-01
 Coeff:      0.313D+00 0.706D+00
 Gap=     0.096 Goal=   None    Shift=    0.000
 Gap=     0.098 Goal=   None    Shift=    0.000
 RMSDP=1.72D-05 MaxDP=1.48D-03 DE=-1.65D-05 OVMax= 1.50D-03

 Cycle  15  Pass 1  IDiag  1:
 RMSU=  1.31D-05    CP:  6.35D-01  1.84D+00  6.50D-01  5.64D-01  7.71D-01
                    CP:  4.08D-01  4.58D-01  7.99D-01  7.88D-01  8.94D-01
                    CP:  1.07D+00  9.55D-01  1.18D+00  1.06D+00
 E= -3683.99050712080     Delta-E=       -0.000005127384 Rises=F Damp=F
 DIIS: error= 2.36D-05 at cycle  15 NSaved=  15.
 NSaved=15 IEnMin=15 EnMin= -3683.99050712080     IErMin=15 ErrMin= 2.36D-05
 ErrMax= 2.36D-05  0.00D+00 EMaxC= 1.00D-01 BMatC= 4.90D-06 BMatP= 7.98D-06
 IDIUse=1 WtCom= 1.00D+00 WtEn= 0.00D+00
 Coeff-Com: -0.633D-03 0.927D-03 0.498D-03-0.293D-04-0.571D-03 0.889D-03
 Coeff-Com:  0.402D-03 0.195D-02 0.606D-02 0.271D-02-0.506D-01-0.110D+00
 Coeff-Com: -0.156D-01 0.432D+00 0.733D+00
 Coeff:     -0.633D-03 0.927D-03 0.498D-03-0.293D-04-0.571D-03 0.889D-03
 Coeff:      0.402D-03 0.195D-02 0.606D-02 0.271D-02-0.506D-01-0.110D+00
 Coeff:     -0.156D-01 0.432D+00 0.733D+00
 Gap=     0.096 Goal=   None    Shift=    0.000
 Gap=     0.097 Goal=   None    Shift=    0.000
 RMSDP=1.21D-05 MaxDP=1.10D-03 DE=-5.13D-06 OVMax= 1.35D-03

 Cycle  16  Pass 1  IDiag  1:
 RMSU=  6.39D-06    CP:  6.35D-01  1.84D+00  6.51D-01  5.64D-01  7.71D-01
                    CP:  4.08D-01  4.58D-01  7.99D-01  7.92D-01  8.98D-01
                    CP:  1.08D+00  9.92D-01  1.28D+00  1.33D+00  1.26D+00
 E= -3683.99050975897     Delta-E=       -0.000002638167 Rises=F Damp=F
 DIIS: error= 1.72D-05 at cycle  16 NSaved=  16.
 NSaved=16 IEnMin=16 EnMin= -3683.99050975897     IErMin=16 ErrMin= 1.72D-05
 ErrMax= 1.72D-05  0.00D+00 EMaxC= 1.00D-01 BMatC= 2.11D-06 BMatP= 4.90D-06
 IDIUse=1 WtCom= 1.00D+00 WtEn= 0.00D+00
 Coeff-Com: -0.739D-03 0.861D-03 0.432D-03-0.270D-06-0.569D-03 0.797D-03
 Coeff-Com: -0.488D-05 0.625D-03 0.449D-02 0.757D-02-0.215D-01-0.665D-01
 Coeff-Com: -0.122D+00-0.241D-02 0.418D+00 0.781D+00
 Coeff:     -0.739D-03 0.861D-03 0.432D-03-0.270D-06-0.569D-03 0.797D-03
 Coeff:     -0.488D-05 0.625D-03 0.449D-02 0.757D-02-0.215D-01-0.665D-01
 Coeff:     -0.122D+00-0.241D-02 0.418D+00 0.781D+00
 Gap=     0.097 Goal=   None    Shift=    0.000
 Gap=     0.097 Goal=   None    Shift=    0.000
 RMSDP=8.43D-06 MaxDP=6.77D-04 DE=-2.64D-06 OVMax= 9.61D-04

 Cycle  17  Pass 1  IDiag  1:
 RMSU=  3.25D-06    CP:  6.35D-01  1.84D+00  6.51D-01  5.64D-01  7.71D-01
                    CP:  4.08D-01  4.58D-01  8.00D-01  7.93D-01  9.01D-01
                    CP:  1.09D+00  1.00D+00  1.38D+00  1.49D+00  1.55D+00
                    CP:  1.23D+00
 E= -3683.99051084640     Delta-E=       -0.000001087432 Rises=F Damp=F
 DIIS: error= 4.85D-06 at cycle  17 NSaved=  17.
 NSaved=17 IEnMin=17 EnMin= -3683.99051084640     IErMin=17 ErrMin= 4.85D-06
 ErrMax= 4.85D-06  0.00D+00 EMaxC= 1.00D-01 BMatC= 2.87D-07 BMatP= 2.11D-06
 IDIUse=1 WtCom= 1.00D+00 WtEn= 0.00D+00
 Coeff-Com: -0.268D-03 0.267D-03 0.166D-03 0.677D-05-0.238D-03 0.409D-03
 Coeff-Com: -0.431D-04-0.356D-03 0.382D-03 0.210D-02-0.569D-02-0.152D-01
 Coeff-Com: -0.613D-01-0.717D-01 0.872D-01 0.425D+00 0.640D+00
 Coeff:     -0.268D-03 0.267D-03 0.166D-03 0.677D-05-0.238D-03 0.409D-03
 Coeff:     -0.431D-04-0.356D-03 0.382D-03 0.210D-02-0.569D-02-0.152D-01
 Coeff:     -0.613D-01-0.717D-01 0.872D-01 0.425D+00 0.640D+00
 Gap=     0.097 Goal=   None    Shift=    0.000
 Gap=     0.097 Goal=   None    Shift=    0.000
 RMSDP=3.58D-06 MaxDP=3.07D-04 DE=-1.09D-06 OVMax= 3.32D-04

 Cycle  18  Pass 1  IDiag  1:
 RMSU=  1.61D-06    CP:  6.35D-01  1.84D+00  6.51D-01  5.64D-01  7.71D-01
                    CP:  4.08D-01  4.58D-01  8.01D-01  7.93D-01  9.02D-01
                    CP:  1.10D+00  1.03D+00  1.40D+00  1.54D+00  1.65D+00
                    CP:  1.32D+00  1.17D+00
 E= -3683.99051103547     Delta-E=       -0.000000189066 Rises=F Damp=F
 DIIS: error= 3.61D-06 at cycle  18 NSaved=  18.
 NSaved=18 IEnMin=18 EnMin= -3683.99051103547     IErMin=18 ErrMin= 3.61D-06
 ErrMax= 3.61D-06  0.00D+00 EMaxC= 1.00D-01 BMatC= 1.21D-07 BMatP= 2.87D-07
 IDIUse=1 WtCom= 1.00D+00 WtEn= 0.00D+00
 Coeff-Com: -0.546D-04 0.813D-04 0.932D-05 0.250D-05 0.107D-04 0.326D-05
 Coeff-Com: -0.168D-04-0.567D-03-0.138D-02-0.195D-02-0.684D-03 0.675D-02
 Coeff-Com:  0.430D-02-0.275D-01-0.695D-01-0.124D-01 0.394D+00 0.709D+00
 Coeff:     -0.546D-04 0.813D-04 0.932D-05 0.250D-05 0.107D-04 0.326D-05
 Coeff:     -0.168D-04-0.567D-03-0.138D-02-0.195D-02-0.684D-03 0.675D-02
 Coeff:      0.430D-02-0.275D-01-0.695D-01-0.124D-01 0.394D+00 0.709D+00
 Gap=     0.097 Goal=   None    Shift=    0.000
 Gap=     0.097 Goal=   None    Shift=    0.000
 RMSDP=2.17D-06 MaxDP=1.83D-04 DE=-1.89D-07 OVMax= 2.52D-04

 Cycle  19  Pass 1  IDiag  1:
 RMSU=  9.70D-07    CP:  6.35D-01  1.84D+00  6.51D-01  5.64D-01  7.71D-01
                    CP:  4.09D-01  4.58D-01  8.01D-01  7.94D-01  9.03D-01
                    CP:  1.10D+00  1.03D+00  1.42D+00  1.57D+00  1.70D+00
                    CP:  1.43D+00  1.30D+00  1.21D+00
 E= -3683.99051109872     Delta-E=       -0.000000063252 Rises=F Damp=F
 DIIS: error= 1.90D-06 at cycle  19 NSaved=  19.
 NSaved=19 IEnMin=19 EnMin= -3683.99051109872     IErMin=19 ErrMin= 1.90D-06
 ErrMax= 1.90D-06  0.00D+00 EMaxC= 1.00D-01 BMatC= 3.15D-08 BMatP= 1.21D-07
 IDIUse=1 WtCom= 1.00D+00 WtEn= 0.00D+00
 Coeff-Com:  0.231D-04-0.118D-04-0.252D-04-0.947D-07 0.622D-04-0.871D-04
 Coeff-Com:  0.266D-05-0.327D-03-0.963D-03-0.170D-02 0.448D-04 0.585D-02
 Coeff-Com:  0.151D-01 0.178D-03-0.507D-01-0.887D-01 0.874D-01 0.399D+00
 Coeff-Com:  0.634D+00
 Coeff:      0.231D-04-0.118D-04-0.252D-04-0.947D-07 0.622D-04-0.871D-04
 Coeff:      0.266D-05-0.327D-03-0.963D-03-0.170D-02 0.448D-04 0.585D-02
 Coeff:      0.151D-01 0.178D-03-0.507D-01-0.887D-01 0.874D-01 0.399D+00
 Coeff:      0.634D+00
 Gap=     0.097 Goal=   None    Shift=    0.000
 Gap=     0.097 Goal=   None    Shift=    0.000
 RMSDP=9.23D-07 MaxDP=6.09D-05 DE=-6.33D-08 OVMax= 7.52D-05

 Cycle  20  Pass 1  IDiag  1:
 RMSU=  5.42D-07    CP:  6.35D-01  1.84D+00  6.51D-01  5.64D-01  7.71D-01
                    CP:  4.08D-01  4.58D-01  8.01D-01  7.94D-01  9.04D-01
                    CP:  1.10D+00  1.04D+00  1.43D+00  1.58D+00  1.71D+00
                    CP:  1.44D+00  1.41D+00  1.40D+00  1.16D+00
 E= -3683.99051111338     Delta-E=       -0.000000014661 Rises=F Damp=F
 DIIS: error= 1.01D-06 at cycle  20 NSaved=  20.
 NSaved=20 IEnMin=20 EnMin= -3683.99051111338     IErMin=20 ErrMin= 1.01D-06
 ErrMax= 1.01D-06  0.00D+00 EMaxC= 1.00D-01 BMatC= 4.93D-09 BMatP= 3.15D-08
 IDIUse=1 WtCom= 1.00D+00 WtEn= 0.00D+00
 Coeff-Com:  0.178D-04-0.194D-04-0.986D-05-0.475D-06 0.218D-04-0.414D-04
 Coeff-Com:  0.910D-05 0.822D-04 0.177D-03 0.181D-03 0.363D-03-0.186D-03
 Coeff-Com:  0.382D-02 0.563D-02 0.473D-02-0.253D-01-0.992D-01-0.817D-01
 Coeff-Com:  0.284D+00 0.907D+00
 Coeff:      0.178D-04-0.194D-04-0.986D-05-0.475D-06 0.218D-04-0.414D-04
 Coeff:      0.910D-05 0.822D-04 0.177D-03 0.181D-03 0.363D-03-0.186D-03
 Coeff:      0.382D-02 0.563D-02 0.473D-02-0.253D-01-0.992D-01-0.817D-01
 Coeff:      0.284D+00 0.907D+00
 Gap=     0.097 Goal=   None    Shift=    0.000
 Gap=     0.097 Goal=   None    Shift=    0.000
 RMSDP=6.66D-07 MaxDP=4.71D-05 DE=-1.47D-08 OVMax= 5.10D-05

 Cycle  21  Pass 1  IDiag  1:
 Restarting incremental Fock formation.
 E= -3683.99051111865     Delta-E=       -0.000000005269 Rises=F Damp=F
 DIIS: error= 5.95D-07 at cycle  21 NSaved=  20.
 NSaved=20 IEnMin=20 EnMin= -3683.99051111865     IErMin=20 ErrMin= 5.95D-07
 ErrMax= 5.95D-07  0.00D+00 EMaxC= 1.00D-01 BMatC= 1.66D-09 BMatP= 4.93D-09
 IDIUse=1 WtCom= 1.00D+00 WtEn= 0.00D+00
 Coeff-Com:  0.582D-05-0.882D-05-0.607D-06-0.222D-05-0.452D-05-0.282D-07
 Coeff-Com:  0.105D-03 0.266D-03 0.458D-03 0.607D-03-0.530D-03-0.110D-02
 Coeff-Com:  0.421D-03 0.937D-02 0.520D-02-0.580D-01-0.119D+00-0.312D-02
 Coeff-Com:  0.397D+00 0.768D+00
 Coeff:      0.582D-05-0.882D-05-0.607D-06-0.222D-05-0.452D-05-0.282D-07
 Coeff:      0.105D-03 0.266D-03 0.458D-03 0.607D-03-0.530D-03-0.110D-02
 Coeff:      0.421D-03 0.937D-02 0.520D-02-0.580D-01-0.119D+00-0.312D-02
 Coeff:      0.397D+00 0.768D+00
 Gap=     0.097 Goal=   None    Shift=    0.000
 Gap=     0.097 Goal=   None    Shift=    0.000
 RMSDP=3.36D-07 MaxDP=2.61D-05 DE=-5.27D-09 OVMax= 2.35D-05

 Cycle  22  Pass 1  IDiag  1:
 RMSU=  3.30D-07    CP:  1.00D+00
 E= -3683.99051111988     Delta-E=       -0.000000001226 Rises=F Damp=F
 DIIS: error= 3.23D-07 at cycle  22 NSaved=  20.
 NSaved=20 IEnMin=20 EnMin= -3683.99051111988     IErMin=20 ErrMin= 3.23D-07
 ErrMax= 3.23D-07  0.00D+00 EMaxC= 1.00D-01 BMatC= 4.04D-10 BMatP= 1.66D-09
 IDIUse=1 WtCom= 1.00D+00 WtEn= 0.00D+00
 Coeff-Com:  0.289D-05-0.520D-05-0.543D-05 0.739D-05-0.142D-05 0.249D-04
 Coeff-Com:  0.669D-04 0.146D-03 0.303D-03-0.797D-05-0.133D-02-0.125D-02
 Coeff-Com:  0.183D-02 0.777D-02 0.103D-02-0.317D-01-0.745D-01-0.643D-01
 Coeff-Com:  0.354D+00 0.808D+00
 Coeff:      0.289D-05-0.520D-05-0.543D-05 0.739D-05-0.142D-05 0.249D-04
 Coeff:      0.669D-04 0.146D-03 0.303D-03-0.797D-05-0.133D-02-0.125D-02
 Coeff:      0.183D-02 0.777D-02 0.103D-02-0.317D-01-0.745D-01-0.643D-01
 Coeff:      0.354D+00 0.808D+00
 Gap=     0.097 Goal=   None    Shift=    0.000
 Gap=     0.097 Goal=   None    Shift=    0.000
 RMSDP=1.94D-07 MaxDP=1.30D-05 DE=-1.23D-09 OVMax= 1.58D-05

 Cycle  23  Pass 1  IDiag  1:
 RMSU=  1.22D-07    CP:  1.00D+00  1.45D+00
 E= -3683.99051112041     Delta-E=       -0.000000000539 Rises=F Damp=F
 DIIS: error= 1.98D-07 at cycle  23 NSaved=  20.
 NSaved=20 IEnMin=20 EnMin= -3683.99051112041     IErMin=20 ErrMin= 1.98D-07
 ErrMax= 1.98D-07  0.00D+00 EMaxC= 1.00D-01 BMatC= 1.30D-10 BMatP= 4.04D-10
 IDIUse=1 WtCom= 1.00D+00 WtEn= 0.00D+00
 Coeff-Com: -0.112D-06-0.140D-05 0.337D-05-0.818D-06-0.250D-04-0.541D-04
 Coeff-Com: -0.858D-04-0.588D-04 0.157D-03-0.291D-03-0.424D-03-0.228D-02
 Coeff-Com:  0.194D-02 0.193D-01 0.231D-01-0.343D-01-0.158D+00-0.812D-01
 Coeff-Com:  0.396D+00 0.837D+00
 Coeff:     -0.112D-06-0.140D-05 0.337D-05-0.818D-06-0.250D-04-0.541D-04
 Coeff:     -0.858D-04-0.588D-04 0.157D-03-0.291D-03-0.424D-03-0.228D-02
 Coeff:      0.194D-02 0.193D-01 0.231D-01-0.343D-01-0.158D+00-0.812D-01
 Coeff:      0.396D+00 0.837D+00
 Gap=     0.097 Goal=   None    Shift=    0.000
 Gap=     0.097 Goal=   None    Shift=    0.000
 RMSDP=1.22D-07 MaxDP=8.33D-06 DE=-5.39D-10 OVMax= 9.65D-06

 Cycle  24  Pass 1  IDiag  1:
 RMSU=  6.61D-08    CP:  1.00D+00  1.74D+00  1.30D+00
 E= -3683.99051112055     Delta-E=       -0.000000000131 Rises=F Damp=F
 DIIS: error= 9.49D-08 at cycle  24 NSaved=  20.
 NSaved=20 IEnMin=20 EnMin= -3683.99051112055     IErMin=20 ErrMin= 9.49D-08
 ErrMax= 9.49D-08  0.00D+00 EMaxC= 1.00D-01 BMatC= 4.40D-11 BMatP= 1.30D-10
 IDIUse=1 WtCom= 1.00D+00 WtEn= 0.00D+00
 Coeff-Com: -0.216D-06 0.148D-05 0.563D-06-0.196D-04-0.436D-04-0.832D-04
 Coeff-Com: -0.181D-03-0.338D-04-0.233D-04 0.204D-03-0.107D-02 0.204D-03
 Coeff-Com:  0.103D-01 0.200D-01-0.111D-02-0.698D-01-0.148D+00-0.124D-01
 Coeff-Com:  0.469D+00 0.732D+00
 Coeff:     -0.216D-06 0.148D-05 0.563D-06-0.196D-04-0.436D-04-0.832D-04
 Coeff:     -0.181D-03-0.338D-04-0.233D-04 0.204D-03-0.107D-02 0.204D-03
 Coeff:      0.103D-01 0.200D-01-0.111D-02-0.698D-01-0.148D+00-0.124D-01
 Coeff:      0.469D+00 0.732D+00
 Gap=     0.097 Goal=   None    Shift=    0.000
 Gap=     0.097 Goal=   None    Shift=    0.000
 RMSDP=6.06D-08 MaxDP=4.39D-06 DE=-1.31D-10 OVMax= 4.65D-06

 Cycle  25  Pass 1  IDiag  1:
 RMSU=  2.86D-08    CP:  1.00D+00  1.86D+00  1.58D+00  1.17D+00
 E= -3683.99051112044     Delta-E=        0.000000000104 Rises=F Damp=F
 DIIS: error= 3.31D-08 at cycle  25 NSaved=  20.
 NSaved=20 IEnMin=19 EnMin= -3683.99051112055     IErMin=20 ErrMin= 3.31D-08
 ErrMax= 3.31D-08  0.00D+00 EMaxC= 1.00D-01 BMatC= 8.11D-12 BMatP= 4.40D-11
 IDIUse=1 WtCom= 1.00D+00 WtEn= 0.00D+00
 Coeff-Com:  0.436D-06 0.601D-06-0.259D-05-0.899D-05-0.230D-04-0.933D-04
 Coeff-Com: -0.664D-04 0.291D-04 0.206D-03 0.475D-04-0.133D-03 0.131D-02
 Coeff-Com:  0.519D-02 0.550D-02-0.411D-02-0.574D-01-0.840D-01 0.664D-01
 Coeff-Com:  0.382D+00 0.685D+00
 Coeff:      0.436D-06 0.601D-06-0.259D-05-0.899D-05-0.230D-04-0.933D-04
 Coeff:     -0.664D-04 0.291D-04 0.206D-03 0.475D-04-0.133D-03 0.131D-02
 Coeff:      0.519D-02 0.550D-02-0.411D-02-0.574D-01-0.840D-01 0.664D-01
 Coeff:      0.382D+00 0.685D+00
 Gap=     0.097 Goal=   None    Shift=    0.000
 Gap=     0.097 Goal=   None    Shift=    0.000
 RMSDP=2.14D-08 MaxDP=2.04D-06 DE= 1.04D-10 OVMax= 1.49D-06

 Cycle  26  Pass 1  IDiag  1:
 RMSU=  1.16D-08    CP:  1.00D+00  1.90D+00  1.63D+00  1.33D+00  1.03D+00
 E= -3683.99051112065     Delta-E=       -0.000000000208 Rises=F Damp=F
 DIIS: error= 1.36D-08 at cycle  26 NSaved=  20.
 NSaved=20 IEnMin=20 EnMin= -3683.99051112065     IErMin=20 ErrMin= 1.36D-08
 ErrMax= 1.36D-08  0.00D+00 EMaxC= 1.00D-01 BMatC= 1.93D-12 BMatP= 8.11D-12
 IDIUse=1 WtCom= 1.00D+00 WtEn= 0.00D+00
 Coeff-Com: -0.258D-07 0.260D-05 0.286D-05 0.511D-05-0.609D-05-0.127D-04
 Coeff-Com:  0.150D-04-0.244D-04 0.163D-03-0.995D-04-0.998D-03-0.624D-03
 Coeff-Com:  0.307D-02 0.105D-01-0.232D-02-0.416D-01-0.559D-01 0.586D-01
 Coeff-Com:  0.348D+00 0.681D+00
 Coeff:     -0.258D-07 0.260D-05 0.286D-05 0.511D-05-0.609D-05-0.127D-04
 Coeff:      0.150D-04-0.244D-04 0.163D-03-0.995D-04-0.998D-03-0.624D-03
 Coeff:      0.307D-02 0.105D-01-0.232D-02-0.416D-01-0.559D-01 0.586D-01
 Coeff:      0.348D+00 0.681D+00
 Gap=     0.097 Goal=   None    Shift=    0.000
 Gap=     0.097 Goal=   None    Shift=    0.000
 RMSDP=7.42D-09 MaxDP=6.74D-07 DE=-2.08D-10 OVMax= 4.21D-07

 SCF Done:  E(UB3LYP) =  -3683.99051112     A.U. after   26 cycles
            NFock= 26  Conv=0.74D-08     -V/T= 2.0031
 <Sx>= 0.0000 <Sy>= 0.0000 <Sz>= 2.5000 <S**2>= 8.7621 S= 2.5020
 <L.S>=  0.00000000000    
 KE= 3.672602045577D+03 PE=-1.648884664843D+04 EE= 5.240786450833D+03
 Annihilation of the first spin contaminant:
 S**2 before annihilation     8.7621,   after     8.7500
 Leave Link  502 at Sat Jul 17 16:08:18 2021, MaxMem=  2147483648 cpu:           55532.9 elap:            3475.4
 (Enter /SFS/product/gaussian/g16.a03/x86_64/avx/g16/l801.exe)
 DoSCS=F DFT=T ScalE2(SS,OS)=  1.000000  1.000000
 Range of M.O.s used for correlation:     1   801
 NBasis=   802 NAE=   127 NBE=   122 NFC=     0 NFV=     0
 NROrb=    801 NOA=   127 NOB=   122 NVA=   674 NVB=   679

 **** Warning!!: The largest alpha MO coefficient is  0.85593760D+02


 **** Warning!!: The smallest alpha delta epsilon is  0.96702324D-01


 **** Warning!!: The largest beta MO coefficient is  0.85555074D+02


 **** Warning!!: The smallest beta delta epsilon is  0.97242450D-01

 Leave Link  801 at Sat Jul 17 16:08:19 2021, MaxMem=  2147483648 cpu:               0.8 elap:               0.1
 (Enter /SFS/product/gaussian/g16.a03/x86_64/avx/g16/l1101.exe)
 Using compressed storage, NAtomX=    50.
 Will process     51 centers per pass.
 R6Disp: Adding Grimme-D3(BJ) dispersion energy 1st derivatives to the gradient.
 Leave Link 1101 at Sat Jul 17 16:08:23 2021, MaxMem=  2147483648 cpu:              68.6 elap:               4.4
 (Enter /SFS/product/gaussian/g16.a03/x86_64/avx/g16/l1102.exe)
 Symmetrizing basis deriv contribution to polar:
 IMax=3 JMax=2 DiffMx= 0.00D+00
 Leave Link 1102 at Sat Jul 17 16:08:28 2021, MaxMem=  2147483648 cpu:               4.4 elap:               0.4
 (Enter /SFS/product/gaussian/g16.a03/x86_64/avx/g16/l1110.exe)
 Forming Gx(P) for the SCF density, NAtomX=    50.
 Integral derivatives from FoFJK, PRISM(SPDF).
 Do as many integral derivatives as possible in FoFJK.
 G2DrvN: MDV=    2147479912.
 G2DrvN: will do    26 centers at a time, making    2 passes.
 G2DrvN:  IPasSy=1 do centers    0 through   25.
 Calling FoFCou, ICntrl=  3107 FMM=F I1Cent=   0 AccDes= 0.00D+00.
 FoFJK:  IHMeth= 1 ICntrl=    3107 DoSepK=F KAlg= 0 I1Cent=           0 FoldK=F
 IRaf=         0 NMat=       1 IRICut=       1 DoRegI=T DoRafI=F ISym2E= 0 IDoP0=0 IntGTp=1.
 FoFCou: FMM=F IPFlag=           0 FMFlag=      100000 FMFlg1=           0
         NFxFlg=           0 DoJE=F BraDBF=F KetDBF=F FulRan=T
         wScrn=  0.000000 ICntrl=      3107 IOpCl=  1 I1Cent=           0 NGrid=           0
         NMat0=    1 NMatS0=      1 NMatT0=    0 NMatD0=    1 NMtDS0=    0 NMtDT0=    0
 Symmetry not used in FoFCou.
 G2DrvN:  IPasSy=1 do centers   26 through   50.
 Calling FoFCou, ICntrl=  3107 FMM=F I1Cent=   0 AccDes= 0.00D+00.
 End of G2Drv F.D. properties file   721 does not exist.
 End of G2Drv F.D. properties file   722 does not exist.
 End of G2Drv F.D. properties file   788 does not exist.
 Leave Link 1110 at Sat Jul 17 17:17:44 2021, MaxMem=  2147483648 cpu:           66423.7 elap:            4156.4
 (Enter /SFS/product/gaussian/g16.a03/x86_64/avx/g16/l1002.exe)
 Minotr:  UHF open shell wavefunction.
          IDoAtm=11111111111111111111111111111111111111111111111111
          Direct CPHF calculation.
          Differentiating once with respect to electric field.
                with respect to dipole field.
          Differentiating once with respect to nuclear coordinates.
          Requested convergence is 1.0D-08 RMS, and 1.0D-07 maximum.
          Secondary convergence is 1.0D-12 RMS, and 1.0D-12 maximum.
          NewPWx=T KeepS1=F KeepF1=F KeepIn=T MapXYZ=F SortEE=F KeepMc=T.
        15699 words used for storage of precomputed grid.
 Two-electron integrals replicated using symmetry.
          MDV=    2147483648 using IRadAn=       1.
          Solving linear equations simultaneously, MaxMat=     384.
 FoF2E skips out because all densities are zero.
 CalDSu exits because no D1Ps are significant.
 FoFJK:  IHMeth= 1 ICntrl=       0 DoSepK=F KAlg= 0 I1Cent=           0 FoldK=F
 IRaf= 890000000 NMat=      64 IRICut=     160 DoRegI=T DoRafI=T ISym2E= 2 IDoP0=3 IntGTp=3.
 FoFCou: FMM=F IPFlag=           0 FMFlag=      100000 FMFlg1=           0
         NFxFlg=           0 DoJE=F BraDBF=F KetDBF=F FulRan=T
         wScrn=  0.000000 ICntrl=         0 IOpCl=  1 I1Cent=           0 NGrid=           0
         NMat0=   64 NMatS0=     64 NMatT0=    0 NMatD0=   64 NMtDS0=    0 NMtDT0=    0
 Integrals replicated using symmetry in FoFCou.
 Raff kept on since  87.72% of shell-pairs survive, threshold=   0.20 IRatSp=88.
          There are   153 degrees of freedom in the 1st order CPHF.  IDoFFX=6 NUNeed=     3.
    153 vectors produced by pass  0 Test12= 1.68D-13 1.00D-09 XBig12= 1.20D+03 9.92D+00.
 AX will form    64 AO Fock derivatives at one time.
    150 vectors produced by pass  1 Test12= 1.68D-13 1.00D-09 XBig12= 2.88D+02 1.63D+00.
    150 vectors produced by pass  2 Test12= 1.68D-13 1.00D-09 XBig12= 5.42D+00 2.72D-01.
    150 vectors produced by pass  3 Test12= 1.68D-13 1.00D-09 XBig12= 7.36D-02 4.12D-02.
    150 vectors produced by pass  4 Test12= 1.68D-13 1.00D-09 XBig12= 6.74D-04 2.78D-03.
    150 vectors produced by pass  5 Test12= 1.68D-13 1.00D-09 XBig12= 3.23D-06 2.63D-04.
    123 vectors produced by pass  6 Test12= 1.68D-13 1.00D-09 XBig12= 1.78D-08 1.32D-05.
     57 vectors produced by pass  7 Test12= 1.68D-13 1.00D-09 XBig12= 1.00D-10 7.76D-07.
      5 vectors produced by pass  8 Test12= 1.68D-13 1.00D-09 XBig12= 6.01D-13 7.04D-08.
      3 vectors produced by pass  9 Test12= 1.68D-13 1.00D-09 XBig12= 9.57D-14 1.41D-08.
      3 vectors produced by pass 10 Test12= 1.68D-13 1.00D-09 XBig12= 6.02D-13 2.72D-08.
      3 vectors produced by pass 11 Test12= 1.68D-13 1.00D-09 XBig12= 1.18D-12 5.30D-08.
      3 vectors produced by pass 12 Test12= 1.68D-13 1.00D-09 XBig12= 7.98D-13 4.01D-08.
      3 vectors produced by pass 13 Test12= 1.68D-13 1.00D-09 XBig12= 3.08D-13 2.08D-08.
      3 vectors produced by pass 14 Test12= 1.68D-13 1.00D-09 XBig12= 7.28D-13 3.62D-08.
      3 vectors produced by pass 15 Test12= 1.68D-13 1.00D-09 XBig12= 1.90D-13 1.66D-08.
      3 vectors produced by pass 16 Test12= 1.68D-13 1.00D-09 XBig12= 1.32D-12 4.01D-08.
      3 vectors produced by pass 17 Test12= 1.68D-13 1.00D-09 XBig12= 1.45D-13 1.60D-08.
      3 vectors produced by pass 18 Test12= 1.68D-13 1.00D-09 XBig12= 1.51D-12 4.07D-08.
      3 vectors produced by pass 19 Test12= 1.68D-13 1.00D-09 XBig12= 1.73D-13 2.41D-08.
      3 vectors produced by pass 20 Test12= 1.68D-13 1.00D-09 XBig12= 2.39D-12 7.79D-08.
      3 vectors produced by pass 21 Test12= 1.68D-13 1.00D-09 XBig12= 8.53D-14 1.37D-08.
      3 vectors produced by pass 22 Test12= 1.68D-13 1.00D-09 XBig12= 4.89D-13 2.37D-08.
      3 vectors produced by pass 23 Test12= 1.68D-13 1.00D-09 XBig12= 1.21D-13 1.19D-08.
      3 vectors produced by pass 24 Test12= 1.68D-13 1.00D-09 XBig12= 2.00D-13 1.93D-08.
      3 vectors produced by pass 25 Test12= 1.68D-13 1.00D-09 XBig12= 4.44D-13 3.42D-08.
      3 vectors produced by pass 26 Test12= 1.68D-13 1.00D-09 XBig12= 1.93D-13 1.78D-08.
      3 vectors produced by pass 27 Test12= 1.68D-13 1.00D-09 XBig12= 3.68D-13 2.23D-08.
      3 vectors produced by pass 28 Test12= 1.68D-13 1.00D-09 XBig12= 5.88D-13 3.02D-08.
      3 vectors produced by pass 29 Test12= 1.68D-13 1.00D-09 XBig12= 1.35D-13 1.17D-08.
      3 vectors produced by pass 30 Test12= 1.68D-13 1.00D-09 XBig12= 1.28D-13 1.33D-08.
      3 vectors produced by pass 31 Test12= 1.68D-13 1.00D-09 XBig12= 2.50D-13 2.08D-08.
      3 vectors produced by pass 32 Test12= 1.68D-13 1.00D-09 XBig12= 1.66D-13 1.43D-08.
      3 vectors produced by pass 33 Test12= 1.68D-13 1.00D-09 XBig12= 3.02D-13 3.11D-08.
      3 vectors produced by pass 34 Test12= 1.68D-13 1.00D-09 XBig12= 1.73D-13 1.61D-08.
      3 vectors produced by pass 35 Test12= 1.68D-13 1.00D-09 XBig12= 3.61D-13 1.87D-08.
      3 vectors produced by pass 36 Test12= 1.68D-13 1.00D-09 XBig12= 6.30D-14 7.75D-09.
      3 vectors produced by pass 37 Test12= 1.68D-13 1.00D-09 XBig12= 5.94D-13 3.22D-08.
      3 vectors produced by pass 38 Test12= 1.68D-13 1.00D-09 XBig12= 1.79D-13 1.42D-08.
      3 vectors produced by pass 39 Test12= 1.68D-13 1.00D-09 XBig12= 3.96D-13 2.72D-08.
      3 vectors produced by pass 40 Test12= 1.68D-13 1.00D-09 XBig12= 2.33D-13 1.72D-08.
      3 vectors produced by pass 41 Test12= 1.68D-13 1.00D-09 XBig12= 2.52D-13 1.74D-08.
      3 vectors produced by pass 42 Test12= 1.68D-13 1.00D-09 XBig12= 1.88D-13 1.66D-08.
      3 vectors produced by pass 43 Test12= 1.68D-13 1.00D-09 XBig12= 1.93D-13 1.85D-08.
      3 vectors produced by pass 44 Test12= 1.68D-13 1.00D-09 XBig12= 2.31D-13 1.61D-08.
      3 vectors produced by pass 45 Test12= 1.68D-13 1.00D-09 XBig12= 1.47D-13 1.68D-08.
      3 vectors produced by pass 46 Test12= 1.68D-13 1.00D-09 XBig12= 1.30D-13 1.38D-08.
      3 vectors produced by pass 47 Test12= 1.68D-13 1.00D-09 XBig12= 1.61D-13 1.84D-08.
      3 vectors produced by pass 48 Test12= 1.68D-13 1.00D-09 XBig12= 3.92D-13 2.34D-08.
      3 vectors produced by pass 49 Test12= 1.68D-13 1.00D-09 XBig12= 2.04D-13 1.42D-08.
      3 vectors produced by pass 50 Test12= 1.68D-13 1.00D-09 XBig12= 2.94D-13 1.86D-08.
      3 vectors produced by pass 51 Test12= 1.68D-13 1.00D-09 XBig12= 1.43D-13 1.44D-08.
      3 vectors produced by pass 52 Test12= 1.68D-13 1.00D-09 XBig12= 2.61D-13 1.68D-08.
      3 vectors produced by pass 53 Test12= 1.68D-13 1.00D-09 XBig12= 2.99D-13 1.95D-08.
      3 vectors produced by pass 54 Test12= 1.68D-13 1.00D-09 XBig12= 1.43D-13 1.43D-08.
      3 vectors produced by pass 55 Test12= 1.68D-13 1.00D-09 XBig12= 8.50D-14 1.02D-08.
      3 vectors produced by pass 56 Test12= 1.68D-13 1.00D-09 XBig12= 9.03D-14 1.07D-08.
      3 vectors produced by pass 57 Test12= 1.68D-13 1.00D-09 XBig12= 1.92D-13 1.35D-08.
      3 vectors produced by pass 58 Test12= 1.68D-13 1.00D-09 XBig12= 2.01D-13 2.06D-08.
[...]
 0000074,-0.00000062,0.00336490,0.00177714,-0.00436092,-0.00987862,-0.0
 1099207,-0.00966863,0.00050155,0.00002443,0.00055020,-0.08725642,-0.21
 881947,-0.11927397,-0.00008368,-0.00072610,0.00241926,-0.00040621,0.00
 345240,-0.00226842,-0.00001976,-0.00033091,0.00047064,0.00105298,0.001
 34989,-0.00132136,0.09322288,0.22559686,0.00000472,0.00000647,-0.00001
 611,-0.00003080,0.00002032,0.00003490,0.00000663,-0.00002360,-0.000009
 83,-0.00001391,-0.00000045,0.00001383,0.00000369,-0.00000983,-0.000014
 87,0.00001828,0.00001114,0.00000891,-0.00002689,0.00014919,-0.00011059
 ,-0.00000317,0.00000769,0.00001489,0.00004352,0.00000461,-0.00003292,-
 0.00008973,-0.00008062,0.00000476,0.00021851,0.00001729,-0.00038591,-0
 .00039192,-0.00057360,0.00003034,0.00009129,-0.00001076,0.00004588,-0.
 00008172,-0.00002931,0.00002390,0.00001264,-0.00000600,-0.00000967,0.0
 0001040,-0.00000363,-0.00001512,0.00002602,0.00006763,-0.00000860,-0.0
 0000065,0.00001105,0.00000225,0.00000104,0.00000748,-0.00000169,-0.000
 00342,0.00000170,0.00000355,-0.00000403,-0.00000033,-0.00000263,0.0000
 0093,-0.00000261,-0.00000259,0.00000163,-0.00000558,-0.00000319,0.0000
 1231,0.00001165,-0.00000203,-0.00000370,-0.00001764,0.00000414,0.00000
 155,0.00000018,0.00000017,0.00000257,0.00000065,0.00000782,0.00000160,
 -0.00000808,-0.00001135,-0.00001874,-0.00000478,-0.00000351,-0.0000044
 4,-0.00000920,-0.00000010,-0.00000793,-0.00001111,-0.00000363,-0.00000
 082,0.00000411,-0.00000134,-0.00000262,0.00000235,0.00000342,0.0000014
 7,0.00000203,0.00000087,0.00000052,0.00000017,-0.00000060,-0.00000113,
 0.00000094,-0.00000038,0.00000323,-0.00000013,0.00000147,0.00000092,-0
 .00000178,-0.00000126,0.00229698,-0.00421978,0.00508010,-0.00704494,-0
 .01085252,-0.00337371,0.00034155,0.00059689,-0.00043991,-0.05728279,-0
 .11947354,-0.11617865,0.00006848,0.00245349,-0.00271641,0.00052576,-0.
 00246311,0.00500530,-0.00011207,0.00042617,-0.00072084,0.00182738,0.00
 025918,0.00319930,0.05977731,0.13180092,0.11271515,-0.00008599,0.00004
 131,-0.00003430,0.00005970,0.00001513,-0.00001522,0.00000572,0.0000219
 5,0.00003525,-0.00006174,-0.00007986,-0.00004146,0.00009813,-0.0001074
 0,-0.00001526,0.00003603,-0.00004380,0.00005710,-0.00001221,-0.0002180
 2,0.00053391,0.00003267,0.00004362,-0.00009412,-0.00001253,-0.00001291
 ,0.00001447,0.00006854,-0.00003684,-0.00000453,0.00005539,0.00043571,-
 0.00018825,-0.00064510,-0.00078708,-0.00046342,-0.00007803,-0.00002292
 ,-0.00012941,0.00005012,-0.00006237,0.00005484,-0.00001179,0.00001921,
 0.00000850,-0.00000142,0.00001012,-0.00004140,-0.00005170,0.00002516,-
 0.00003758,-0.00001046,-0.00000270,0.00001129,-0.00000166,0.00001649,-
 0.00000848,0.00001900,0.00002526,-0.00001293,0.00002153,0.00002666,-0.
 00000426,-0.00001263,-0.00000297,-0.00000792,0.00000505,0.00001907,0.0
 0000673,-0.00010043,-0.00004475,0.00004190,0.00000200,0.00000917,-0.00
 000406,-0.00000037,0.00000011,0.00000277,0.00000640,-0.00000072,0.0000
 0021,-0.00001238,0.00001413,0.00001548,-0.00000361,-0.00001631,0.00004
 365,0.00003695,0.00002268,-0.00004137,0.00005323,0.00001352,-0.0000054
 3,-0.00001957,-0.00000930,0.00000826,0.00000420,0.00000642,0.00000200,
 0.00000517,0.00000369,0.00000142,0.00000378,-0.00000024,-0.00000136,0.
 00000026,-0.00000016,-0.00000232,0.00000010,-0.00000302,-0.00000053,-0
 .00000305,-0.00000126,-0.00000345,0.00057289,0.00250942,0.00229524,0.0
 0073086,0.00006278,-0.00004992,-0.01323359,-0.00369777,-0.00147731,0.0
 0120776,-0.00203507,-0.00099447,-0.00005657,0.00001279,-0.00004560,-0.
 33852287,-0.03105987,-0.00243608,0.00076371,0.00002896,-0.00028494,-0.
 00778439,0.00126859,0.00144080,-0.00040280,0.00010403,0.00011324,0.356
 60328,0.00017246,0.00000308,-0.00004600,-0.00008986,-0.00008622,0.0000
 8925,-0.00000282,-0.00006517,-0.00012682,-0.00007250,0.00005926,0.0000
 3875,-0.00004754,0.00008403,0.00016293,-0.00008859,0.00020222,-0.00007
 458,0.00016448,0.00017338,-0.00036632,-0.00002410,-0.00003572,0.000057
 27,-0.00000068,0.00001092,-0.00000942,-0.00002628,0.00000704,-0.000012
 06,-0.00002315,-0.00025641,0.00008562,0.00105359,0.00062857,0.00027808
 ,-0.00006242,-0.00002119,0.00006756,0.00004235,0.00003778,-0.00003025,
 -0.00000892,0.00000026,0.00000546,-0.00000991,-0.00000243,0.00001291,0
 .00004404,-0.00002100,0.00003601,0.00001156,0.00000310,-0.00001072,-0.
 00001018,-0.00000524,-0.00000542,-0.00001061,-0.00004065,0.00002926,-0
 .00004824,-0.00010112,-0.00001043,0.00001174,-0.00000805,0.00000437,-0
 .00000163,-0.00001070,-0.00000380,0.00008037,0.00000605,-0.00003390,-0
 .00000340,-0.00000419,0.00000388,0.00000353,-0.00000308,-0.00000343,-0
 .00001016,0.00000619,0.00000397,0.00000586,-0.00000791,-0.00000206,-0.
 00000421,0.00000584,-0.00006457,-0.00002471,0.00000315,0.00002545,-0.0
 0004968,0.00001225,0.00001360,0.00001580,-0.00001262,0.00000323,-0.000
 00271,-0.00000710,-0.00000345,-0.00000713,-0.00000559,-0.00000458,-0.0
 0000511,0.00000505,0.00000162,0.00000209,0.00000074,0.00000126,-0.0000
 0379,0.00000371,-0.00000047,0.00000217,-0.00000045,0.00000691,0.001640
 54,0.00002932,-0.00555102,0.00040012,-0.00100613,-0.00011887,0.0219485
 3,0.00569486,-0.00026657,-0.00120866,-0.00157174,-0.00536170,-0.000010
 04,-0.00020265,0.00049839,-0.03116878,-0.05394048,-0.00965800,-0.00010
 586,-0.00060162,0.00262910,-0.02506101,0.00105352,0.00006677,-0.001162
 96,0.00002338,-0.00001443,0.03324413,0.05078535,-0.00005912,0.00006723
 ,-0.00006348,0.00005617,0.00006135,-0.00004806,-0.00005723,-0.00000303
 ,0.00005255,-0.00000143,-0.00008612,-0.00005736,-0.00000638,-0.0000599
 4,-0.00003489,0.00006582,-0.00000833,0.00009455,-0.00011203,0.00001326
 ,-0.00000321,0.00000950,0.00000197,0.00000390,0.00001458,0.00000421,-0
 .00000710,-0.00002148,-0.00001328,0.00000478,0.00005577,0.00001402,0.0
 0006434,0.00098371,0.00022026,0.00035383,0.00007985,0.00001219,0.00000
 886,-0.00006516,-0.00000980,0.00000064,0.00001098,-0.00000719,-0.00000
 834,0.00000855,0.00000070,0.00000324,0.00000844,0.00003095,0.00001538,
 -0.00000214,0.00000133,-0.00000207,-0.00001427,0.00002449,-0.00001662,
 0.00003185,0.00005651,-0.00002923,-0.00002400,-0.00001718,0.00001026,0
 .00001938,-0.00003371,-0.00001318,0.00000024,-0.00000548,-0.00000501,0
 .00001738,0.00001668,0.00003426,-0.00000061,-0.00000684,-0.00000270,-0
 .00000250,-0.00000524,0.00000034,-0.00000806,0.00000412,0.00000160,0.0
 0000534,-0.00000202,-0.00001246,-0.00001876,-0.00002125,0.00003735,-0.
 00000229,-0.00000629,-0.00002022,-0.00001588,-0.00001364,-0.00002535,-
 0.00000271,0.00000683,0.00000344,0.00000033,0.00000488,0.00000296,0.00
 000250,0.00000315,0.00000398,0.00000233,-0.00000278,-0.00000159,-0.000
 00165,0.00000022,0.00000015,0.00000204,-0.00000170,-0.00000032,-0.0000
 0142,-0.00000235,-0.00000392,0.00117443,-0.00580372,0.00422165,0.00004
 413,-0.00027609,-0.00104204,0.01595765,0.00186283,0.00419126,-0.000752
 07,-0.00526435,0.00304585,0.00003052,0.00048697,-0.00060073,-0.0019691
 7,-0.00978574,-0.04385387,-0.00043165,0.00233405,-0.00282837,-0.016365
 22,-0.00130851,0.00310614,-0.00073652,-0.00009015,0.00011649,0.0019212
 3,0.01546555,0.03595058,-0.00001644,0.00001242,-0.00003164,0.00004431,
 -0.00001750,-0.00000979,-0.00001603,0.00001055,0.00001475,0.00001027,-
 0.00000308,0.00002664,0.00000729,-0.00000219,-0.00001912,-0.00000470,0
 .00000337,0.00000942,-0.00006634,-0.00001384,-0.00005071,-0.00000563,-
 0.00000124,0.00000624,0.00000022,0.00000548,0.00000323,0.00000722,0.00
 001258,0.00000404,0.00001074,-0.00004771,0.00004021,-0.00007182,0.0001
 8884,-0.00001320,0.00004639,0.00003830,0.00002509,-0.00002288,-0.00008
 668,0.00003132,-0.00000545,0.00001611,0.00000731,-0.00000063,0.0000068
 9,-0.00002969,-0.00003544,0.00010131,-0.00002010,-0.00000148,0.0000003
 1,0.00000641,0.00000279,0.00000550,-0.00000443,-0.00000317,-0.00000583
 ,0.00000814,-0.00000194,-0.00000595,-0.00000384,0.00000127,0.00000606,
 0.00000561,0.00000154,-0.00000267,0.00000090,0.00000131,-0.00001206,0.
 00000211,-0.00000024,0.00000171,0.00000051,0.00000175,0.00000079,-0.00
 000003,0.00000805,-0.00000746,-0.00000349,-0.00000048,-0.00000030,0.00
 000204,-0.00000366,0.00003268,0.00001823,0.00000353,0.00000287,-0.0000
 0438,-0.00000135,0.00000419,-0.00000070,-0.00000247,-0.00000718,0.0000
 0228,-0.00000155,-0.00000044,0.00000071,-0.00000034,0.00000138,-0.0000
 0065,-0.00000012,0.00000230,0.00000016,0.00000098,0.00000082,-0.000000
 67,0.00000027,0.00000030,0.00000058,0.00000063,-0.00000037,0.00000131,
 -0.00042929,-0.00086697,-0.00061200,-0.00573178,-0.00155439,-0.0004188
 2,-0.00013717,-0.00278341,-0.00135665,-0.01179946,0.02101794,0.0152784
 9,-0.00049114,0.00106165,0.00071086,0.01095712,-0.00999966,-0.00685373
 ,0.00040518,-0.00046637,-0.00048240,-0.15656070,0.10793844,0.07859735,
 0.00100974,-0.00004695,-0.00027228,0.00071924,0.00040786,0.00003538,0.
 16212271,0.00000531,-0.00008371,0.00010801,-0.00010742,0.00000879,0.00
 001145,0.00002872,-0.00001086,-0.00003730,-0.00005081,0.00002988,0.000
 00244,0.00002220,0.00003209,0.00003065,0.00005922,-0.00002463,-0.00006
 417,0.00013164,0.00009090,0.00004812,-0.00000482,0.00001260,-0.0000190
 6,0.00001017,0.00000744,-0.00001856,0.00000212,-0.00005027,0.00000180,
 -0.00013732,0.00006250,-0.00028467,0.00006248,-0.00043773,0.00049628,0
 .00000547,-0.00004363,0.00003351,-0.00001005,-0.00000320,-0.00002238,-
 0.00000062,0.00000095,0.00000621,-0.00000149,-0.00000085,0.00001577,-0
 .00002478,-0.00000268,0.00000586,0.00000407,-0.00000076,-0.00000213,0.
 00000748,-0.00001715,0.00001794,-0.00001381,-0.00002027,0.00000897,0.0
 0000233,-0.00000017,-0.00000240,-0.00000117,0.00003785,0.00000997,0.00
 000206,0.00000627,0.00000332,-0.00001225,0.00000872,-0.00001702,-0.000
 00072,-0.00000459,0.00000234,0.00000084,0.00000256,0.00000333,0.000002
 94,-0.00000145,0.00000151,-0.00000634,-0.00000405,0.00000014,0.0001222
 7,0.00000622,-0.00001472,-0.00000433,-0.00000831,0.00001367,0.00000661
 ,-0.00000415,0.00001288,0.00000540,0.00000473,-0.00000573,0.00000071,-
 0.00000088,-0.00000065,0.00000026,-0.00000045,-0.00000076,-0.00000026,
 -0.00000111,0.00000061,-0.00000050,-0.00000129,0.00000059,-0.00000053,
 0.00000023,0.00000025,0.00000080,0.00000163,-0.00000084,-0.00096260,-0
 .00026252,0.00080090,-0.00142256,0.00312713,-0.00285041,-0.00301610,-0
 .00092236,-0.00526587,-0.00435794,0.00719515,0.00055556,-0.00025636,-0
 .00005183,0.00048723,0.01577568,-0.00902651,-0.01126867,0.00087980,-0.
 00062611,-0.00011596,0.10776358,-0.17431234,-0.09439290,0.00031348,-0.
 00071235,0.00197713,0.00004283,-0.00045680,0.00210149,-0.11489043,0.17
 646915,-0.00002239,0.00005905,-0.00010458,0.00013689,-0.00001656,-0.00
 003582,-0.00004589,0.00003487,0.00005351,0.00008831,-0.00001525,0.0000
 0007,-0.00003115,-0.00002925,-0.00007707,-0.00004058,0.00002275,0.0000
 9103,-0.00021932,-0.00012703,0.00003325,0.00000177,-0.00002001,0.00000
 185,-0.00001229,-0.00000737,0.00001851,0.00004846,0.00007034,0.0000811
 9,0.00015799,0.00002324,0.00029449,0.00009952,0.00039664,-0.00091082,0
 .00000378,0.00002588,-0.00003549,-0.00000311,0.00004450,0.00000596,0.0
 0000825,-0.00001249,-0.00001144,0.00000365,-0.00000622,-0.00000275,0.0
 0005055,-0.00002683,0.00000696,-0.00000461,0.00000579,0.00000303,-0.00
 000075,0.00000231,-0.00000434,0.00000079,0.00000329,0.00000380,-0.0000
 0068,-0.00000227,-0.00000427,0.00000680,0.00000377,0.00001243,-0.00000
 290,-0.00000477,-0.00000079,0.00002277,0.00001569,0.00000444,0.0000033
 6,0.00000009,-0.00000146,-0.00000019,-0.00000100,-0.00000055,0.0000107
 9,-0.00001280,-0.00002246,-0.00000532,0.00001220,0.00000532,-0.0001379
 4,0.00005296,0.00011050,-0.00000856,-0.00001750,0.00000337,-0.00001362
 ,-0.00001099,-0.00001047,0.00000800,0.00000843,-0.00000154,-0.00000133
 ,0.00000168,0.00000137,-0.00000165,0.00000168,0.00000093,-0.00000108,-
 0.00000076,-0.00000078,-0.00000110,-0.00000036,0.00000064,0.00000128,0
 .00000023,0.00000037,0.00000032,-0.00000117,-0.00000098,-0.00062719,0.
 00075956,-0.00078263,-0.00015557,-0.00270825,0.00562019,-0.00142301,-0
 .00496617,0.00382630,-0.00202462,-0.00116539,0.00617145,-0.00015467,0.
 00040955,-0.00052199,0.01001874,-0.01018582,-0.00072265,0.00037479,-0.
 00009147,-0.00087699,0.07876959,-0.09428817,-0.10997678,0.00001241,0.0
 0205696,-0.00229575,-0.00024806,0.00208499,-0.00215496,-0.08463933,0.1
 0764447,0.10221349,-0.00032809,0.00002689,-0.00013396,0.00030138,0.000
 41069,-0.00077912,0.00002462,0.00026379,0.00034070,0.00018409,-0.00002
 450,0.00000805,-0.00000551,-0.00000277,-0.00005464,-0.00000636,-0.0000
 8539,-0.00012093,0.00189733,-0.00128523,0.00402271,-0.00004016,0.00003
 750,-0.00071280,0.00000595,-0.00009652,0.00029458,0.00174207,0.0003614
 4,0.00084352,-0.00246663,0.00246070,-0.00321818,-0.31348544,-0.0506386
 9,-0.03281411,-0.00377384,0.00004383,-0.00208340,0.00263948,0.00397173
 ,-0.00104028,-0.00004369,-0.00046976,-0.00022531,-0.00016353,-0.000275
 09,0.00037352,-0.00214234,-0.00202288,0.00052002,0.00004330,-0.0000374
 8,-0.00001672,0.00002165,-0.00003062,-0.00001205,0.00000427,-0.0000017
 2,-0.00000781,0.00001403,-0.00000469,0.00000413,-0.00001519,0.00000812
 ,0.00001918,0.00008282,0.00020312,0.00006141,-0.00015106,-0.00009842,0
 .00009770,0.00000348,0.00004694,0.00002267,-0.00006691,0.00010971,-0.0
 0002600,0.00039962,-0.00016014,-0.00017132,-0.00015396,0.00003478,0.00
 010773,0.00101911,0.00013353,0.00042534,0.00004120,0.00009904,-0.00010
 872,0.00000936,0.00003772,-0.00002159,-0.00000213,-0.00007156,0.000030
 05,0.00001255,-0.00000236,-0.00000431,-0.00000932,0.00000477,-0.000017
 96,0.00000020,0.00001176,0.00000207,0.00000084,0.00000185,-0.00000607,
 -0.00000960,0.00001117,-0.00000191,0.00000482,-0.00000717,0.00001171,-
 0.01372197,-0.00427712,-0.00364619,0.00093033,-0.00047727,-0.00004781,
 -0.00066721,0.00212113,0.00083403,0.00069056,-0.00010099,-0.00020777,0
 .00089342,0.00034158,0.00045607,-0.00052994,-0.00098770,-0.00033243,0.
 00004089,0.00001640,-0.00009471,-0.00000351,0.00009005,0.00000678,0.00
 003817,-0.00005416,-0.00001648,-0.00003679,0.00010443,0.00013366,0.000
 04914,0.00002472,-0.00000188,0.32672853,-0.00018065,-0.00021203,-0.000
 38459,0.00018169,-0.00003196,-0.00040771,0.00000719,0.00011691,0.00010
 397,0.00016328,-0.00002161,0.00003215,-0.00005896,0.00001602,-0.000110
 98,0.00002538,0.00009379,0.00014116,0.00105559,0.00132173,0.00137040,0
 .00010007,0.00021873,-0.00075916,-0.00015866,-0.00027165,0.00032633,-0
 .00059753,0.00012041,0.00049858,-0.02948338,-0.00003196,-0.00943559,-0
 .05022055,-0.06794428,-0.00906013,-0.00012765,-0.00102733,0.00030709,0
 .00138526,-0.00020038,0.00120134,-0.00009697,0.00001810,-0.00008210,-0
 .00004116,-0.00004171,-0.00010767,-0.00008920,-0.00141299,-0.00000173,
 -0.00002766,0.00003199,0.00003423,0.00001251,-0.00001499,-0.00000637,0
 .00000619,-0.00001138,0.00001520,0.00001496,-0.00000546,-0.00000474,0.
 00007667,0.00001706,0.00018572,0.00001108,0.00007842,0.00006000,-0.000
 32729,-0.00004255,-0.00001858,0.00011046,0.00005425,0.00001324,0.00019
 771,0.00017982,0.00002599,0.00096120,-0.00039723,-0.00024841,0.0000101
 0,0.00010732,0.00015856,-0.00005577,-0.00443530,-0.00231101,0.00009635
 ,0.00004808,-0.00004135,0.00019348,0.00002852,0.00005722,-0.00002452,-
 0.00002830,0.00001409,0.00000763,0.00000258,-0.00000326,0.00000678,0.0
 0000830,-0.00000685,0.00000333,0.00000656,-0.00000223,0.00000312,0.000
 00335,-0.00000422,-0.00000238,-0.00000275,0.00000107,-0.00000317,-0.00
 000026,0.00000275,0.02200422,0.00830831,-0.00197062,0.00240513,-0.0006
 2797,0.00199725,0.00149050,-0.00175664,-0.00495941,-0.00029961,0.00008
 694,-0.00023414,-0.00018010,-0.00068903,-0.00066499,0.00114642,-0.0000
 9976,0.00088007,-0.00005093,0.00000815,0.00007145,-0.00001849,0.000253
 50,-0.00006310,-0.00001090,0.00002661,-0.00001806,0.00020237,-0.000364
 78,0.00003949,-0.00005798,-0.00001180,-0.00002303,0.05023486,0.0685286
 6,-0.00026233,0.00010152,0.00040318,0.00009818,0.00017781,-0.00001754,
 0.00008914,-0.00000944,-0.00005399,-0.00021782,-0.00001895,0.00003402,
 0.00010973,0.00005067,0.00027801,0.00015749,-0.00026641,-0.00029080,-0
 .00241710,-0.00275448,-0.00136921,-0.00020896,0.00007909,0.00118067,0.
 00051855,0.00037029,-0.00012913,-0.00275084,0.00276877,-0.00002616,-0.
 00724449,-0.00670761,0.00539944,-0.04040895,-0.01079376,-0.05661886,0.
 00046014,0.00120020,-0.00004072,-0.00016288,0.00167451,-0.00035777,0.0
 0006680,-0.00020578,-0.00025496,0.00000424,-0.00006328,0.00021795,-0.0
 0098192,-0.00072014,-0.00083355,0.00004622,-0.00000995,-0.00004372,-0.
 00000539,0.00001238,-0.00000004,-0.00000723,0.00004384,-0.00000633,-0.
 00001536,-0.00000952,0.00000123,0.00002136,0.00019418,-0.00011732,0.00
 007144,-0.00007071,-0.00005933,0.00036956,0.00012059,-0.00008743,-0.00
 009142,-0.00006099,-0.00000556,-0.00003488,0.00002917,0.00001549,0.000
 61016,-0.00035543,0.00007964,0.00027204,-0.00030272,-0.00048433,-0.001
 08401,-0.00243874,0.00301709,-0.00007380,-0.00002390,0.00004350,-0.000
 17401,-0.00004483,-0.00010302,0.00003232,0.00003306,-0.00002215,-0.000
 00120,-0.00000363,-0.00000144,-0.00000863,-0.00001130,0.00000521,-0.00
 000396,-0.00000804,0.00000257,-0.00000481,-0.00000457,0.00000264,-0.00
 000065,0.00000683,-0.00000095,0.00000569,-0.00000011,0.00000150,0.0128
 8936,-0.00273377,0.00991283,0.00171773,0.00174007,-0.00278338,0.000714
 23,-0.00420019,0.00374186,-0.00059768,-0.00025398,0.00041617,0.0000506
 6,-0.00068111,0.00000860,0.00065578,0.00065840,-0.00109021,0.00008401,
 0.00002852,-0.00011812,0.00029973,0.00006705,0.00040609,0.00003139,-0.
 00008478,0.00004575,0.00008516,0.00010667,-0.00049329,-0.00001166,-0.0
 0001819,-0.00000711,0.03730885,0.02339271,0.04020298\\0.00034469,0.002
 63570,0.00015703,-0.00198842,0.00064423,0.00139774,-0.00022868,-0.0008
 2709,0.00001401,0.00021442,-0.00020432,-0.00003608,-0.00037120,-0.0003
 2861,-0.00018937,-0.00024497,0.00032357,0.00044580,-0.00100705,0.00365
 903,-0.00678867,0.00191826,-0.00245814,0.00020856,0.00005864,0.0006202
 8,-0.00003197,0.00040191,0.00019707,-0.00177370,0.00004731,-0.00386037
 ,0.00337757,-0.00097659,0.00119713,0.00022455,0.00145275,0.00090940,-0
 .00033541,0.00058033,-0.00024091,0.00136676,0.00052115,-0.00032226,-0.
 00000047,0.00012454,-0.00014219,-0.00014792,0.00049718,-0.00003343,0.0
 0025497,-0.00007390,0.00015142,0.00005573,-0.00001170,0.00001106,0.000
 04965,-0.00003611,0.00003669,-0.00000749,-0.00014624,0.00005891,-0.000
 01168,-0.00041951,-0.00028814,0.00004409,0.00045587,-0.00062112,0.0004
 2012,-0.00196165,0.00192480,0.00098151,0.00023807,0.00052754,0.0000665
 7,0.00001779,-0.00022557,0.00019150,-0.00052616,-0.00001200,-0.0002316
 2,-0.00014410,0.00002293,0.00007981,0.00034761,0.00021429,-0.00027999,
 0.00015789,-0.00116540,-0.00003652,0.00063871,-0.00123983,-0.00051166,
 0.00013883,-0.00064238,-0.00023603,0.00014270,0.00015178,0.00011875,0.
 00021318,0.00012179,0.00037934,-0.00007288,0.00009017,-0.00007034,-0.0
 0000944,0.00002404,0.00000314,-0.00001656,-0.00011988,0.00001851,-0.00
 009379,0.00005822,-0.00023158,0.00036686,0.00033100,-0.00079675,-0.000
 36782,0.00037621,-0.00004504,-0.00060269,-0.00029745,0.00036601,0.0001
 9199,0.00030612,-0.00017461,-0.00003479,0.00003456,-0.00001005,0.00016
 955,-0.00026393,-0.00016881,-0.00002545,-0.00090860,0.00061627,0.00015
 377,0.00013615,0.00004138,-0.00005864,0.00005326,0.00004388,-0.0000939
 4,0.00010644,0.00005728,-0.00004521,0.00006975,-0.00001531,0.00016353,
 -0.00079191,0.00115054\\\@


 THE CHYMISTS ARE A STRANGE CLASS OF MORTALS IMPELLED
 BY AN ALMOST INSANE IMPULSE TO SEEK THEIR PLEASURE
 AMONG SMOKE AND VAPOR, SOOT AND FLAME, POISONS AND
 POVERTY; YET AMONG ALL THESE EVILS I SEEM TO LIVE
 SO SWEETLY, THAT I MAY DIE IF I WOULD CHANGE PLACES
 WITH THE PERSIAN KING.
   --  JOHANN JOACHIM BECHER, 1635-1682
 ACTA LABORATORII CHYMICA MONACENSIS, 1669
 Job cpu time:      26 days 23 hours 51 minutes 52.8 seconds.
 Elapsed time:       1 days 16 hours 32 minutes 13.3 seconds.
 File lengths (MBytes):  RWF=  21906 Int=      0 D2E=      0 Chk=     56 Scr=      1
 Normal termination of Gaussian 16 at Mon Jul 19 07:42:33 2021.
