 Entering Gaussian System, Link 0=g16
 Input=styrene-oxetane_fecl3-gs4-b3lyp_d3bj-juldz-gas.gjf
 Output=styrene-oxetane_fecl3-gs4-b3lyp_d3bj-juldz-gas.out
 Initial command:
 /SFS/product/gaussian/g16.a03/x86_64/avx/g16/l1.exe "/scratch/kwaneu.2864378.bmbhpcps002/Gau-3644.inp" -scrdir="/scratch/kwaneu.2864378.bmbhpcps002/"
 Entering Link 1 = /SFS/product/gaussian/g16.a03/x86_64/avx/g16/l1.exe PID=      3645.
  
 Copyright (c) 1988,1990,1992,1993,1995,1998,2003,2009,2016,
            Gaussian, Inc.  All Rights Reserved.
  
 This is part of the Gaussian(R) 16 program.  It is based on
 the Gaussian(R) 09 system (copyright 2009, Gaussian, Inc.),
 the Gaussian(R) 03 system (copyright 2003, Gaussian, Inc.),
 the Gaussian(R) 98 system (copyright 1998, Gaussian, Inc.),
 the Gaussian(R) 94 system (copyright 1995, Gaussian, Inc.),
 the Gaussian 92(TM) system (copyright 1992, Gaussian, Inc.),
 the Gaussian 90(TM) system (copyright 1990, Gaussian, Inc.),
 the Gaussian 88(TM) system (copyright 1988, Gaussian, Inc.),
 the Gaussian 86(TM) system (copyright 1986, Carnegie Mellon
 University), and the Gaussian 82(TM) system (copyright 1983,
 Carnegie Mellon University). Gaussian is a federally registered
 trademark of Gaussian, Inc.
  
 This software contains proprietary and confidential information,
 including trade secrets, belonging to Gaussian, Inc.
  
 This software is provided under written license and may be
 used, copied, transmitted, or stored only in accord with that
 written license.
  
 The following legend is applicable only to US Government
 contracts under FAR:
  
                    RESTRICTED RIGHTS LEGEND
  
 Use, reproduction and disclosure by the US Government is
 subject to restrictions as set forth in subparagraphs (a)
 and (c) of the Commercial Computer Software - Restricted
 Rights clause in FAR 52.227-19.
  
 Gaussian, Inc.
 340 Quinnipiac St., Bldg. 40, Wallingford CT 06492
  
  
 ---------------------------------------------------------------
 Warning -- This program may not be used in any manner that
 competes with the business of Gaussian, Inc. or will provide
 assistance to any competitor of Gaussian, Inc.  The licensee
 of this program is prohibited from giving any competitor of
 Gaussian, Inc. access to this program.  By using this program,
 the user acknowledges that Gaussian, Inc. is engaged in the
 business of creating and licensing software in the field of
 computational chemistry and represents and warrants to the
 licensee that it is not a competitor of Gaussian, Inc. and that
 it will not use this program in any manner prohibited above.
 ---------------------------------------------------------------
  

 Cite this work as:
 Gaussian 16, Revision A.03,
 M. J. Frisch, G. W. Trucks, H. B. Schlegel, G. E. Scuseria, 
 M. A. Robb, J. R. Cheeseman, G. Scalmani, V. Barone, 
 G. A. Petersson, H. Nakatsuji, X. Li, M. Caricato, A. V. Marenich, 
 J. Bloino, B. G. Janesko, R. Gomperts, B. Mennucci, H. P. Hratchian, 
 J. V. Ortiz, A. F. Izmaylov, J. L. Sonnenberg, D. Williams-Young, 
 F. Ding, F. Lipparini, F. Egidi, J. Goings, B. Peng, A. Petrone, 
 T. Henderson, D. Ranasinghe, V. G. Zakrzewski, J. Gao, N. Rega, 
 G. Zheng, W. Liang, M. Hada, M. Ehara, K. Toyota, R. Fukuda, 
 J. Hasegawa, M. Ishida, T. Nakajima, Y. Honda, O. Kitao, H. Nakai, 
 T. Vreven, K. Throssell, J. A. Montgomery, Jr., J. E. Peralta, 
 F. Ogliaro, M. J. Bearpark, J. J. Heyd, E. N. Brothers, K. N. Kudin, 
 V. N. Staroverov, T. A. Keith, R. Kobayashi, J. Normand, 
 K. Raghavachari, A. P. Rendell, J. C. Burant, S. S. Iyengar, 
 J. Tomasi, M. Cossi, J. M. Millam, M. Klene, C. Adamo, R. Cammi, 
 J. W. Ochterski, R. L. Martin, K. Morokuma, O. Farkas, 
 J. B. Foresman, and D. J. Fox, Gaussian, Inc., Wallingford CT, 2016.
 
 ******************************************
 Gaussian 16:  ES64L-G16RevA.03 25-Dec-2016
                 6-Jun-2021 
 ******************************************
 %nprocshared=16
 Will use up to   16 processors via shared memory.
 %mem=16GB
 ----------------------------------------------------------------------
 #p opt freq=noraman b3lyp pop=none empiricaldispersion=gd3bj jul-cc-pv
 dz
 ----------------------------------------------------------------------
 1/18=20,19=15,26=3,38=1/1,3;
 2/9=110,12=2,17=6,18=5,40=1/2;
 3/5=16,7=50,11=2,25=1,30=1,71=1,74=-5,124=41/1,2,3;
 4//1;
 5/5=2,38=5/2;
 7//1,2,3,16;
 1/18=20,19=15,26=3/3(2);
 2/9=110/2;
 99//99;
 2/9=110/2;
 3/5=16,7=50,11=2,25=1,30=1,71=1,74=-5,124=41/1,2,3;
 4/5=5,16=3,69=1/1;
 5/5=2,38=5/2;
 7//1,2,3,16;
 1/18=20,19=15,26=3/3(-5);
 2/9=110/2;
 99/9=1/99;
 Leave Link    1 at Sun Jun  6 18:31:38 2021, MaxMem=  2147483648 cpu:               0.8 elap:               0.1
 (Enter /SFS/product/gaussian/g16.a03/x86_64/avx/g16/l101.exe)
 -----
 title
 -----
 Symbolic Z-matrix:
 Charge =  0 Multiplicity = 6
 C                     1.73021   3.23132  -0.15547 
 C                     0.68645   2.30133  -0.06224 
 C                    -0.45925   2.49418  -0.84981 
 C                    -0.54641   3.57478  -1.72619 
 C                     0.50049   4.49619  -1.81522 
 C                     1.63629   4.32321  -1.02166 
 C                     0.73661   1.14985   0.90343 
 C                     2.13637   0.76183   1.45408 
 C                     2.13696   1.38831   2.86506 
 C                     0.70169   1.19459   3.40774 
 C                    -0.18955   1.20983   2.15596 
 C                    -0.8326   -0.10918   1.68843 
 O                    -0.02907  -0.0251    0.40101 
 Fe                   -0.23429  -0.98899  -1.35003 
 Cl                    1.44719  -0.2648   -2.53905 
 Cl                   -2.1902   -0.46424  -2.19187 
 Cl                   -0.15128  -3.10216  -0.74668 
 H                    -1.27856   1.78115  -0.81131 
 H                    -1.43382   3.6875   -2.3494 
 H                     0.43442   5.33961  -2.50334 
 H                     2.46184   5.03296  -1.08317 
 H                     2.63122   3.11887   0.44459 
 H                     2.9269    1.14902   0.80713 
 C                     2.32108  -0.74847   1.52328 
 H                     2.89797   0.93823   3.51273 
 H                     2.3643    2.45959   2.7746 
 H                     0.62214   0.23359   3.92705 
 H                     0.42515   1.98566   4.11482 
 H                    -0.8773    2.05708   2.12449 
 O                     2.99159  -1.19943   0.46075 
 O                     1.92572  -1.44968   2.43485 
 C                     3.22769  -2.63838   0.40336 
 C                     3.78445  -2.94961  -0.96775 
 H                     3.92632  -2.89167   1.21265 
 H                     2.27563  -3.14586   0.58947 
 H                     3.9866   -4.02782  -1.0376 
 H                     3.06272  -2.67696  -1.74743 
 H                     4.72203  -2.40585  -1.14759 
 C                    -2.2927   -0.23793   1.4162 
 C                    -2.84397  -1.52597   1.35541 
 C                    -3.11148   0.8691    1.15199 
 C                    -4.1863   -1.70813   1.02346 
 H                    -2.20567  -2.39016   1.54231 
 C                    -4.45521   0.68879   0.82522 
 H                    -2.70456   1.87846   1.18938 
 C                    -4.99379  -0.59976   0.75659 
 H                    -4.59894  -2.71542   0.96546 
 H                    -5.083     1.55536   0.61609 
 H                    -6.04268  -0.73876   0.49205 
 H                    -0.44656  -0.98205   2.22268 
 
 ITRead=  0  0  0  0  0  0  0  0  0  0  0  0  0  0  0  0  0  0  0  0
 ITRead=  0  0  0  0  0  0  0  0  0  0  0  0  0  0  0  0  0  0  0  0
 ITRead=  0  0  0  0  0  0  0  0  0  0
 MicOpt= -1 -1 -1 -1 -1 -1 -1 -1 -1 -1 -1 -1 -1 -1 -1 -1 -1 -1 -1 -1
 MicOpt= -1 -1 -1 -1 -1 -1 -1 -1 -1 -1 -1 -1 -1 -1 -1 -1 -1 -1 -1 -1
 MicOpt= -1 -1 -1 -1 -1 -1 -1 -1 -1 -1
 NAtoms=     50 NQM=       50 NQMF=       0 NMMI=      0 NMMIF=      0
                NMic=       0 NMicF=      0.
                    Isotopes and Nuclear Properties:
 (Nuclear quadrupole moments (NQMom) in fm**2, nuclear magnetic moments (NMagM)
  in nuclear magnetons)

  Atom         1           2           3           4           5           6           7           8           9          10
 IAtWgt=          12          12          12          12          12          12          12          12          12          12
 AtmWgt=  12.0000000  12.0000000  12.0000000  12.0000000  12.0000000  12.0000000  12.0000000  12.0000000  12.0000000  12.0000000
 NucSpn=           0           0           0           0           0           0           0           0           0           0
 AtZEff=  -0.0000000  -0.0000000  -0.0000000  -0.0000000  -0.0000000  -0.0000000  -0.0000000  -0.0000000  -0.0000000  -0.0000000
 NQMom=    0.0000000   0.0000000   0.0000000   0.0000000   0.0000000   0.0000000   0.0000000   0.0000000   0.0000000   0.0000000
 NMagM=    0.0000000   0.0000000   0.0000000   0.0000000   0.0000000   0.0000000   0.0000000   0.0000000   0.0000000   0.0000000
 AtZNuc=   6.0000000   6.0000000   6.0000000   6.0000000   6.0000000   6.0000000   6.0000000   6.0000000   6.0000000   6.0000000

  Atom        11          12          13          14          15          16          17          18          19          20
 IAtWgt=          12          12          16          56          35          35          35           1           1           1
 AtmWgt=  12.0000000  12.0000000  15.9949146  55.9349393  34.9688527  34.9688527  34.9688527   1.0078250   1.0078250   1.0078250
 NucSpn=           0           0           0           0           3           3           3           1           1           1
 AtZEff=  -0.0000000  -0.0000000  -0.0000000  -0.0000000  -0.0000000  -0.0000000  -0.0000000  -0.0000000  -0.0000000  -0.0000000
 NQMom=    0.0000000   0.0000000   0.0000000   0.0000000  -8.1650000  -8.1650000  -8.1650000   0.0000000   0.0000000   0.0000000
 NMagM=    0.0000000   0.0000000   0.0000000   0.0000000   0.8218740   0.8218740   0.8218740   2.7928460   2.7928460   2.7928460
 AtZNuc=   6.0000000   6.0000000   8.0000000  26.0000000  17.0000000  17.0000000  17.0000000   1.0000000   1.0000000   1.0000000

  Atom        21          22          23          24          25          26          27          28          29          30
 IAtWgt=           1           1           1          12           1           1           1           1           1          16
 AtmWgt=   1.0078250   1.0078250   1.0078250  12.0000000   1.0078250   1.0078250   1.0078250   1.0078250   1.0078250  15.9949146
 NucSpn=           1           1           1           0           1           1           1           1           1           0
 AtZEff=  -0.0000000  -0.0000000  -0.0000000  -0.0000000  -0.0000000  -0.0000000  -0.0000000  -0.0000000  -0.0000000  -0.0000000
 NQMom=    0.0000000   0.0000000   0.0000000   0.0000000   0.0000000   0.0000000   0.0000000   0.0000000   0.0000000   0.0000000
 NMagM=    2.7928460   2.7928460   2.7928460   0.0000000   2.7928460   2.7928460   2.7928460   2.7928460   2.7928460   0.0000000
 AtZNuc=   1.0000000   1.0000000   1.0000000   6.0000000   1.0000000   1.0000000   1.0000000   1.0000000   1.0000000   8.0000000

  Atom        31          32          33          34          35          36          37          38          39          40
 IAtWgt=          16          12          12           1           1           1           1           1          12          12
 AtmWgt=  15.9949146  12.0000000  12.0000000   1.0078250   1.0078250   1.0078250   1.0078250   1.0078250  12.0000000  12.0000000
 NucSpn=           0           0           0           1           1           1           1           1           0           0
 AtZEff=  -0.0000000  -0.0000000  -0.0000000  -0.0000000  -0.0000000  -0.0000000  -0.0000000  -0.0000000  -0.0000000  -0.0000000
 NQMom=    0.0000000   0.0000000   0.0000000   0.0000000   0.0000000   0.0000000   0.0000000   0.0000000   0.0000000   0.0000000
 NMagM=    0.0000000   0.0000000   0.0000000   2.7928460   2.7928460   2.7928460   2.7928460   2.7928460   0.0000000   0.0000000
 AtZNuc=   8.0000000   6.0000000   6.0000000   1.0000000   1.0000000   1.0000000   1.0000000   1.0000000   6.0000000   6.0000000

  Atom        41          42          43          44          45          46          47          48          49          50
 IAtWgt=          12          12           1          12           1          12           1           1           1           1
 AtmWgt=  12.0000000  12.0000000   1.0078250  12.0000000   1.0078250  12.0000000   1.0078250   1.0078250   1.0078250   1.0078250
 NucSpn=           0           0           1           0           1           0           1           1           1           1
 AtZEff=  -0.0000000  -0.0000000  -0.0000000  -0.0000000  -0.0000000  -0.0000000  -0.0000000  -0.0000000  -0.0000000  -0.0000000
 NQMom=    0.0000000   0.0000000   0.0000000   0.0000000   0.0000000   0.0000000   0.0000000   0.0000000   0.0000000   0.0000000
 NMagM=    0.0000000   0.0000000   2.7928460   0.0000000   2.7928460   0.0000000   2.7928460   2.7928460   2.7928460   2.7928460
 AtZNuc=   6.0000000   6.0000000   1.0000000   6.0000000   1.0000000   6.0000000   1.0000000   1.0000000   1.0000000   1.0000000
 Leave Link  101 at Sun Jun  6 18:31:39 2021, MaxMem=  2147483648 cpu:               7.0 elap:               0.5
 (Enter /SFS/product/gaussian/g16.a03/x86_64/avx/g16/l103.exe)

 GradGradGradGradGradGradGradGradGradGradGradGradGradGradGradGradGradGrad
 Berny optimization.
 Initialization pass.
                           ----------------------------
                           !    Initial Parameters    !
                           ! (Angstroms and Degrees)  !
 --------------------------                            --------------------------
 ! Name  Definition              Value          Derivative Info.                !
 --------------------------------------------------------------------------------
 ! R1    R(1,2)                  1.4011         estimate D2E/DX2                !
 ! R2    R(1,6)                  1.3969         estimate D2E/DX2                !
 ! R3    R(1,22)                 1.0884         estimate D2E/DX2                !
 ! R4    R(2,3)                  1.4036         estimate D2E/DX2                !
 ! R5    R(2,7)                  1.5036         estimate D2E/DX2                !
 ! R6    R(3,4)                  1.394          estimate D2E/DX2                !
 ! R7    R(3,18)                 1.0868         estimate D2E/DX2                !
 ! R8    R(4,5)                  1.3975         estimate D2E/DX2                !
 ! R9    R(4,19)                 1.0902         estimate D2E/DX2                !
 ! R10   R(5,6)                  1.3963         estimate D2E/DX2                !
 ! R11   R(5,20)                 1.0905         estimate D2E/DX2                !
 ! R12   R(6,21)                 1.0904         estimate D2E/DX2                !
 ! R13   R(7,8)                  1.5534         estimate D2E/DX2                !
 ! R14   R(7,11)                 1.5589         estimate D2E/DX2                !
 ! R15   R(7,13)                 1.4897         estimate D2E/DX2                !
 ! R16   R(8,9)                  1.5438         estimate D2E/DX2                !
 ! R17   R(8,23)                 1.0924         estimate D2E/DX2                !
 ! R18   R(8,24)                 1.5231         estimate D2E/DX2                !
 ! R19   R(9,10)                 1.5466         estimate D2E/DX2                !
 ! R20   R(9,25)                 1.096          estimate D2E/DX2                !
 ! R21   R(9,26)                 1.0989         estimate D2E/DX2                !
 ! R22   R(10,11)                1.5367         estimate D2E/DX2                !
 ! R23   R(10,27)                1.0952         estimate D2E/DX2                !
 ! R24   R(10,28)                1.0965         estimate D2E/DX2                !
 ! R25   R(11,12)                1.5401         estimate D2E/DX2                !
 ! R26   R(11,29)                1.0917         estimate D2E/DX2                !
 ! R27   R(12,13)                1.5199         estimate D2E/DX2                !
 ! R28   R(12,39)                1.4908         estimate D2E/DX2                !
 ! R29   R(12,50)                1.0938         estimate D2E/DX2                !
 ! R30   R(13,14)                2.0093         estimate D2E/DX2                !
 ! R31   R(14,15)                2.183          estimate D2E/DX2                !
 ! R32   R(14,16)                2.1931         estimate D2E/DX2                !
 ! R33   R(14,17)                2.1992         estimate D2E/DX2                !
 ! R34   R(24,30)                1.3349         estimate D2E/DX2                !
 ! R35   R(24,31)                1.2161         estimate D2E/DX2                !
 ! R36   R(30,32)                1.4593         estimate D2E/DX2                !
 ! R37   R(32,33)                1.5122         estimate D2E/DX2                !
 ! R38   R(32,34)                1.0987         estimate D2E/DX2                !
 ! R39   R(32,35)                1.0948         estimate D2E/DX2                !
 ! R40   R(33,36)                1.0992         estimate D2E/DX2                !
 ! R41   R(33,37)                1.0969         estimate D2E/DX2                !
 ! R42   R(33,38)                1.0987         estimate D2E/DX2                !
 ! R43   R(39,40)                1.4024         estimate D2E/DX2                !
 ! R44   R(39,41)                1.402          estimate D2E/DX2                !
 ! R45   R(40,42)                1.3947         estimate D2E/DX2                !
 ! R46   R(40,43)                1.0905         estimate D2E/DX2                !
 ! R47   R(41,44)                1.3946         estimate D2E/DX2                !
 ! R48   R(41,45)                1.0889         estimate D2E/DX2                !
 ! R49   R(42,46)                1.397          estimate D2E/DX2                !
 ! R50   R(42,47)                1.0901         estimate D2E/DX2                !
 ! R51   R(44,46)                1.3983         estimate D2E/DX2                !
 ! R52   R(44,48)                1.0903         estimate D2E/DX2                !
 ! R53   R(46,49)                1.0906         estimate D2E/DX2                !
 ! A1    A(2,1,6)              120.6646         estimate D2E/DX2                !
 ! A2    A(2,1,22)             120.761          estimate D2E/DX2                !
 ! A3    A(6,1,22)             118.5743         estimate D2E/DX2                !
 ! A4    A(1,2,3)              118.6561         estimate D2E/DX2                !
 ! A5    A(1,2,7)              121.7487         estimate D2E/DX2                !
 ! A6    A(3,2,7)              119.525          estimate D2E/DX2                !
 ! A7    A(2,3,4)              120.683          estimate D2E/DX2                !
 ! A8    A(2,3,18)             120.3532         estimate D2E/DX2                !
 ! A9    A(4,3,18)             118.9273         estimate D2E/DX2                !
 ! A10   A(3,4,5)              120.2855         estimate D2E/DX2                !
 ! A11   A(3,4,19)             119.3671         estimate D2E/DX2                !
 ! A12   A(5,4,19)             120.3436         estimate D2E/DX2                !
 ! A13   A(4,5,6)              119.4381         estimate D2E/DX2                !
 ! A14   A(4,5,20)             120.3154         estimate D2E/DX2                !
 ! A15   A(6,5,20)             120.2453         estimate D2E/DX2                !
 ! A16   A(1,6,5)              120.2601         estimate D2E/DX2                !
 ! A17   A(1,6,21)             119.5276         estimate D2E/DX2                !
 ! A18   A(5,6,21)             120.2078         estimate D2E/DX2                !
 ! A19   A(2,7,8)              116.6794         estimate D2E/DX2                !
 ! A20   A(2,7,11)             117.8212         estimate D2E/DX2                !
 ! A21   A(2,7,13)             111.7311         estimate D2E/DX2                !
 ! A22   A(8,7,11)             105.0782         estimate D2E/DX2                !
 ! A23   A(8,7,13)             112.6866         estimate D2E/DX2                !
 ! A24   A(11,7,13)             89.7688         estimate D2E/DX2                !
 ! A25   A(7,8,9)              102.8832         estimate D2E/DX2                !
 ! A26   A(7,8,23)             110.7081         estimate D2E/DX2                !
 ! A27   A(7,8,24)             111.9045         estimate D2E/DX2                !
 ! A28   A(9,8,23)             113.4008         estimate D2E/DX2                !
 ! A29   A(9,8,24)             111.15           estimate D2E/DX2                !
 ! A30   A(23,8,24)            106.8933         estimate D2E/DX2                !
 ! A31   A(8,9,10)             105.6352         estimate D2E/DX2                !
 ! A32   A(8,9,25)             111.9456         estimate D2E/DX2                !
 ! A33   A(8,9,26)             108.6902         estimate D2E/DX2                !
 ! A34   A(10,9,25)            112.6801         estimate D2E/DX2                !
 ! A35   A(10,9,26)            110.0587         estimate D2E/DX2                !
 ! A36   A(25,9,26)            107.7787         estimate D2E/DX2                !
 ! A37   A(9,10,11)            104.5451         estimate D2E/DX2                !
 ! A38   A(9,10,27)            110.1005         estimate D2E/DX2                !
 ! A39   A(9,10,28)            111.713          estimate D2E/DX2                !
 ! A40   A(11,10,27)           110.6598         estimate D2E/DX2                !
 ! A41   A(11,10,28)           111.8318         estimate D2E/DX2                !
 ! A42   A(27,10,28)           107.997          estimate D2E/DX2                !
 ! A43   A(7,11,10)            108.0322         estimate D2E/DX2                !
 ! A44   A(7,11,12)             88.3498         estimate D2E/DX2                !
 ! A45   A(7,11,29)            112.3941         estimate D2E/DX2                !
 ! A46   A(10,11,12)           118.7473         estimate D2E/DX2                !
 ! A47   A(10,11,29)           113.3622         estimate D2E/DX2                !
 ! A48   A(12,11,29)           113.1335         estimate D2E/DX2                !
 ! A49   A(11,12,13)            89.3704         estimate D2E/DX2                !
 ! A50   A(11,12,39)           122.5703         estimate D2E/DX2                !
 ! A51   A(11,12,50)           112.8193         estimate D2E/DX2                !
 ! A52   A(13,12,39)           111.5844         estimate D2E/DX2                !
 ! A53   A(13,12,50)           105.7406         estimate D2E/DX2                !
 ! A54   A(39,12,50)           111.4656         estimate D2E/DX2                !
 ! A55   A(7,13,12)             91.7012         estimate D2E/DX2                !
 ! A56   A(7,13,14)            136.4493         estimate D2E/DX2                !
 ! A57   A(12,13,14)           131.1184         estimate D2E/DX2                !
 ! A58   A(13,14,15)           103.7006         estimate D2E/DX2                !
 ! A59   A(13,14,16)           108.1088         estimate D2E/DX2                !
 ! A60   A(13,14,17)           102.5924         estimate D2E/DX2                !
 ! A61   A(15,14,16)           113.4841         estimate D2E/DX2                !
 ! A62   A(15,14,17)           116.0477         estimate D2E/DX2                !
 ! A63   A(16,14,17)           111.6474         estimate D2E/DX2                !
 ! A64   A(8,24,30)            111.084          estimate D2E/DX2                !
 ! A65   A(8,24,31)            124.4971         estimate D2E/DX2                !
 ! A66   A(30,24,31)           124.4121         estimate D2E/DX2                !
 ! A67   A(24,30,32)           116.4669         estimate D2E/DX2                !
 ! A68   A(30,32,33)           107.3469         estimate D2E/DX2                !
 ! A69   A(30,32,34)           107.5307         estimate D2E/DX2                !
 ! A70   A(30,32,35)           108.0404         estimate D2E/DX2                !
 ! A71   A(33,32,34)           112.7239         estimate D2E/DX2                !
 ! A72   A(33,32,35)           112.2656         estimate D2E/DX2                !
 ! A73   A(34,32,35)           108.7168         estimate D2E/DX2                !
 ! A74   A(32,33,36)           109.099          estimate D2E/DX2                !
 ! A75   A(32,33,37)           110.5535         estimate D2E/DX2                !
 ! A76   A(32,33,38)           111.1463         estimate D2E/DX2                !
 ! A77   A(36,33,37)           108.6421         estimate D2E/DX2                !
 ! A78   A(36,33,38)           108.5496         estimate D2E/DX2                !
 ! A79   A(37,33,38)           108.792          estimate D2E/DX2                !
 ! A80   A(12,39,40)           118.1794         estimate D2E/DX2                !
 ! A81   A(12,39,41)           122.5598         estimate D2E/DX2                !
 ! A82   A(40,39,41)           119.1744         estimate D2E/DX2                !
 ! A83   A(39,40,42)           120.5715         estimate D2E/DX2                !
 ! A84   A(39,40,43)           119.3628         estimate D2E/DX2                !
 ! A85   A(42,40,43)           120.0424         estimate D2E/DX2                !
 ! A86   A(39,41,44)           120.316          estimate D2E/DX2                !
 ! A87   A(39,41,45)           120.4759         estimate D2E/DX2                !
 ! A88   A(44,41,45)           119.2052         estimate D2E/DX2                !
 ! A89   A(40,42,46)           119.8769         estimate D2E/DX2                !
 ! A90   A(40,42,47)           119.8466         estimate D2E/DX2                !
 ! A91   A(46,42,47)           120.2746         estimate D2E/DX2                !
 ! A92   A(41,44,46)           120.1168         estimate D2E/DX2                !
 ! A93   A(41,44,48)           119.7997         estimate D2E/DX2                !
 ! A94   A(46,44,48)           120.0819         estimate D2E/DX2                !
 ! A95   A(42,46,44)           119.9412         estimate D2E/DX2                !
 ! A96   A(42,46,49)           120.0728         estimate D2E/DX2                !
 ! A97   A(44,46,49)           119.9858         estimate D2E/DX2                !
 ! D1    D(6,1,2,3)             -0.4412         estimate D2E/DX2                !
 ! D2    D(6,1,2,7)           -177.3786         estimate D2E/DX2                !
 ! D3    D(22,1,2,3)           179.5753         estimate D2E/DX2                !
 ! D4    D(22,1,2,7)             2.6378         estimate D2E/DX2                !
 ! D5    D(2,1,6,5)             -0.4653         estimate D2E/DX2                !
 ! D6    D(2,1,6,21)          -179.6928         estimate D2E/DX2                !
 ! D7    D(22,1,6,5)           179.5186         estimate D2E/DX2                !
 ! D8    D(22,1,6,21)            0.291          estimate D2E/DX2                !
 ! D9    D(1,2,3,4)              1.2238         estimate D2E/DX2                !
 ! D10   D(1,2,3,18)           179.0031         estimate D2E/DX2                !
 ! D11   D(7,2,3,4)            178.2309         estimate D2E/DX2                !
 ! D12   D(7,2,3,18)            -3.9897         estimate D2E/DX2                !
 ! D13   D(1,2,7,8)            -19.0642         estimate D2E/DX2                !
 ! D14   D(1,2,7,11)           107.4027         estimate D2E/DX2                !
 ! D15   D(1,2,7,13)          -150.743          estimate D2E/DX2                !
 ! D16   D(3,2,7,8)            164.0243         estimate D2E/DX2                !
 ! D17   D(3,2,7,11)           -69.5088         estimate D2E/DX2                !
 ! D18   D(3,2,7,13)            32.3455         estimate D2E/DX2                !
 ! D19   D(2,3,4,5)             -1.1046         estimate D2E/DX2                !
 ! D20   D(2,3,4,19)           178.1941         estimate D2E/DX2                !
 ! D21   D(18,3,4,5)          -178.9152         estimate D2E/DX2                !
 ! D22   D(18,3,4,19)            0.3834         estimate D2E/DX2                !
 ! D23   D(3,4,5,6)              0.1811         estimate D2E/DX2                !
 ! D24   D(3,4,5,20)           179.7704         estimate D2E/DX2                !
 ! D25   D(19,4,5,6)          -179.1107         estimate D2E/DX2                !
 ! D26   D(19,4,5,20)            0.4786         estimate D2E/DX2                !
 ! D27   D(4,5,6,1)              0.598          estimate D2E/DX2                !
 ! D28   D(4,5,6,21)           179.8203         estimate D2E/DX2                !
 ! D29   D(20,5,6,1)          -178.9916         estimate D2E/DX2                !
 ! D30   D(20,5,6,21)            0.2307         estimate D2E/DX2                !
 ! D31   D(2,7,8,9)            101.6645         estimate D2E/DX2                !
 ! D32   D(2,7,8,23)           -19.8034         estimate D2E/DX2                !
 ! D33   D(2,7,8,24)          -138.9361         estimate D2E/DX2                !
 ! D34   D(11,7,8,9)           -30.8928         estimate D2E/DX2                !
 ! D35   D(11,7,8,23)         -152.3606         estimate D2E/DX2                !
 ! D36   D(11,7,8,24)           88.5066         estimate D2E/DX2                !
 ! D37   D(13,7,8,9)          -127.0983         estimate D2E/DX2                !
 ! D38   D(13,7,8,23)          111.4339         estimate D2E/DX2                !
 ! D39   D(13,7,8,24)           -7.6989         estimate D2E/DX2                !
 ! D40   D(2,7,11,10)         -118.8367         estimate D2E/DX2                !
 ! D41   D(2,7,11,12)          121.3865         estimate D2E/DX2                !
 ! D42   D(2,7,11,29)            6.9789         estimate D2E/DX2                !
 ! D43   D(8,7,11,10)           13.0727         estimate D2E/DX2                !
 ! D44   D(8,7,11,12)         -106.704          estimate D2E/DX2                !
 ! D45   D(8,7,11,29)          138.8884         estimate D2E/DX2                !
 ! D46   D(13,7,11,10)         126.5484         estimate D2E/DX2                !
 ! D47   D(13,7,11,12)           6.7716         estimate D2E/DX2                !
 ! D48   D(13,7,11,29)        -107.636          estimate D2E/DX2                !
 ! D49   D(2,7,13,12)         -126.9161         estimate D2E/DX2                !
 ! D50   D(2,7,13,14)           43.5268         estimate D2E/DX2                !
 ! D51   D(8,7,13,12)           99.4141         estimate D2E/DX2                !
 ! D52   D(8,7,13,14)          -90.143          estimate D2E/DX2                !
 ! D53   D(11,7,13,12)          -6.862          estimate D2E/DX2                !
 ! D54   D(11,7,13,14)         163.5808         estimate D2E/DX2                !
 ! D55   D(7,8,9,10)            37.9119         estimate D2E/DX2                !
 ! D56   D(7,8,9,25)           160.8988         estimate D2E/DX2                !
 ! D57   D(7,8,9,26)           -80.1656         estimate D2E/DX2                !
 ! D58   D(23,8,9,10)          157.5308         estimate D2E/DX2                !
 ! D59   D(23,8,9,25)          -79.4823         estimate D2E/DX2                !
 ! D60   D(23,8,9,26)           39.4533         estimate D2E/DX2                !
 ! D61   D(24,8,9,10)          -82.0101         estimate D2E/DX2                !
 ! D62   D(24,8,9,25)           40.9768         estimate D2E/DX2                !
 ! D63   D(24,8,9,26)          159.9124         estimate D2E/DX2                !
 ! D64   D(7,8,24,30)           98.0103         estimate D2E/DX2                !
 ! D65   D(7,8,24,31)          -82.901          estimate D2E/DX2                !
 ! D66   D(9,8,24,30)         -147.582          estimate D2E/DX2                !
 ! D67   D(9,8,24,31)           31.5067         estimate D2E/DX2                !
 ! D68   D(23,8,24,30)         -23.3503         estimate D2E/DX2                !
 ! D69   D(23,8,24,31)         155.7384         estimate D2E/DX2                !
 ! D70   D(8,9,10,11)          -29.8607         estimate D2E/DX2                !
 ! D71   D(8,9,10,27)           89.0269         estimate D2E/DX2                !
 ! D72   D(8,9,10,28)         -150.9823         estimate D2E/DX2                !
 ! D73   D(25,9,10,11)        -152.3789         estimate D2E/DX2                !
 ! D74   D(25,9,10,27)         -33.4913         estimate D2E/DX2                !
 ! D75   D(25,9,10,28)          86.4994         estimate D2E/DX2                !
 ! D76   D(26,9,10,11)          87.297          estimate D2E/DX2                !
 ! D77   D(26,9,10,27)        -153.8155         estimate D2E/DX2                !
 ! D78   D(26,9,10,28)         -33.8247         estimate D2E/DX2                !
 ! D79   D(9,10,11,7)           10.0883         estimate D2E/DX2                !
 ! D80   D(9,10,11,12)         108.3698         estimate D2E/DX2                !
 ! D81   D(9,10,11,29)        -115.1553         estimate D2E/DX2                !
 ! D82   D(27,10,11,7)        -108.4197         estimate D2E/DX2                !
 ! D83   D(27,10,11,12)        -10.1383         estimate D2E/DX2                !
 ! D84   D(27,10,11,29)        126.3367         estimate D2E/DX2                !
 ! D85   D(28,10,11,7)         131.1312         estimate D2E/DX2                !
 ! D86   D(28,10,11,12)       -130.5873         estimate D2E/DX2                !
 ! D87   D(28,10,11,29)          5.8877         estimate D2E/DX2                !
 ! D88   D(7,11,12,13)          -6.6366         estimate D2E/DX2                !
 ! D89   D(7,11,12,39)        -122.0743         estimate D2E/DX2                !
 ! D90   D(7,11,12,50)         100.2042         estimate D2E/DX2                !
 ! D91   D(10,11,12,13)       -116.3558         estimate D2E/DX2                !
 ! D92   D(10,11,12,39)        128.2065         estimate D2E/DX2                !
 ! D93   D(10,11,12,50)         -9.515          estimate D2E/DX2                !
 ! D94   D(29,11,12,13)        107.0761         estimate D2E/DX2                !
 ! D95   D(29,11,12,39)         -8.3616         estimate D2E/DX2                !
 ! D96   D(29,11,12,50)       -146.0832         estimate D2E/DX2                !
 ! D97   D(11,12,13,7)           6.9467         estimate D2E/DX2                !
 ! D98   D(11,12,13,14)       -164.3193         estimate D2E/DX2                !
 ! D99   D(39,12,13,7)         132.0195         estimate D2E/DX2                !
 ! D100  D(39,12,13,14)        -39.2465         estimate D2E/DX2                !
 ! D101  D(50,12,13,7)        -106.623          estimate D2E/DX2                !
 ! D102  D(50,12,13,14)         82.111          estimate D2E/DX2                !
 ! D103  D(11,12,39,40)       -162.8202         estimate D2E/DX2                !
 ! D104  D(11,12,39,41)         20.5908         estimate D2E/DX2                !
 ! D105  D(13,12,39,40)         93.3703         estimate D2E/DX2                !
 ! D106  D(13,12,39,41)        -83.2187         estimate D2E/DX2                !
 ! D107  D(50,12,39,40)        -24.6021         estimate D2E/DX2                !
 ! D108  D(50,12,39,41)        158.8089         estimate D2E/DX2                !
 ! D109  D(7,13,14,15)          15.3514         estimate D2E/DX2                !
 ! D110  D(7,13,14,16)        -105.3966         estimate D2E/DX2                !
 ! D111  D(7,13,14,17)         136.5213         estimate D2E/DX2                !
 ! D112  D(12,13,14,15)       -177.3748         estimate D2E/DX2                !
 ! D113  D(12,13,14,16)         61.8772         estimate D2E/DX2                !
 ! D114  D(12,13,14,17)        -56.2049         estimate D2E/DX2                !
 ! D115  D(8,24,30,32)        -179.6239         estimate D2E/DX2                !
 ! D116  D(31,24,30,32)          1.2865         estimate D2E/DX2                !
 ! D117  D(24,30,32,33)        170.7143         estimate D2E/DX2                !
 ! D118  D(24,30,32,34)        -67.7465         estimate D2E/DX2                !
 ! D119  D(24,30,32,35)         49.4346         estimate D2E/DX2                !
 ! D120  D(30,32,33,36)        179.2193         estimate D2E/DX2                !
 ! D121  D(30,32,33,37)        -61.3676         estimate D2E/DX2                !
 ! D122  D(30,32,33,38)         59.5564         estimate D2E/DX2                !
 ! D123  D(34,32,33,36)         60.9936         estimate D2E/DX2                !
 ! D124  D(34,32,33,37)       -179.5933         estimate D2E/DX2                !
 ! D125  D(34,32,33,38)        -58.6693         estimate D2E/DX2                !
 ! D126  D(35,32,33,36)        -62.1949         estimate D2E/DX2                !
 ! D127  D(35,32,33,37)         57.2183         estimate D2E/DX2                !
 ! D128  D(35,32,33,38)        178.1423         estimate D2E/DX2                !
 ! D129  D(12,39,40,42)       -176.0692         estimate D2E/DX2                !
 ! D130  D(12,39,40,43)          2.1738         estimate D2E/DX2                !
 ! D131  D(41,39,40,42)          0.6384         estimate D2E/DX2                !
 ! D132  D(41,39,40,43)        178.8813         estimate D2E/DX2                !
 ! D133  D(12,39,41,44)        176.1789         estimate D2E/DX2                !
 ! D134  D(12,39,41,45)         -3.2            estimate D2E/DX2                !
 ! D135  D(40,39,41,44)         -0.3775         estimate D2E/DX2                !
 ! D136  D(40,39,41,45)       -179.7564         estimate D2E/DX2                !
 ! D137  D(39,40,42,46)         -0.3949         estimate D2E/DX2                !
 ! D138  D(39,40,42,47)        179.1102         estimate D2E/DX2                !
 ! D139  D(43,40,42,46)       -178.6259         estimate D2E/DX2                !
 ! D140  D(43,40,42,47)          0.8791         estimate D2E/DX2                !
 ! D141  D(39,41,44,46)         -0.1244         estimate D2E/DX2                !
 ! D142  D(39,41,44,48)       -179.6714         estimate D2E/DX2                !
 ! D143  D(45,41,44,46)        179.2624         estimate D2E/DX2                !
 ! D144  D(45,41,44,48)         -0.2846         estimate D2E/DX2                !
 ! D145  D(40,42,46,44)         -0.1142         estimate D2E/DX2                !
 ! D146  D(40,42,46,49)        179.7076         estimate D2E/DX2                !
 ! D147  D(47,42,46,44)       -179.6171         estimate D2E/DX2                !
 ! D148  D(47,42,46,49)          0.2048         estimate D2E/DX2                !
 ! D149  D(41,44,46,42)          0.373          estimate D2E/DX2                !
 ! D150  D(41,44,46,49)       -179.449          estimate D2E/DX2                !
 ! D151  D(48,44,46,42)        179.9187         estimate D2E/DX2                !
 ! D152  D(48,44,46,49)          0.0967         estimate D2E/DX2                !
 --------------------------------------------------------------------------------
 Trust Radius=3.00D-01 FncErr=1.00D-07 GrdErr=1.00D-06 EigMax=2.50D+02 EigMin=1.00D-04
 Number of steps in this run=    300 maximum allowed number of steps=    300.
 GradGradGradGradGradGradGradGradGradGradGradGradGradGradGradGradGradGrad

 Leave Link  103 at Sun Jun  6 18:31:39 2021, MaxMem=  2147483648 cpu:               0.3 elap:               0.1
 (Enter /SFS/product/gaussian/g16.a03/x86_64/avx/g16/l202.exe)
                          Input orientation:                          
 ---------------------------------------------------------------------
 Center     Atomic      Atomic             Coordinates (Angstroms)
 Number     Number       Type             X           Y           Z
 ---------------------------------------------------------------------
      1          6           0        1.730213    3.231324   -0.155469
      2          6           0        0.686448    2.301327   -0.062237
      3          6           0       -0.459249    2.494175   -0.849810
      4          6           0       -0.546408    3.574777   -1.726189
      5          6           0        0.500489    4.496186   -1.815221
      6          6           0        1.636294    4.323211   -1.021658
      7          6           0        0.736612    1.149847    0.903426
      8          6           0        2.136369    0.761832    1.454081
      9          6           0        2.136958    1.388305    2.865061
     10          6           0        0.701685    1.194589    3.407741
     11          6           0       -0.189547    1.209830    2.155961
     12          6           0       -0.832604   -0.109182    1.688434
     13          8           0       -0.029070   -0.025097    0.401008
     14         26           0       -0.234287   -0.988993   -1.350025
     15         17           0        1.447191   -0.264798   -2.539050
     16         17           0       -2.190196   -0.464238   -2.191866
     17         17           0       -0.151277   -3.102156   -0.746683
     18          1           0       -1.278556    1.781153   -0.811306
     19          1           0       -1.433820    3.687501   -2.349399
     20          1           0        0.434419    5.339613   -2.503337
     21          1           0        2.461844    5.032962   -1.083171
     22          1           0        2.631222    3.118873    0.444594
     23          1           0        2.926899    1.149018    0.807130
     24          6           0        2.321082   -0.748466    1.523280
     25          1           0        2.897970    0.938231    3.512731
     26          1           0        2.364299    2.459592    2.774600
     27          1           0        0.622144    0.233587    3.927045
     28          1           0        0.425153    1.985655    4.114823
     29          1           0       -0.877302    2.057080    2.124491
     30          8           0        2.991589   -1.199429    0.460752
     31          8           0        1.925720   -1.449675    2.434854
     32          6           0        3.227689   -2.638382    0.403363
     33          6           0        3.784451   -2.949606   -0.967748
     34          1           0        3.926318   -2.891666    1.212647
     35          1           0        2.275625   -3.145863    0.589466
     36          1           0        3.986604   -4.027816   -1.037601
     37          1           0        3.062722   -2.676957   -1.747428
     38          1           0        4.722029   -2.405845   -1.147590
     39          6           0       -2.292697   -0.237931    1.416201
     40          6           0       -2.843972   -1.525973    1.355405
     41          6           0       -3.111483    0.869095    1.151993
     42          6           0       -4.186298   -1.708129    1.023461
     43          1           0       -2.205668   -2.390162    1.542310
     44          6           0       -4.455213    0.688794    0.825215
     45          1           0       -2.704559    1.878457    1.189382
     46          6           0       -4.993787   -0.599764    0.756588
     47          1           0       -4.598944   -2.715418    0.965456
     48          1           0       -5.082995    1.555359    0.616088
     49          1           0       -6.042681   -0.738764    0.492046
     50          1           0       -0.446562   -0.982049    2.222680
 ---------------------------------------------------------------------
                    Distance matrix (angstroms):
                    1          2          3          4          5
     1  C    0.000000
     2  C    1.401082   0.000000
     3  C    2.412310   1.403597   0.000000
     4  C    2.787136   2.431120   1.394036   0.000000
     5  C    2.422163   2.815127   2.420984   1.397467   0.000000
     6  C    1.396897   2.431195   2.786791   2.412614   1.396322
     7  C    2.537922   1.503638   2.512198   3.800171   4.317960
     8  C    2.975568   2.602218   3.878938   5.022357   5.225882
     9  C    3.561708   3.392147   4.665137   5.749843   5.851666
    10  C    4.231149   3.642231   4.600373   5.794848   6.182261
    11  C    3.621412   2.622811   3.279778   4.559760   5.200632
    12  C    4.596411   3.344088   3.655071   5.031214   5.938194
    13  O    3.742863   2.477662   2.845405   4.213276   5.063013
    14  Fe   4.805965   3.651350   3.526086   4.589871   5.553692
    15  Cl   4.240805   3.646688   3.754994   4.401990   4.907865
    16  Cl   5.759661   4.523135   3.680964   4.385492   5.655745
    17  Cl   6.633439   5.510706   5.605747   6.759955   7.700739
    18  H    3.403793   2.166316   1.086806   2.142461   3.397683
    19  H    3.877181   3.412935   2.150019   1.090228   2.163532
    20  H    3.411224   3.905595   3.410178   2.163476   1.090522
    21  H    2.154487   3.414113   3.877200   3.404314   2.161236
    22  H    1.088365   2.169656   3.408334   3.875239   3.397614
    23  H    2.587403   2.665190   4.002611   4.936180   4.895684
    24  C    4.359593   3.806196   4.886360   6.121436   6.478157
    25  H    4.480806   4.419192   5.720458   6.801573   6.840616
    26  H    3.095632   3.299678   4.594558   5.474756   5.356114
    27  H    5.184705   4.493780   5.394257   6.669941   7.152494
    28  H    4.635760   4.197113   5.068367   6.130796   6.440020
    29  H    3.657349   2.699398   3.035175   4.152184   4.834137
    30  O    4.647835   4.224037   5.221931   6.331917   6.620095
    31  O    5.353480   4.673465   5.659598   6.976447   7.446320
    32  C    6.083435   5.574533   6.442600   7.575100   7.953728
    33  C    6.563809   6.163592   6.903452   7.867601   8.181836
    34  H    6.647227   6.252141   7.245289   8.393862   8.688190
    35  H    6.443673   5.711574   6.431258   7.648080   8.205763
    36  H    7.652749   7.204194   7.895394   8.878163   9.242094
    37  H    6.262404   5.768003   6.320649   7.218757   7.617323
    38  H    6.458556   6.294551   7.137542   7.991185   8.118199
    39  C    5.539827   4.184366   3.995090   5.240313   6.376193
    40  C    6.770361   5.396462   5.168314   6.386914   7.583185
    41  C    5.543609   4.236735   3.698979   4.710017   5.916628
    42  C    7.796998   6.402978   5.921098   6.979862   8.277537
    43  H    7.069280   5.740120   5.712177   7.001195   8.125152
    44  C    6.759119   5.461182   4.693915   5.487925   6.784329
    45  H    4.827637   3.639272   3.094968   4.004456   5.113949
    46  C    7.792385   6.430542   5.719703   6.585602   7.922751
    47  H    8.756623   7.359297   6.897255   7.952016   9.259785
    48  H    7.058609   5.856882   4.940573   5.490440   6.762767
    49  H    8.752071   7.404766   6.589931   7.330499   8.691447
    50  H    5.305323   4.157537   4.639449   6.030605   6.871143
                    6          7          8          9         10
     6  C    0.000000
     7  C    3.819112   0.000000
     8  C    4.366094   1.553414   0.000000
     9  C    4.896011   2.421950   1.543805   0.000000
    10  C    5.502849   2.504958   2.462191   1.546621   0.000000
    11  C    4.808752   1.558914   2.470470   2.438709   1.536711
    12  C    5.752057   2.159590   3.102964   3.527778   2.647617
    13  O    4.868798   1.489693   2.533248   3.572246   3.325971
    14  Fe   5.641490   3.255046   4.067974   5.388998   5.317933
    15  Cl   4.836121   3.789035   4.180195   5.693237   6.168461
    16  Cl   6.239478   4.555470   5.789244   6.908595   6.516923
    17  Cl   7.642454   4.646583   5.000709   6.200400   6.037284
    18  H    3.873326   2.720249   4.222879   5.033462   4.697422
    19  H    3.404794   4.661688   5.980991   6.725128   6.627190
    20  H    2.161701   5.408465   6.286006   6.879765   7.224507
    21  H    1.090442   4.690584   4.978567   5.383086   6.164378
    22  H    2.142477   2.770765   2.611434   3.016260   4.025695
    23  H    3.884022   2.192403   1.092427   2.217283   3.422986
    24  C    5.715553   2.549187   1.523124   2.529836   3.154220
    25  H    5.797465   3.394808   2.202088   1.095985   2.213687
    26  H    4.291228   2.804655   2.162894   1.098873   2.182976
    27  H    6.499476   3.161472   2.947452   2.180790   1.095230
    28  H    5.771869   3.332965   3.391983   2.202046   1.096458
    29  H    4.620797   2.217834   3.348034   3.175133   2.209937
    30  O    5.876557   3.286332   2.358951   3.634207   4.433929
    31  O    6.734794   3.242956   2.428385   2.878164   3.071954
    32  C    7.281964   4.561382   3.722424   4.843951   5.486224
    33  C    7.583624   5.440232   4.728235   6.018482   6.769247
    34  H    7.892451   5.157874   4.075568   4.924473   5.649263
    35  H    7.667564   4.573867   4.004626   5.075061   5.409204
    36  H    8.675475   6.413909   5.707239   6.927216   7.604293
    37  H    7.180793   5.204060   4.788847   6.217592   6.865794
    38  H    7.403905   5.721290   4.846494   6.097502   7.062389
    39  C    6.494932   3.371287   4.540659   4.936161   3.871004
    40  C    7.741845   4.492759   5.481568   5.965043   4.917848
    41  C    6.260756   3.866322   5.257634   5.545297   4.442364
    42  C    8.629145   5.693635   6.801636   7.277566   6.164653
    43  H    8.148864   4.647241   5.366203   5.906343   4.978250
    44  C    7.329828   5.212843   6.621915   6.935921   5.789548
    45  H    5.450553   3.529065   4.975088   5.146692   4.122049
    46  C    8.447237   5.993344   7.292432   7.697116   6.533507
    47  H    9.610885   6.588800   7.595687   8.113040   7.024926
    48  H    7.449299   5.840790   7.311028   7.563961   6.433195
    49  H    9.321027   7.049461   8.371031   8.778503   7.597737
    50  H    6.558186   2.772240   3.209891   3.564521   2.731409
                   11         12         13         14         15
    11  C    0.000000
    12  C    1.540096   0.000000
    13  O    2.151896   1.519935   0.000000
    14  Fe   4.138691   3.219361   2.009310   0.000000
    15  Cl   5.186190   4.805549   3.298597   2.183027   0.000000
    16  Cl   5.070375   4.126239   3.403866   2.193090   3.659357
    17  Cl   5.198079   3.918149   3.286399   2.199175   3.717295
    18  H    3.212012   3.165587   2.508677   3.009057   3.821088
    19  H    5.290117   5.574976   4.829228   4.930236   4.894574
    20  H    6.257276   6.990398   6.118019   6.467500   5.695297
    21  H    5.669055   6.706476   5.830214   6.603353   5.587071
    22  H    3.811818   4.895464   4.118689   5.320372   4.664042
    23  H    3.396363   4.061235   3.206436   4.383778   3.922414
    24  C    3.246300   3.222064   2.702956   3.852745   4.183317
    25  H    3.383394   4.282793   4.379313   6.096853   6.338461
    26  H    2.909768   4.242469   4.187581   5.971425   6.041379
    27  H    2.179135   2.691684   3.594987   5.484127   6.537543
    28  H    2.194744   3.443495   4.247572   6.256833   7.098107
    29  H    1.091710   2.210166   2.832905   4.665221   5.704647
    30  O    4.335653   4.161766   3.241451   3.705330   3.501073
    31  O    3.409560   3.156329   3.160246   4.382142   5.135430
    32  C    5.436712   4.953205   4.175613   4.216649   4.178740
    33  C    6.546077   6.036597   4.996918   4.487805   3.891011
    34  H    5.886634   5.533166   4.951875   5.243862   5.207853
    35  H    5.244334   4.482215   3.884111   3.835801   4.332949
    36  H    7.421052   6.783194   5.849529   5.210372   4.781555
    37  H    6.396938   5.794151   4.605140   3.725241   3.009172
    38  H    6.936147   6.646175   5.535256   5.158829   4.152687
    39  C    2.658288   1.490825   2.489964   3.528902   5.443482
    40  C    3.895058   2.482701   3.329741   3.797125   5.930550
    41  C    3.108338   2.537338   3.296184   4.241561   5.974196
    42  C    5.076520   3.774399   4.527978   4.665724   6.819889
    43  H    4.171481   2.666370   3.410818   3.770308   5.875206
    44  C    4.498696   3.808570   4.503369   5.036155   6.860466
    45  H    2.776080   2.775604   3.376876   4.557752   5.977606
    46  C    5.321052   4.292371   5.010498   5.219402   7.242902
    47  H    6.022263   4.636861   5.332933   5.233758   7.405596
    48  H    5.141637   4.688971   5.299647   5.818015   7.477379
    49  H    6.389429   5.382622   6.056495   6.098629   8.093848
    50  H    2.207904   1.093775   2.099654   3.579012   5.174439
                   16         17         18         19         20
    16  Cl   0.000000
    17  Cl   3.633780   0.000000
    18  H    2.789053   5.012149   0.000000
    19  H    4.223015   7.093170   2.454384   0.000000
    20  H    6.377327   8.642473   4.296497   2.498697   0.000000
    21  H    7.286281   8.551127   4.963745   4.311589   2.494265
    22  H    6.560158   6.918283   4.318929   4.965310   4.295105
    23  H    6.146644   5.473754   4.550251   5.951760   5.893448
    24  C    5.851045   4.099408   4.980628   6.983891   7.539088
    25  H    7.771665   6.615530   6.070518   7.790216   7.850753
    26  H    7.345610   7.047028   5.156490   6.495293   6.314711
    27  H    6.770324   5.793884   5.334753   7.453205   8.213194
    28  H    7.253713   7.060618   5.216435   6.938172   7.419512
    29  H    5.168334   5.948821   2.975911   4.794129   5.823438
    30  O    5.867519   3.867283   5.360610   7.166818   7.621287
    31  O    6.270438   4.143282   5.589561   7.782427   8.526672
    32  C    6.388708   3.599320   6.427593   8.326113   8.938661
    33  C    6.585737   3.944882   6.930988   8.555145   9.071488
    34  H    7.409106   4.528803   7.281644   9.203515   9.682760
    35  H    5.905123   2.770750   6.234569   8.312146   9.217308
    36  H    7.223868   4.250122   7.843293   9.519870  10.124975
    37  H    5.717237   3.392945   6.292675   7.815855   8.470228
    38  H    7.255288   4.939098   7.324688   8.744580   8.956214
    39  C    3.616610   4.179418   3.172849   5.506944   7.342271
    40  C    3.760031   3.762145   4.252322   6.549383   8.530768
    41  C    3.715904   5.304585   2.836550   4.797678   6.776458
    42  C    3.983719   4.621484   4.898614   6.932903   9.135644
    43  H    4.201606   3.157047   4.878413   7.258039   9.115193
    44  C    3.944941   5.946935   3.736656   5.310295   7.524485
    45  H    4.145555   5.922339   2.458802   4.172576   5.955582
    46  C    4.070856   5.654352   4.682948   6.379746   8.681517
    47  H    4.564927   4.781499   5.865237   7.874239  10.111913
    48  H    4.509065   6.918918   4.069667   5.163005   7.381954
    49  H    4.703232   6.467512   5.544871   6.993371   9.373997
    50  H    4.774579   3.660487   4.187191   6.609333   7.941963
                   21         22         23         24         25
    21  H    0.000000
    22  H    2.454891   0.000000
    23  H    4.344483   2.024645   0.000000
    24  C    6.343367   4.026917   2.116679   0.000000
    25  H    6.170846   3.773568   2.713954   2.671266   0.000000
    26  H    4.638334   2.436150   2.430033   3.443734   1.773184
    27  H    7.177796   4.948609   3.985446   3.103048   2.418174
    28  H    6.360293   4.429617   4.230783   4.217352   2.752169
    29  H    5.504077   4.032270   4.126980   4.296767   4.175130
    30  O    6.442595   4.333343   2.374735   1.334883   3.727322
    31  O    7.395168   5.032941   3.225686   1.216130   2.794492
    32  C    7.851485   5.788217   3.820720   2.376538   4.750689
    33  C    8.092219   6.336488   4.548000   3.632036   5.997984
    34  H    8.379451   6.196270   4.182154   2.695660   4.584321
    35  H    8.350184   6.276492   4.349430   2.573245   5.060891
    36  H    9.188290   7.423552   5.596929   4.481764   6.822922
    37  H    7.761774   6.211505   4.602423   3.868674   6.384826
    38  H    7.774859   6.117927   4.436268   3.955376   6.019022
    39  C    7.525612   6.037974   5.434959   4.643174   5.720299
    40  C    8.781683   7.237536   6.384288   5.225943   6.610314
    41  C    7.307238   6.208106   6.054696   5.680415   6.456887
    42  C    9.699381   8.373387   7.668615   6.596724   7.961566
    43  H    9.153228   7.412823   6.277701   4.815287   6.403740
    44  C    8.388052   7.501181   7.396466   6.962125   7.832896
    45  H    6.465842   5.528463   5.691355   5.680606   6.137614
    46  C    9.523589   8.489191   8.111600   7.356442   8.499505
    47  H   10.681245   9.305136   8.461516   7.215735   8.720177
    48  H    8.479729   7.872937   8.022469   7.807110   8.512766
    49  H   10.398128   9.493166   9.171497   8.427103   9.584993
    50  H    7.454384   5.426961   4.233848   2.864188   4.066645
                   26         27         28         29         30
    26  H    0.000000
    27  H    3.052594   0.000000
    28  H    2.404392   1.773079   0.000000
    29  H    3.330561   2.970297   2.379687   0.000000
    30  O    4.374451   4.436552   5.484851   5.323645   0.000000
    31  O    3.948436   2.599868   4.107979   4.500065   2.257383
    32  C    5.688369   5.239600   6.558267   6.469977   1.459323
    33  C    6.729147   6.640173   7.840549   7.507382   2.394235
    34  H    5.789263   5.296483   6.668511   6.956746   2.074302
    35  H    6.016959   5.029326   6.494988   6.274382   2.077926
    36  H    7.697481   7.357096   8.682928   8.407281   3.351849
    37  H    6.879002   6.828421   7.941203   7.275071   2.657858
    38  H    6.679442   7.037583   8.089586   7.872530   2.652664
    39  C    5.550630   3.875947   4.428725   2.787847   5.455368
    40  C    6.710062   4.660831   5.534717   4.159033   5.912766
    41  C    5.928467   4.695184   4.746879   2.710835   6.481057
    42  C    7.959064   5.943246   6.668286   5.132107   7.217858
    43  H    6.776670   4.535145   5.717239   4.677761   5.440505
    44  C    7.310374   5.967254   6.026719   4.044969   7.691104
    45  H    5.342654   4.611654   4.285416   2.060389   6.515396
    46  C    8.220308   6.502688   6.879465   5.086789   8.013323
    47  H    8.862307   6.687855   7.567044   6.162038   7.756877
    48  H    7.806344   6.727416   6.539572   4.496094   8.532989
    49  H    9.279916   7.560726   7.898091   6.096127   9.046061
    50  H    4.477773   2.350482   3.625929   3.071072   3.869435
                   31         32         33         34         35
    31  O    0.000000
    32  C    2.689815   0.000000
    33  C    4.157208   1.512214   0.000000
    34  H    2.752366   1.098716   2.185773   0.000000
    35  H    2.530799   1.094805   2.177151   1.782627   0.000000
    36  H    4.790824   2.140761   1.099219   2.521525   2.520444
    37  H    4.504495   2.157453   1.096873   3.090945   2.510073
    38  H    4.644083   2.166237   1.098668   2.537695   3.090288
    39  C    4.505665   6.104315   7.068813   6.764606   5.478059
    40  C    4.890909   6.245711   7.166573   6.908135   5.424111
    41  C    5.691734   7.283402   8.162701   7.979827   6.742200
    42  C    6.278184   7.497806   8.308972   8.200676   6.634145
    43  H    4.330071   5.556994   6.518811   6.161285   4.643381
    44  C    6.919559   8.383021   9.183939   9.122492   7.750119
    45  H    5.836707   7.497415   8.370822   8.168424   7.099713
    46  C    7.170670   8.477818   9.249462   9.221121   7.704213
    47  H    6.806796   7.847169   8.606592   8.530666   6.898286
    48  H    7.839657   9.311293  10.071487  10.064772   8.732210
    49  H    8.232576   9.463412  10.177983  10.224245   8.660129
    50  H    2.427223   4.421931   5.652573   4.877385   3.841846
                   36         37         38         39         40
    36  H    0.000000
    37  H    1.783881   0.000000
    38  H    1.784303   1.785107   0.000000
    39  C    7.733951   6.681161   7.776841   0.000000
    40  C    7.657837   6.770626   8.017701   1.402374   0.000000
    41  C    8.897016   7.687778   8.796432   1.402042   2.418530
    42  C    8.742154   7.820789   9.195573   2.429290   1.394707
    43  H    6.905221   6.217762   7.431608   2.157678   1.090499
    44  C    9.847881   8.629375   9.883852   2.425811   2.789694
    45  H    9.198651   7.914429   8.886557   2.167989   3.411326
    46  C    9.778450   8.688623  10.064040   2.803908   2.416226
    47  H    8.913263   8.127875   9.562496   3.414658   2.155636
    48  H   10.777948   9.478998  10.721016   3.412013   3.880003
    49  H   10.665094   9.574978  11.015741   3.894519   3.405411
    50  H    6.289602   5.563232   6.332476   2.147635   2.606836
                   41         42         43         44         45
    41  C    0.000000
    42  C    2.795323   0.000000
    43  H    3.405232   2.158071   0.000000
    44  C    1.394598   2.420094   3.880032   0.000000
    45  H    1.088943   3.884157   4.312141   2.147721   0.000000
    46  C    2.420116   1.397044   3.405362   1.398268   3.401390
    47  H    3.885366   1.090079   2.483208   3.410130   4.974186
    48  H    2.155229   3.408867   4.970315   1.090312   2.467796
    49  H    3.407736   2.160608   4.307301   2.160782   4.298742
    50  H    3.416857   3.993863   2.353750   4.562226   3.787974
                   46         47         48         49         50
    46  C    0.000000
    47  H    2.162295   0.000000
    48  H    2.161540   4.312296   0.000000
    49  H    1.090634   2.493121   2.489856   0.000000
    50  H    4.792997   4.671986   5.524137   5.862664   0.000000
 Stoichiometry    C21H22Cl3FeO3(6)
 Framework group  C1[X(C21H22Cl3FeO3)]
 Deg. of freedom   144
 Full point group                 C1      NOp   1
 Largest Abelian subgroup         C1      NOp   1
 Largest concise Abelian subgroup C1      NOp   1
                         Standard orientation:                         
 ---------------------------------------------------------------------
 Center     Atomic      Atomic             Coordinates (Angstroms)
 Number     Number       Type             X           Y           Z
 ---------------------------------------------------------------------
      1          6           0        1.730213    3.231324   -0.155469
      2          6           0        0.686448    2.301327   -0.062237
      3          6           0       -0.459249    2.494175   -0.849810
      4          6           0       -0.546408    3.574777   -1.726189
      5          6           0        0.500489    4.496186   -1.815221
      6          6           0        1.636294    4.323211   -1.021658
      7          6           0        0.736612    1.149847    0.903426
      8          6           0        2.136369    0.761832    1.454081
      9          6           0        2.136958    1.388305    2.865061
     10          6           0        0.701685    1.194589    3.407741
     11          6           0       -0.189547    1.209830    2.155961
     12          6           0       -0.832604   -0.109182    1.688434
     13          8           0       -0.029070   -0.025097    0.401008
     14         26           0       -0.234287   -0.988993   -1.350025
     15         17           0        1.447191   -0.264798   -2.539050
     16         17           0       -2.190196   -0.464238   -2.191866
     17         17           0       -0.151277   -3.102156   -0.746683
     18          1           0       -1.278556    1.781153   -0.811306
     19          1           0       -1.433820    3.687501   -2.349399
     20          1           0        0.434419    5.339613   -2.503337
     21          1           0        2.461844    5.032962   -1.083171
     22          1           0        2.631222    3.118873    0.444594
     23          1           0        2.926899    1.149018    0.807130
     24          6           0        2.321082   -0.748466    1.523280
     25          1           0        2.897970    0.938231    3.512731
     26          1           0        2.364299    2.459592    2.774600
     27          1           0        0.622144    0.233587    3.927045
     28          1           0        0.425153    1.985655    4.114823
     29          1           0       -0.877302    2.057080    2.124491
     30          8           0        2.991589   -1.199429    0.460752
     31          8           0        1.925720   -1.449675    2.434854
     32          6           0        3.227689   -2.638382    0.403363
     33          6           0        3.784451   -2.949606   -0.967748
     34          1           0        3.926318   -2.891666    1.212647
     35          1           0        2.275625   -3.145863    0.589466
     36          1           0        3.986604   -4.027816   -1.037601
     37          1           0        3.062722   -2.676957   -1.747428
     38          1           0        4.722029   -2.405845   -1.147590
     39          6           0       -2.292697   -0.237931    1.416201
     40          6           0       -2.843972   -1.525973    1.355405
     41          6           0       -3.111483    0.869095    1.151993
     42          6           0       -4.186298   -1.708129    1.023461
     43          1           0       -2.205668   -2.390162    1.542310
     44          6           0       -4.455213    0.688794    0.825215
     45          1           0       -2.704559    1.878457    1.189382
     46          6           0       -4.993787   -0.599764    0.756588
     47          1           0       -4.598944   -2.715418    0.965456
     48          1           0       -5.082995    1.555359    0.616088
     49          1           0       -6.042681   -0.738764    0.492046
     50          1           0       -0.446562   -0.982049    2.222680
 ---------------------------------------------------------------------
 Rotational constants (GHZ):           0.1600018           0.1424465           0.1227202
 Leave Link  202 at Sun Jun  6 18:31:39 2021, MaxMem=  2147483648 cpu:               0.2 elap:               0.0
 (Enter /SFS/product/gaussian/g16.a03/x86_64/avx/g16/l301.exe)
 Standard basis: Jul-CC-pVDZ (5D, 7F)
 Ernie: Thresh=  0.10000D-02 Tol=  0.10000D-05 Strict=F.
 Ernie:  142 primitive shells out of 1058 were deleted.
 There are   866 symmetry adapted cartesian basis functions of A   symmetry.
 There are   802 symmetry adapted basis functions of A   symmetry.
   802 basis functions,  1743 primitive gaussians,   866 cartesian basis functions
   127 alpha electrons      122 beta electrons
       nuclear repulsion energy      4053.0816177834 Hartrees.
 IExCor=  402 DFT=T Ex+Corr=B3LYP ExCW=0 ScaHFX=  0.200000
 ScaDFX=  0.800000  0.720000  1.000000  0.810000 ScalE2=  1.000000  1.000000
 IRadAn=      5 IRanWt=     -1 IRanGd=            0 ICorTp=0 IEmpDi=141
 NAtoms=   50 NActive=   50 NUniq=   50 SFac= 1.00D+00 NAtFMM=   60 NAOKFM=F Big=F
 Integral buffers will be    131072 words long.
 Raffenetti 2 integral format.
 Two-electron integral symmetry is turned on.
 R6Disp:  Grimme-D3(BJ) Dispersion energy=       -0.1420558516 Hartrees.
 Nuclear repulsion after empirical dispersion term =     4052.9395619318 Hartrees.
 Leave Link  301 at Sun Jun  6 18:31:39 2021, MaxMem=  2147483648 cpu:               1.1 elap:               0.1
 (Enter /SFS/product/gaussian/g16.a03/x86_64/avx/g16/l302.exe)
 NPDir=0 NMtPBC=     1 NCelOv=     1 NCel=       1 NClECP=     1 NCelD=      1
         NCelK=      1 NCelE2=     1 NClLst=     1 CellRange=     0.0.
 One-electron integrals computed using PRISM.
 One-electron integral symmetry used in STVInt
 NBasis=   802 RedAO= T EigKep=  1.46D-06  NBF=   802
 NBsUse=   802 1.00D-06 EigRej= -1.00D+00 NBFU=   802
 Precomputing XC quadrature grid using
 IXCGrd= 4 IRadAn=           5 IRanWt=          -1 IRanGd=           0 AccXCQ= 0.00D+00.
 Generated NRdTot=       0 NPtTot=           0 NUsed=           0 NTot=          32
 NSgBfM=   865   865   865   865   865 MxSgAt=    50 MxSgA2=    50.
 Leave Link  302 at Sun Jun  6 18:31:41 2021, MaxMem=  2147483648 cpu:              27.4 elap:               1.8
 (Enter /SFS/product/gaussian/g16.a03/x86_64/avx/g16/l303.exe)
 DipDrv:  MaxL=1.
 Leave Link  303 at Sun Jun  6 18:31:41 2021, MaxMem=  2147483648 cpu:               3.1 elap:               0.2
 (Enter /SFS/product/gaussian/g16.a03/x86_64/avx/g16/l401.exe)
 ExpMin= 1.40D-02 ExpMax= 4.32D+06 ExpMxC= 4.91D+03 IAcc=3 IRadAn=         5 AccDes= 0.00D+00
 Harris functional with IExCor=  402 and IRadAn=       5 diagonalized for initial guess.
 HarFok:  IExCor=  402 AccDes= 0.00D+00 IRadAn=         5 IDoV= 1 UseB2=F ITyADJ=14
 ICtDFT=  3500011 ScaDFX=  1.000000  1.000000  1.000000  1.000000
 FoFCou: FMM=F IPFlag=           0 FMFlag=      100000 FMFlg1=           0
         NFxFlg=           0 DoJE=T BraDBF=F KetDBF=T FulRan=T
         wScrn=  0.000000 ICntrl=       500 IOpCl=  0 I1Cent=   200000004 NGrid=           0
         NMat0=    1 NMatS0=      1 NMatT0=    0 NMatD0=    1 NMtDS0=    0 NMtDT0=    0
 Petite list used in FoFCou.
 Harris En= -3683.62995321901    
 JPrj=0 DoOrth=F DoCkMO=F.
 Initial guess <Sx>= 0.0000 <Sy>= 0.0000 <Sz>= 2.5000 <S**2>= 8.7500 S= 2.5000
 Leave Link  401 at Sun Jun  6 18:31:51 2021, MaxMem=  2147483648 cpu:             153.3 elap:               9.6
 (Enter /SFS/product/gaussian/g16.a03/x86_64/avx/g16/l502.exe)
 Integral symmetry usage will be decided dynamically.
 UHF open shell SCF:
 Using DIIS extrapolation, IDIIS=  1040.
 NGot=  2147483648 LenX=  2145961826 LenY=  2145211004
 Requested convergence on RMS density matrix=1.00D-08 within 128 cycles.
 Requested convergence on MAX density matrix=1.00D-06.
 Requested convergence on             energy=1.00D-06.
 No special actions if energy rises.
 Fock matrices will be formed incrementally for  20 cycles.

 Cycle   1  Pass 1  IDiag  1:
 FoFJK:  IHMeth= 1 ICntrl=       0 DoSepK=F KAlg= 0 I1Cent=           0 FoldK=F
 IRaf= 910000000 NMat=       1 IRICut=       1 DoRegI=T DoRafI=F ISym2E= 0 IDoP0=0 IntGTp=1.
 FoFCou: FMM=F IPFlag=           0 FMFlag=      100000 FMFlg1=           0
         NFxFlg=           0 DoJE=F BraDBF=F KetDBF=F FulRan=T
         wScrn=  0.000000 ICntrl=         0 IOpCl=  1 I1Cent=           0 NGrid=           0
         NMat0=    1 NMatS0=      1 NMatT0=    0 NMatD0=    1 NMtDS0=    0 NMtDT0=    0
 Symmetry not used in FoFCou.
 E= -3683.35491713616    
 DIIS: error= 1.13D-02 at cycle   1 NSaved=   1.
 NSaved= 1 IEnMin= 1 EnMin= -3683.35491713616     IErMin= 1 ErrMin= 1.13D-02
 ErrMax= 1.13D-02  0.00D+00 EMaxC= 1.00D-01 BMatC= 2.78D+00 BMatP= 2.78D+00
 IDIUse=3 WtCom= 8.87D-01 WtEn= 1.13D-01
 Coeff-Com:  0.100D+01
 Coeff-En:   0.100D+01
 Coeff:      0.100D+01
 Gap=     0.469 Goal=   None    Shift=    0.000
 Gap=     0.008 Goal=   None    Shift=    0.000
 GapD=    0.008 DampG=0.250 DampE=0.250 DampFc=0.1250 IDamp=-1.
 Damping current iteration by 1.25D-01
 RMSDP=3.64D-02 MaxDP=6.86D+00              OVMax= 7.43D-01

 Cycle   2  Pass 1  IDiag  1:
 RMSU=  2.25D-03    CP:  9.49D-01
 E= -3683.42839381360     Delta-E=       -0.073476677441 Rises=F Damp=T
 DIIS: error= 7.63D-03 at cycle   2 NSaved=   2.
 NSaved= 2 IEnMin= 2 EnMin= -3683.42839381360     IErMin= 2 ErrMin= 7.63D-03
 ErrMax= 7.63D-03  0.00D+00 EMaxC= 1.00D-01 BMatC= 1.15D+00 BMatP= 2.78D+00
 IDIUse=3 WtCom= 9.24D-01 WtEn= 7.63D-02
 Coeff-Com: -0.273D+00 0.127D+01
 Coeff-En:   0.296D+00 0.704D+00
 Coeff:     -0.230D+00 0.123D+01
 Gap=     0.266 Goal=   None    Shift=    0.000
 Gap=     0.064 Goal=   None    Shift=    0.000
 RMSDP=3.09D-02 MaxDP=6.59D+00 DE=-7.35D-02 OVMax= 9.20D-01

 Cycle   3  Pass 1  IDiag  1:
 RMSU=  9.47D-03    CP:  5.74D-01  3.00D+00
 E= -3682.61991389506     Delta-E=        0.808479918538 Rises=F Damp=F
 DIIS: error= 3.60D-02 at cycle   3 NSaved=   3.
 NSaved= 3 IEnMin= 2 EnMin= -3683.42839381360     IErMin= 2 ErrMin= 7.63D-03
 ErrMax= 3.60D-02  0.00D+00 EMaxC= 1.00D-01 BMatC= 7.41D+00 BMatP= 1.15D+00
 IDIUse=2 WtCom= 0.00D+00 WtEn= 1.00D+00
 Coeff-En:   0.000D+00 0.738D+00 0.262D+00
 Coeff:      0.000D+00 0.738D+00 0.262D+00
 Gap=     0.370 Goal=   None    Shift=    0.000
 Gap=     0.244 Goal=   None    Shift=    0.000
 RMSDP=1.03D-02 MaxDP=1.11D+00 DE= 8.08D-01 OVMax= 6.09D-01

 Cycle   4  Pass 1  IDiag  1:
 RMSU=  6.94D-03    CP:  6.08D-01  3.00D+00  2.39D-01
 E= -3681.25047327229     Delta-E=        1.369440622777 Rises=F Damp=F
 DIIS: error= 7.91D-02 at cycle   4 NSaved=   4.
 NSaved= 4 IEnMin= 2 EnMin= -3683.42839381360     IErMin= 2 ErrMin= 7.63D-03
 ErrMax= 7.91D-02  0.00D+00 EMaxC= 1.00D-01 BMatC= 1.86D+01 BMatP= 1.15D+00
 IDIUse=2 WtCom= 0.00D+00 WtEn= 1.00D+00
 EnCoef did   100 forward-backward iterations
 Coeff-En:   0.351D+00 0.117D-01 0.363D+00 0.274D+00
 Coeff:      0.351D+00 0.117D-01 0.363D+00 0.274D+00
 Gap=     0.206 Goal=   None    Shift=    0.000
 Gap=     0.001 Goal=   None    Shift=    0.000
 RMSDP=5.98D-03 MaxDP=6.33D-01 DE= 1.37D+00 OVMax= 7.30D-01

 Cycle   5  Pass 1  IDiag  1:
 RMSU=  3.96D-03    CP:  6.15D-01  3.00D+00  4.53D-01  4.29D-01
 E= -3683.99310071879     Delta-E=       -2.742627446501 Rises=F Damp=F
 DIIS: error= 3.07D-03 at cycle   5 NSaved=   5.
 NSaved= 5 IEnMin= 5 EnMin= -3683.99310071879     IErMin= 5 ErrMin= 3.07D-03
 ErrMax= 3.07D-03  0.00D+00 EMaxC= 1.00D-01 BMatC= 1.01D-01 BMatP= 1.15D+00
 IDIUse=3 WtCom= 9.69D-01 WtEn= 3.07D-02
 Coeff-Com: -0.165D+00 0.286D+00 0.300D-01 0.192D-01 0.830D+00
 Coeff-En:   0.000D+00 0.000D+00 0.000D+00 0.000D+00 0.100D+01
 Coeff:     -0.160D+00 0.277D+00 0.291D-01 0.186D-01 0.835D+00
 Gap=     0.271 Goal=   None    Shift=    0.000
 Gap=     0.161 Goal=   None    Shift=    0.000
 RMSDP=1.90D-03 MaxDP=2.17D-01 DE=-2.74D+00 OVMax= 5.62D-02

 Cycle   6  Pass 1  IDiag  1:
 RMSU=  1.74D-03    CP:  6.21D-01  3.00D+00  4.47D-01  3.90D-01  8.55D-01
 E= -3683.98118558275     Delta-E=        0.011915136035 Rises=F Damp=F
 DIIS: error= 3.67D-03 at cycle   6 NSaved=   6.
 NSaved= 6 IEnMin= 5 EnMin= -3683.99310071879     IErMin= 5 ErrMin= 3.07D-03
 ErrMax= 3.67D-03  0.00D+00 EMaxC= 1.00D-01 BMatC= 1.55D-01 BMatP= 1.01D-01
 IDIUse=3 WtCom= 9.69D-01 WtEn= 3.07D-02
 Coeff-Com: -0.170D+00 0.229D+00-0.289D-02-0.171D-03 0.558D+00 0.386D+00
 Coeff-En:   0.000D+00 0.000D+00 0.000D+00 0.000D+00 0.624D+00 0.376D+00
 Coeff:     -0.165D+00 0.222D+00-0.281D-02-0.166D-03 0.560D+00 0.386D+00
 Gap=     0.215 Goal=   None    Shift=    0.000
 Gap=     0.139 Goal=   None    Shift=    0.000
 RMSDP=7.84D-04 MaxDP=9.11D-02 DE= 1.19D-02 OVMax= 5.06D-02

 Cycle   7  Pass 1  IDiag  1:
 RMSU=  5.88D-04    CP:  6.21D-01  3.00D+00  4.32D-01  3.84D-01  9.47D-01
                    CP:  8.07D-01
 E= -3684.01173749552     Delta-E=       -0.030551912764 Rises=F Damp=F
 DIIS: error= 1.25D-03 at cycle   7 NSaved=   7.
 NSaved= 7 IEnMin= 7 EnMin= -3684.01173749552     IErMin= 7 ErrMin= 1.25D-03
 ErrMax= 1.25D-03  0.00D+00 EMaxC= 1.00D-01 BMatC= 1.72D-02 BMatP= 1.01D-01
 IDIUse=3 WtCom= 9.88D-01 WtEn= 1.25D-02
 Coeff-Com: -0.115D+00 0.148D+00-0.896D-02 0.160D-02 0.259D+00 0.213D+00
 Coeff-Com:  0.502D+00
 Coeff-En:   0.000D+00 0.000D+00 0.000D+00 0.000D+00 0.000D+00 0.000D+00
 Coeff-En:   0.100D+01
 Coeff:     -0.113D+00 0.146D+00-0.885D-02 0.158D-02 0.256D+00 0.210D+00
 Coeff:      0.508D+00
 Gap=     0.212 Goal=   None    Shift=    0.000
 Gap=     0.129 Goal=   None    Shift=    0.000
 RMSDP=2.61D-04 MaxDP=2.60D-02 DE=-3.06D-02 OVMax= 8.55D-03

 Cycle   8  Pass 1  IDiag  1:
 RMSU=  2.35D-04    CP:  6.20D-01  3.00D+00  4.26D-01  3.92D-01  9.57D-01
                    CP:  8.08D-01  1.12D+00
 E= -3684.01351423436     Delta-E=       -0.001776738840 Rises=F Damp=F
 DIIS: error= 9.88D-04 at cycle   8 NSaved=   8.
 NSaved= 8 IEnMin= 8 EnMin= -3684.01351423436     IErMin= 8 ErrMin= 9.88D-04
 ErrMax= 9.88D-04  0.00D+00 EMaxC= 1.00D-01 BMatC= 9.12D-03 BMatP= 1.72D-02
 IDIUse=3 WtCom= 9.90D-01 WtEn= 9.88D-03
 Coeff-Com: -0.587D-01 0.739D-01-0.301D-02 0.346D-02-0.919D-01-0.538D-01
 Coeff-Com:  0.182D+00 0.948D+00
 Coeff-En:   0.000D+00 0.000D+00 0.000D+00 0.000D+00 0.000D+00 0.000D+00
 Coeff-En:   0.000D+00 0.100D+01
 Coeff:     -0.581D-01 0.732D-01-0.298D-02 0.342D-02-0.910D-01-0.533D-01
 Coeff:      0.180D+00 0.949D+00
 Gap=     0.210 Goal=   None    Shift=    0.000
 Gap=     0.124 Goal=   None    Shift=    0.000
 RMSDP=2.15D-04 MaxDP=1.85D-02 DE=-1.78D-03 OVMax= 9.10D-03

 Cycle   9  Pass 1  IDiag  1:
 RMSU=  1.29D-04    CP:  6.21D-01  3.00D+00  4.17D-01  4.02D-01  9.53D-01
                    CP:  8.61D-01  1.25D+00  1.20D+00
 E= -3684.01495722244     Delta-E=       -0.001442988088 Rises=F Damp=F
 DIIS: error= 2.65D-04 at cycle   9 NSaved=   9.
 NSaved= 9 IEnMin= 9 EnMin= -3684.01495722244     IErMin= 9 ErrMin= 2.65D-04
 ErrMax= 2.65D-04  0.00D+00 EMaxC= 1.00D-01 BMatC= 9.72D-04 BMatP= 9.12D-03
 IDIUse=3 WtCom= 9.97D-01 WtEn= 2.65D-03
 Coeff-Com: -0.237D-01 0.289D-01 0.331D-02 0.861D-03-0.890D-01-0.694D-01
 Coeff-Com: -0.887D-01 0.400D+00 0.838D+00
 Coeff-En:   0.000D+00 0.000D+00 0.000D+00 0.000D+00 0.000D+00 0.000D+00
 Coeff-En:   0.000D+00 0.000D+00 0.100D+01
 Coeff:     -0.236D-01 0.288D-01 0.330D-02 0.859D-03-0.887D-01-0.693D-01
 Coeff:     -0.884D-01 0.399D+00 0.838D+00
 Gap=     0.209 Goal=   None    Shift=    0.000
 Gap=     0.122 Goal=   None    Shift=    0.000
 RMSDP=1.44D-04 MaxDP=1.37D-02 DE=-1.44D-03 OVMax= 3.39D-03

 Cycle  10  Pass 1  IDiag  1:
 RMSU=  8.38D-05    CP:  6.21D-01  3.00D+00  4.12D-01  4.04D-01  9.39D-01
                    CP:  8.81D-01  1.36D+00  1.37D+00  1.00D+00
 E= -3684.01514233334     Delta-E=       -0.000185110895 Rises=F Damp=F
 DIIS: error= 1.18D-04 at cycle  10 NSaved=  10.
 NSaved=10 IEnMin=10 EnMin= -3684.01514233334     IErMin=10 ErrMin= 1.18D-04
 ErrMax= 1.18D-04  0.00D+00 EMaxC= 1.00D-01 BMatC= 1.27D-04 BMatP= 9.72D-04
 IDIUse=3 WtCom= 9.99D-01 WtEn= 1.18D-03
 Coeff-Com: -0.123D-01 0.148D-01 0.300D-02-0.246D-03-0.328D-01-0.307D-01
 Coeff-Com: -0.746D-01 0.123D+00 0.502D+00 0.508D+00
 Coeff-En:   0.000D+00 0.000D+00 0.000D+00 0.000D+00 0.000D+00 0.000D+00
 Coeff-En:   0.000D+00 0.000D+00 0.000D+00 0.100D+01
 Coeff:     -0.123D-01 0.148D-01 0.300D-02-0.245D-03-0.327D-01-0.306D-01
 Coeff:     -0.745D-01 0.122D+00 0.502D+00 0.508D+00
 Gap=     0.209 Goal=   None    Shift=    0.000
 Gap=     0.122 Goal=   None    Shift=    0.000
 RMSDP=4.76D-05 MaxDP=4.43D-03 DE=-1.85D-04 OVMax= 1.98D-03

 Cycle  11  Pass 1  IDiag  1:
 RMSU=  3.72D-05    CP:  6.21D-01  3.00D+00  4.11D-01  4.03D-01  9.37D-01
                    CP:  8.87D-01  1.37D+00  1.46D+00  1.05D+00  9.83D-01
 E= -3684.01517530020     Delta-E=       -0.000032966857 Rises=F Damp=F
 DIIS: error= 4.50D-05 at cycle  11 NSaved=  11.
 NSaved=11 IEnMin=11 EnMin= -3684.01517530020     IErMin=11 ErrMin= 4.50D-05
 ErrMax= 4.50D-05  0.00D+00 EMaxC= 1.00D-01 BMatC= 1.52D-05 BMatP= 1.27D-04
 IDIUse=1 WtCom= 1.00D+00 WtEn= 0.00D+00
 Coeff-Com: -0.377D-02 0.429D-02 0.109D-02-0.216D-03-0.375D-02-0.806D-02
 Coeff-Com: -0.266D-01 0.301D-01 0.134D+00 0.240D+00 0.633D+00
 Coeff:     -0.377D-02 0.429D-02 0.109D-02-0.216D-03-0.375D-02-0.806D-02
 Coeff:     -0.266D-01 0.301D-01 0.134D+00 0.240D+00 0.633D+00
 Gap=     0.209 Goal=   None    Shift=    0.000
 Gap=     0.122 Goal=   None    Shift=    0.000
 RMSDP=2.11D-05 MaxDP=2.65D-03 DE=-3.30D-05 OVMax= 7.42D-04

 Cycle  12  Pass 1  IDiag  1:
 RMSU=  1.71D-05    CP:  6.21D-01  3.00D+00  4.11D-01  4.03D-01  9.37D-01
                    CP:  8.87D-01  1.38D+00  1.48D+00  1.08D+00  1.08D+00
                    CP:  9.58D-01
 E= -3684.01517814904     Delta-E=       -0.000002848847 Rises=F Damp=F
 DIIS: error= 1.82D-05 at cycle  12 NSaved=  12.
 NSaved=12 IEnMin=12 EnMin= -3684.01517814904     IErMin=12 ErrMin= 1.82D-05
 ErrMax= 1.82D-05  0.00D+00 EMaxC= 1.00D-01 BMatC= 5.42D-06 BMatP= 1.52D-05
 IDIUse=1 WtCom= 1.00D+00 WtEn= 0.00D+00
 Coeff-Com:  0.144D-04-0.225D-03 0.859D-04-0.340D-04 0.968D-03-0.184D-02
 Coeff-Com: -0.181D-02 0.156D-01-0.863D-02 0.178D-01 0.352D+00 0.626D+00
 Coeff:      0.144D-04-0.225D-03 0.859D-04-0.340D-04 0.968D-03-0.184D-02
 Coeff:     -0.181D-02 0.156D-01-0.863D-02 0.178D-01 0.352D+00 0.626D+00
 Gap=     0.209 Goal=   None    Shift=    0.000
 Gap=     0.122 Goal=   None    Shift=    0.000
 RMSDP=9.64D-06 MaxDP=1.37D-03 DE=-2.85D-06 OVMax= 3.18D-04

 Cycle  13  Pass 1  IDiag  1:
 RMSU=  7.99D-06    CP:  6.21D-01  3.00D+00  4.11D-01  4.03D-01  9.37D-01
                    CP:  8.87D-01  1.38D+00  1.49D+00  1.09D+00  1.10D+00
                    CP:  1.06D+00  8.91D-01
 E= -3684.01517936675     Delta-E=       -0.000001217705 Rises=F Damp=F
 DIIS: error= 8.25D-06 at cycle  13 NSaved=  13.
 NSaved=13 IEnMin=13 EnMin= -3684.01517936675     IErMin=13 ErrMin= 8.25D-06
 ErrMax= 8.25D-06  0.00D+00 EMaxC= 1.00D-01 BMatC= 9.27D-07 BMatP= 5.42D-06
[...]
 0.00002576,-0.00000538,-0.00000029,0.00000152,0.00000022,-0.00000092,0
 .00000293,-0.00000058,-0.00000012,0.00000165,-0.00000129,-0.00000096,0
 .00000250,0.00000113,0.00000024,-0.00000180,-0.00000009,-0.00000030,-0
 .00000129,0.00000066,-0.00040787,0.00206052,0.00008275,0.00121041,-0.0
 0010441,0.00050498,0.00079268,0.00044519,0.00013864,-0.09897843,-0.297
 97168,-0.01279772,-0.00015159,0.00070463,-0.00025282,0.00392747,-0.002
 00483,0.00145064,-0.00005612,-0.00004948,-0.00006294,-0.01214539,-0.01
 722268,-0.00211505,0.10595325,0.31417270,0.00000553,0.00001024,0.00000
 030,0.00001161,-0.00002113,0.00001218,-0.00001513,-0.00002031,-0.00002
 409,0.00000543,0.00000448,-0.00000314,-0.00000532,0.00000018,-0.000000
 93,0.00000383,-0.00000462,0.00000410,0.00010097,0.00008227,-0.00000934
 ,0.00000172,0.00000365,-0.00000618,-0.00000600,0.00000727,-0.00001481,
 -0.00000751,-0.00005043,0.00002237,0.00000150,0.00008139,-0.00008912,-
 0.00000085,-0.00048962,0.00019079,-0.00013522,0.00005552,0.00002953,0.
 00015625,0.00003054,0.00004250,-0.00005571,-0.00002301,0.00002516,-0.0
 0013883,-0.00007002,-0.00001224,-0.00002935,-0.00000931,-0.00005575,0.
 00000594,0.00002163,0.00000612,-0.00000091,0.00000344,0.00000207,-0.00
 000004,-0.00000039,0.00000093,-0.00000092,-0.00000108,0.00000036,-0.00
 000170,0.00000168,0.00000113,0.00000156,-0.00000035,0.00000019,-0.0000
 0515,-0.00000838,0.00004519,-0.00000618,-0.00000061,0.00000123,0.00000
 206,-0.00000149,0.00000012,-0.00000018,0.00000905,0.00000357,-0.000006
 24,-0.00000601,-0.00000826,0.00002779,-0.00001585,-0.00001898,0.000001
 18,-0.00000196,-0.00002674,0.00000006,0.00001722,-0.00002967,0.0000077
 3,-0.00000076,0.00000503,0.00000349,-0.00000103,0.00000328,-0.00000657
 ,-0.00000251,-0.00000277,0.00000389,-0.00000330,0.00000920,0.00000042,
 0.00000174,-0.00000028,0.00000168,-0.00000053,-0.00000413,-0.00000189,
 -0.00000136,-0.00000065,-0.00299467,0.00025192,0.00644557,-0.00264123,
 -0.00707723,0.00341093,-0.00013170,0.00013601,-0.00098934,-0.01090409,
 -0.01324834,-0.03898157,0.00110663,-0.00005640,-0.00379391,-0.00231235
 ,0.00140944,0.00648357,0.00026192,-0.00008643,-0.00099617,0.00249596,0
 .00578831,0.00391948,0.01391377,0.01330178,0.02799486,0.00003473,-0.00
 000219,0.00001109,-0.00002174,0.00001399,-0.00003623,0.00001697,-0.000
 03947,0.00001633,-0.00001543,0.00000007,-0.00004779,-0.00000525,-0.000
 04136,0.00001486,0.00001636,-0.00000397,0.00001584,0.00009213,0.000189
 66,0.00002721,0.00000580,-0.00001425,-0.00000481,0.00000067,0.00001132
 ,-0.00001660,-0.00000573,-0.00001734,0.00002773,0.00007669,0.00008338,
 0.00003739,-0.00004484,0.00142575,-0.00065269,-0.00025230,-0.00009827,
 0.00034940,-0.00008754,-0.00002801,-0.00028912,-0.00000715,-0.00001352
 ,0.00002506,0.00015545,-0.00007572,0.00006551,0.00000288,-0.00000897,0
 .00003801,-0.00005550,0.00006373,-0.00002325,-0.00000828,-0.00001142,0
 .00004720,-0.00000414,-0.00000019,0.00000371,0.00000239,-0.00000146,0.
 00000582,0.00000821,0.00000813,0.00000063,-0.00001424,0.00000228,-0.00
 000052,0.00007829,0.00003683,-0.00010594,-0.00000895,-0.00000084,0.000
 00133,-0.00000459,-0.00000994,0.00000097,0.00000943,0.00000133,0.00001
 582,-0.00001180,-0.00001369,-0.00001444,-0.00000345,-0.00002320,-0.000
 01426,-0.00003337,0.00002931,0.00006123,-0.00009547,-0.00003206,0.0000
 4368,0.00001084,-0.00002647,-0.00000813,-0.00000025,0.00000137,-0.0000
 0120,-0.00000009,0.00000327,-0.00000098,-0.00000058,0.00000044,-0.0000
 0208,-0.00000076,0.00000149,0.00000163,0.00000050,0.00000014,0.0000002
 2,-0.00000151,-0.00000107,0.00000098,-0.00422738,-0.00244384,-0.002464
 29,-0.00057550,-0.00093393,0.00013877,-0.01258254,0.02521847,-0.005609
 12,0.00037033,-0.00285994,-0.00156312,-0.00001655,0.00010764,0.0002382
 2,-0.14922236,0.12809981,-0.03615716,0.00077887,-0.00007011,0.00126153
 ,0.01041024,-0.01139613,0.00239413,0.00038622,-0.00059524,0.00011176,0
 .15483685,-0.00000702,0.00000593,-0.00000375,-0.00000359,-0.00000814,-
 0.00000266,-0.00000153,-0.00000897,-0.00003130,0.00002719,-0.00000736,
 0.00001221,-0.00000575,0.00000255,-0.00000535,-0.00000142,-0.00000122,
 -0.00000004,-0.00002592,-0.00003675,-0.00000341,0.00000421,0.00000276,
 0.00000101,-0.00000033,-0.00000863,0.00000481,0.00000781,-0.00000093,-
 0.00002167,-0.00002763,0.00000789,-0.00003141,-0.00044174,0.00022658,0
 .00003852,0.00011666,0.00001089,-0.00012598,0.00003507,-0.00002387,0.0
 0013870,0.00000516,0.00000329,-0.00001512,-0.00009626,0.00004336,-0.00
 004019,0.00001295,0.00003670,-0.00003382,0.00001369,-0.00001077,0.0000
 5515,-0.00000125,0.00000695,-0.00000027,0.00000113,0.00000291,-0.00000
 038,0.00000074,0.00000173,-0.00000084,-0.00000037,-0.00000156,0.000001
 27,0.00000417,-0.00000013,-0.00000011,-0.00002389,0.00001250,0.0000263
 0,0.00000540,-0.00000010,0.00000109,-0.00000021,0.00000230,-0.00000162
 ,0.00000050,-0.00000119,0.00000069,-0.00000077,0.00000376,0.00000086,-
 0.00000178,-0.00003128,-0.00001319,0.00001517,-0.00001742,-0.00001834,
 0.00001499,0.00000053,-0.00000885,-0.00000870,0.00001166,0.00000359,-0
 .00000024,-0.00000049,-0.00000034,0.00000111,-0.00000130,0.00000080,-0
 .00000010,-0.00000064,-0.00000056,-0.00000013,-0.00000146,-0.00000038,
 -0.00000114,0.00000025,0.00000095,0.00000152,0.00000133,-0.00000038,-0
 .00138940,0.00160014,0.00006120,-0.00107281,-0.00005148,-0.00034233,-0
 .00494812,0.00635782,-0.00136968,-0.00370979,-0.00394106,-0.00034993,0
 .00010027,0.00000813,-0.00002165,0.12815487,-0.23459671,0.04368409,0.0
 0039011,0.00080650,-0.00021394,0.01904016,-0.01717699,0.00606160,0.000
 92850,-0.00092554,0.00030337,-0.13693908,0.24670370,-0.00000618,-0.000
 00505,-0.00000356,-0.00000959,-0.00001700,0.00000439,0.00001355,0.0000
 1441,-0.00003988,0.00002035,-0.00001640,0.00002697,-0.00000157,0.00001
 133,-0.00000716,-0.00000823,-0.00000173,-0.00000475,0.00002563,0.00003
 090,0.00001986,0.00000030,-0.00000427,-0.00000497,-0.00000865,0.000003
 63,-0.00000410,0.00000396,0.00000215,0.00002207,-0.00000215,-0.0000539
 6,0.00002861,0.00012152,0.00051097,0.00027053,-0.00009984,-0.00008297,
 -0.00005037,0.00014311,-0.00007790,0.00008193,-0.00003647,-0.00000701,
 0.00001666,-0.00018376,0.00010017,-0.00002937,0.00000269,0.00006222,-0
 .00003899,0.00003457,-0.00000306,0.00001558,0.00000877,0.00001472,-0.0
 0001680,0.00000056,0.00000012,0.00000351,-0.00000489,-0.00000172,-0.00
 000036,-0.00000494,0.00000062,0.00000052,-0.00000115,-0.00000247,-0.00
 000229,0.00001033,-0.00000617,0.00000324,-0.00000238,0.00000086,-0.000
 00362,-0.00000032,-0.00000125,0.00000287,0.00000065,0.00000941,0.00000
 277,-0.00000813,-0.00001093,-0.00001214,-0.00004068,-0.00000255,0.0000
 2261,-0.00000834,0.00000860,-0.00000178,-0.00001677,0.00000366,-0.0000
 1269,0.00000873,-0.00000994,0.00000107,0.00000190,0.00000013,0.0000023
 7,-0.00000310,0.00000004,-0.00000222,0.00000210,-0.00000051,0.00000298
 ,-0.00000027,0.00000229,-0.00000033,0.00000073,-0.00000224,-0.00000194
 ,-0.00000105,-0.00000143,0.00000024,-0.00300150,-0.00031975,0.00651519
 ,0.00013280,-0.00031668,-0.00093951,-0.00356876,0.00621115,0.00210032,
 -0.00142473,-0.00017553,0.00664816,0.00021239,-0.00000218,-0.00092189,
 -0.03634255,0.04387333,-0.04784028,0.00118794,-0.00037460,-0.00389205,
 0.00071740,-0.00174367,0.00371588,0.00002106,-0.00010348,0.00009092,0.
 04095172,-0.04738723,0.03798336,0.00000943,-0.00000408,0.00000258,-0.0
 0000370,-0.00000797,-0.00000426,0.00000228,0.00002271,0.00003094,-0.00
 001938,0.00001200,-0.00001011,0.00000139,-0.00000665,0.00000169,-0.000
 00106,-0.00000387,0.00000330,0.00003540,0.00005671,0.00000866,-0.00000
 487,0.00000446,0.00000430,0.00000080,0.00000605,-0.00001057,-0.0000042
 6,0.00000986,0.00002509,0.00000971,-0.00005473,-0.00000346,-0.00000528
 ,0.00001189,0.00010871,-0.00014092,-0.00002309,0.00014314,-0.00004750,
 0.00003020,-0.00020954,-0.00000384,-0.00000024,0.00002069,0.00013244,-
 0.00001598,0.00008754,-0.00002319,-0.00002699,0.00006348,0.00000227,-0
 .00001468,-0.00004146,0.00000229,-0.00000216,-0.00000114,-0.00000139,-
 0.00000478,0.00000088,-0.00000193,-0.00000224,0.00000117,0.00000009,0.
 00000068,-0.00000211,-0.00000616,0.00000021,0.00000062,0.00004830,-0.0
 0001524,-0.00006027,-0.00000853,0.00000074,-0.00000004,-0.00000054,-0.
 00000314,0.00000291,-0.00000069,0.00000259,0.00000149,-0.00000095,-0.0
 0000490,-0.00000165,-0.00000725,0.00004122,0.00000751,-0.00002926,0.00
 003504,0.00004171,-0.00004285,-0.00000411,0.00002331,0.00001367,-0.000
 02478,-0.00000758,-0.00000025,0.00000069,-0.00000005,-0.00000144,0.000
 00290,-0.00000077,0.00000059,0.00000100,-0.00000088,-0.00000081,0.0000
 0273,0.00000084,0.00000115,-0.00000103,-0.00000085,-0.00000168,-0.0000
 0160,0.00000088,0.00059337,0.00031346,0.00046110,0.00035968,0.00343022
 ,-0.00205350,0.00158373,-0.00249837,-0.00139077,-0.01234834,-0.0055506
 4,-0.00393541,-0.00065869,-0.00032807,-0.00017223,-0.00714110,0.001815
 02,-0.00293021,-0.00042194,0.00011896,-0.00011908,-0.31578303,-0.03461
 309,-0.07026751,0.00051162,0.00017988,0.00116941,0.00044388,-0.0001234
 2,0.00116634,0.33292844,0.00000077,-0.00000195,-0.00000006,0.00000375,
 0.00000698,0.00000654,0.00001617,0.00002736,0.00002941,-0.00002197,0.0
 0000137,-0.00000906,0.00000566,-0.00000212,-0.00000069,-0.00000463,-0.
 00000236,-0.00000214,0.00000421,-0.00001968,-0.00002702,-0.00000874,0.
 00000579,0.00000620,-0.00000034,0.00000539,-0.00000627,-0.00000789,0.0
 0002671,0.00002130,0.00002297,-0.00004471,-0.00002659,0.00001110,0.000
 05378,-0.00004291,0.00002727,0.00007006,0.00000510,-0.00001011,-0.0000
 7312,0.00001893,0.00000701,0.00000747,-0.00000188,-0.00000673,0.000006
 81,-0.00000342,0.00001790,0.00001650,-0.00004256,-0.00000511,-0.000018
 55,-0.00003088,0.00000011,0.00000031,0.00000166,-0.00000267,-0.0000030
 7,0.00000145,-0.00000095,-0.00000040,0.00000038,-0.00000168,-0.0000017
 4,-0.00000089,-0.00000298,0.00000148,0.00000034,-0.00000288,-0.0000329
 5,0.00000316,-0.00000508,-0.00000029,0.00000051,0.00000074,0.00000079,
 0.00000154,-0.00001007,0.00000043,-0.00001083,0.00000321,-0.00000041,0
 .00000276,0.00001906,0.00008060,0.00002852,-0.00000145,0.00001256,0.00
 000246,0.00000680,0.00002127,-0.00000347,-0.00000236,-0.00000702,-0.00
 000067,0.00000062,0.00000223,-0.00000040,0.00000054,0.00000096,0.00000
 028,-0.00000134,0.00000159,0.00000037,-0.00000012,0.00000017,0.0000006
 2,-0.00000057,-0.00000035,0.00000056,0.00000057,-0.00000032,-0.0000002
 5,0.00029348,-0.00149559,0.00013054,0.00276868,-0.00354615,0.00126069,
 -0.00175525,-0.00486643,0.00020443,0.02461693,0.00737817,0.00619979,0.
 00119960,0.00024184,0.00031716,-0.02839335,0.00108506,-0.00719991,-0.0
 0138942,-0.00014227,-0.00033615,-0.03462649,-0.06252616,-0.00764929,-0
 .00041379,0.00091038,-0.00035602,0.00048237,0.00098279,-0.00013950,0.0
 3725662,0.06181205,-0.00000766,-0.00000706,0.00000442,0.00001156,0.000
 02665,0.00000868,0.00001895,0.00001084,0.00000267,-0.00000590,-0.00001
 962,0.00000006,0.00001242,0.00000433,0.00000214,-0.00000553,0.00000418
 ,-0.00001053,0.00003699,-0.00007086,-0.00004896,0.00000108,0.00000122,
 -0.00000009,0.00000468,0.00000589,-0.00000051,0.00001641,0.00001048,0.
 00000070,-0.00004896,0.00003076,0.00006378,0.00017774,-0.00016604,-0.0
 0095537,0.00029310,0.00007497,-0.00013713,0.00014637,0.00002269,0.0000
 8895,-0.00004142,-0.00001562,0.00001249,-0.00013555,0.00001353,-0.0000
 4883,-0.00002127,0.00003238,0.00000622,-0.00000595,-0.00000060,0.00000
 288,0.00000044,0.00000590,0.00000013,-0.00000102,-0.00000009,0.0000030
 3,-0.00000219,-0.00000081,-0.00000008,-0.00000279,0.00000041,0.0000004
 4,-0.00000029,-0.00000095,-0.00000108,0.00000044,-0.00000238,0.0000094
 9,-0.00000184,0.00000254,-0.00000098,0.00000271,-0.00000019,0.00000142
 ,-0.00000317,0.00000591,-0.00000581,-0.00000554,-0.00000833,-0.0000042
 6,0.00000120,-0.00002979,0.00000447,-0.00000266,0.00000205,-0.00000805
 ,-0.00000966,0.00000320,-0.00001278,0.00000774,-0.00000295,0.00000205,
 0.00000205,-0.00000113,0.00000260,-0.00000380,-0.00000089,-0.00000228,
 0.00000235,-0.00000184,0.00000456,0.00000024,0.00000185,-0.00000045,0.
 00000122,-0.00000103,-0.00000285,-0.00000159,-0.00000121,0.00000007,0.
 00029185,0.00001839,-0.00083514,-0.00181461,0.00161355,0.00686343,-0.0
 0116321,-0.00001997,0.00686114,-0.00567340,-0.00152604,0.00254439,-0.0
 0029497,-0.00010269,-0.00012286,-0.00135733,0.00048916,0.00342265,-0.0
 0009841,0.00003122,-0.00002868,-0.07046382,-0.00770164,-0.05522263,0.0
 0120301,-0.00017185,-0.00365602,0.00112057,-0.00030638,-0.00360999,0.0
 7782028,0.00768111,0.04480564,0.00013095,-0.00005755,0.00000261,-0.000
 25231,-0.00041567,-0.00016287,-0.00003573,-0.00001416,-0.00006825,-0.0
 0001914,0.00000345,-0.00004482,-0.00002086,-0.00002656,0.00000346,-0.0
 0003182,-0.00002312,0.00003836,0.00064524,0.00115397,0.00104967,-0.000
 21619,-0.00001907,0.00000827,-0.00000042,-0.00003274,-0.00004784,0.001
 00310,-0.00061628,0.00033249,0.00433485,-0.00985049,0.00341527,-0.0833
 2042,0.08159166,-0.05569669,0.00008156,-0.01282130,0.01813020,-0.00008
 101,-0.00113884,-0.00119861,-0.00022547,0.00000619,0.00014198,0.000225
 79,-0.00002407,0.00010713,-0.00011599,0.00020323,-0.00012151,-0.000093
 93,0.00003280,0.00004317,0.00000448,-0.00000265,0.00000721,-0.00000437
 ,-0.00000388,0.00000225,-0.00000873,-0.00001093,0.00001728,-0.00003346
 ,-0.00002033,-0.00001453,-0.00003804,0.00014297,-0.00001494,-0.0025240
 4,-0.00221178,0.00392869,-0.00004641,-0.00006603,-0.00007565,0.0000028
 3,0.00009850,0.00004820,0.00017598,0.00001594,-0.00032619,-0.00005664,
 0.00013622,-0.00004231,-0.00107465,-0.00168839,-0.00003100,0.00048954,
 -0.00028872,-0.00153170,0.00021704,0.00203129,-0.00135524,-0.00013258,
 0.00045442,0.00012658,0.00001396,-0.00001704,0.00003030,-0.00002718,-0
 .00004535,0.00000799,0.00001151,0.00000105,0.00008112,0.00001520,-0.00
 001762,-0.00002669,0.00001096,-0.00000274,-0.00002570,0.00000536,0.000
 00500,-0.00001799,-0.01284569,0.02423340,-0.01482470,0.00065845,0.0023
 5894,0.00081317,-0.00405481,-0.00277081,-0.00184109,-0.00010341,-0.000
 18651,-0.00001376,-0.00003449,-0.00122540,-0.00020791,-0.00043955,0.00
 135180,0.00054561,0.00020827,0.00003309,-0.00008363,0.00008910,-0.0001
 6175,-0.00012920,0.00001754,-0.00000929,0.00000567,-0.00043049,-0.0000
 4901,-0.00000310,0.00003027,-0.00009018,-0.00000087,0.09789584,0.00002
 994,-0.00001365,0.00003162,-0.00023078,0.00034781,0.00033357,-0.000057
 53,0.00011599,-0.00003588,-0.00003937,0.00000653,0.00001931,0.00003730
 ,-0.00000898,0.00002111,-0.00000260,-0.00000343,-0.00006311,0.00000764
 ,-0.00053357,-0.00049510,-0.00025882,-0.00019693,0.00004992,-0.0000860
 7,0.00026263,0.00003031,0.00161402,0.00091506,0.00154006,0.00868914,-0
 .01931669,0.00881236,0.07758207,-0.22869179,0.10785247,-0.00096607,0.0
 0441291,-0.00040278,-0.00008190,0.00020587,-0.00014457,0.00001934,0.00
 001650,-0.00001171,0.00002105,0.00001314,0.00000362,0.00006239,0.00001
 957,0.00019905,-0.00000962,-0.00001999,-0.00005286,0.00000291,-0.00000
 502,0.00000286,0.00000057,-0.00000678,-0.00000363,-0.00000495,-0.00000
 684,0.00000350,-0.00002531,-0.00000091,0.00000483,-0.00002327,0.000043
 52,-0.00003071,-0.00052293,-0.00029516,0.00085205,-0.00004203,0.000006
 47,-0.00002042,0.00015826,0.00005986,-0.00005826,-0.00068744,0.0005536
 7,-0.00127816,0.00014687,0.00041307,0.00000009,-0.00273738,-0.00268693
 ,0.00013672,0.00018361,-0.00018334,-0.00047768,0.00209290,-0.00041044,
 -0.00037360,0.00003750,0.00015498,0.00002994,-0.00001291,-0.00001501,-
 0.00000195,-0.00000660,-0.00001279,0.00001058,0.00002833,-0.00002972,-
 0.00003167,0.00000521,-0.00000508,-0.00000708,0.00000577,0.00000141,-0
 .00000557,-0.00000372,0.00000148,0.00000367,-0.00163526,0.00347016,-0.
 00218384,-0.00206893,0.00084124,-0.00090222,-0.00094045,0.00025467,0.0
 0001684,0.00048641,0.00004807,-0.00019449,-0.00012666,0.00023604,0.000
 33831,-0.00031881,0.00004642,0.00005934,-0.00008960,0.00009342,-0.0001
 6515,-0.00017952,0.00027377,-0.00010688,-0.00000790,-0.00000389,0.0000
 3736,-0.00007912,0.00001106,0.00001049,-0.00002000,0.00002475,0.000066
 77,-0.07994570,0.23959686,-0.00011953,0.00016321,-0.00005771,0.0004322
 1,0.00090721,0.00079708,-0.00005991,0.00006397,0.00004100,-0.00000543,
 0.00000034,0.00005577,0.00004639,0.00002203,0.00000900,0.00008211,0.00
 002985,-0.00008990,-0.00164732,-0.00219812,-0.00312435,0.00014512,0.00
 004169,0.00016493,0.00008919,-0.00004941,-0.00005689,0.00071983,-0.000
 93667,0.00139950,0.00396222,-0.01011463,0.00755572,-0.05313196,0.09930
 348,-0.10450028,0.00431569,0.02123090,-0.02769771,0.00037761,0.0025320
 2,0.00127303,0.00011797,-0.00006456,-0.00017779,-0.00023549,-0.0000340
 5,-0.00003868,-0.00005534,-0.00043624,0.00059439,0.00012296,-0.0000684
 5,-0.00002296,-0.00000473,0.00000508,-0.00000661,0.00000693,0.00000437
 ,-0.00000728,0.00000582,0.00001333,-0.00002462,0.00000795,0.00000748,0
 .00002248,-0.00003153,0.00003275,0.00001429,0.00051308,0.00046246,-0.0
 0056218,-0.00002721,0.00002642,0.00000988,0.00002906,0.00004990,-0.000
 02930,0.00010249,0.00021775,-0.00037097,0.00000144,0.00003753,-0.00000
 549,-0.00123384,-0.00243376,-0.00031960,-0.00009206,0.00008291,0.00019
 099,-0.00133237,-0.00008389,-0.00010401,0.00005344,-0.00000906,-0.0000
 1901,-0.00001628,-0.00001309,-0.00000920,-0.00001607,-0.00000051,-0.00
 000482,-0.00000077,-0.00002050,-0.00002211,0.00000103,-0.00000146,0.00
 000532,0.00000124,0.00001233,0.00000135,-0.00000785,0.00000113,0.00000
 633,-0.00184915,0.00494207,0.00242520,0.00066301,0.00039484,-0.0001596
 4,-0.00121198,-0.00032947,0.00077182,-0.00008831,-0.00022379,0.0001816
 9,-0.00020246,-0.00047488,0.00000056,0.00044112,0.00061535,-0.00023059
 ,-0.00009011,0.00004515,-0.00000772,0.00018273,-0.00027376,0.00014576,
 0.00001072,0.00002026,-0.00002662,-0.00001666,-0.00004512,-0.00014157,
 0.00002487,-0.00003494,-0.00000314,0.04902011,-0.11341943,0.12215467\\
 0.00000443,0.00000288,0.00000037,0.00000090,0.00000096,0.00000314,-0.0
 0000586,-0.00000109,-0.00000151,-0.00000080,0.00000012,-0.00000109,0.0
 0000047,0.00000020,0.00000058,-0.00000280,0.00000137,-0.00000058,-0.00
 000538,-0.00000654,-0.00000498,0.00000696,0.00000866,0.00000523,-0.000
 00017,0.00000039,-0.00000025,-0.00000490,0.00000162,0.00000751,0.,0.00
 000302,0.,-0.00000294,-0.00000564,-0.00000484,-0.00000608,0.00000529,0
 .00000085,0.00000754,0.00000040,0.00000543,0.00000470,0.00000116,-0.00
 000025,-0.00000131,0.00000153,0.00000069,0.00000312,-0.00000314,-0.000
 00034,0.00000154,-0.00000482,-0.00000059,-0.00000169,-0.00000063,-0.00
 000157,-0.00000109,0.00000128,-0.00000080,-0.00000046,0.00000260,0.000
 00017,-0.00000255,-0.00000022,0.00000022,0.00000004,-0.00000271,0.0000
 0107,-0.00001018,-0.00000738,-0.00001194,-0.00000101,0.00000083,0.0000
 0140,-0.00000306,0.00000137,-0.00000033,0.,0.00000044,-0.00000216,-0.0
 0000234,0.00000116,-0.00000084,-0.00000117,-0.00000005,0.00000069,0.00
 000308,0.00000097,0.00000896,0.00000631,0.00000131,0.00000250,-0.00000
 151,0.00000437,0.00000424,0.00000564,-0.00000283,0.00000052,0.00000265
 ,0.00000305,0.00000147,0.00000068,0.00000097,-0.00000090,0.00000195,0.
 00000235,0.00000056,0.00000042,0.00000276,0.00000111,0.00000163,0.0000
 0383,0.00000168,0.00000228,0.00000360,0.00000215,0.00000198,-0.0000044
 4,-0.00000075,0.00000008,-0.00000086,-0.00000235,-0.00000046,-0.000003
 38,-0.00000105,0.00000200,-0.00000159,-0.00000016,-0.00000197,-0.00000
 241,-0.00000231,0.00000094,-0.00000103,-0.00000059,-0.00000005,-0.0000
 0170,-0.00000162,0.00000060,-0.00000360,-0.00000213,-0.00000143,-0.000
 00130,-0.00000189,-0.00000101,-0.00000298,-0.00000312,0.00000032,-0.00
 000013,-0.00000165\\\@


 A successful marriage requires falling in love
 many times, always with the same person.
                           -- Mignon McLaughlin
 Job cpu time:       7 days  3 hours  3 minutes 24.0 seconds.
 Elapsed time:       0 days 10 hours 43 minutes  6.6 seconds.
 File lengths (MBytes):  RWF=   5632 Int=      0 D2E=      0 Chk=     63 Scr=      1
 Normal termination of Gaussian 16 at Mon Jun  7 06:17:51 2021.
