 Entering Gaussian System, Link 0=g16
 Input=styrene-first_step-ts3-b3lyp_d3bj-juldz-gas.gjf
 Output=styrene-first_step-ts3-b3lyp_d3bj-juldz-gas.out
 Initial command:
 /SFS/product/gaussian/g16.a03/x86_64/avx/g16/l1.exe "/scratch/kwaneu.2865077.bmbhpcps002/Gau-6955.inp" -scrdir="/scratch/kwaneu.2865077.bmbhpcps002/"
 Entering Link 1 = /SFS/product/gaussian/g16.a03/x86_64/avx/g16/l1.exe PID=      6956.
  
 Copyright (c) 1988,1990,1992,1993,1995,1998,2003,2009,2016,
            Gaussian, Inc.  All Rights Reserved.
  
 This is part of the Gaussian(R) 16 program.  It is based on
 the Gaussian(R) 09 system (copyright 2009, Gaussian, Inc.),
 the Gaussian(R) 03 system (copyright 2003, Gaussian, Inc.),
 the Gaussian(R) 98 system (copyright 1998, Gaussian, Inc.),
 the Gaussian(R) 94 system (copyright 1995, Gaussian, Inc.),
 the Gaussian 92(TM) system (copyright 1992, Gaussian, Inc.),
 the Gaussian 90(TM) system (copyright 1990, Gaussian, Inc.),
 the Gaussian 88(TM) system (copyright 1988, Gaussian, Inc.),
 the Gaussian 86(TM) system (copyright 1986, Carnegie Mellon
 University), and the Gaussian 82(TM) system (copyright 1983,
 Carnegie Mellon University). Gaussian is a federally registered
 trademark of Gaussian, Inc.
  
 This software contains proprietary and confidential information,
 including trade secrets, belonging to Gaussian, Inc.
  
 This software is provided under written license and may be
 used, copied, transmitted, or stored only in accord with that
 written license.
  
 The following legend is applicable only to US Government
 contracts under FAR:
  
                    RESTRICTED RIGHTS LEGEND
  
 Use, reproduction and disclosure by the US Government is
 subject to restrictions as set forth in subparagraphs (a)
 and (c) of the Commercial Computer Software - Restricted
 Rights clause in FAR 52.227-19.
  
 Gaussian, Inc.
 340 Quinnipiac St., Bldg. 40, Wallingford CT 06492
  
  
 ---------------------------------------------------------------
 Warning -- This program may not be used in any manner that
 competes with the business of Gaussian, Inc. or will provide
 assistance to any competitor of Gaussian, Inc.  The licensee
 of this program is prohibited from giving any competitor of
 Gaussian, Inc. access to this program.  By using this program,
 the user acknowledges that Gaussian, Inc. is engaged in the
 business of creating and licensing software in the field of
 computational chemistry and represents and warrants to the
 licensee that it is not a competitor of Gaussian, Inc. and that
 it will not use this program in any manner prohibited above.
 ---------------------------------------------------------------
  

 Cite this work as:
 Gaussian 16, Revision A.03,
 M. J. Frisch, G. W. Trucks, H. B. Schlegel, G. E. Scuseria, 
 M. A. Robb, J. R. Cheeseman, G. Scalmani, V. Barone, 
 G. A. Petersson, H. Nakatsuji, X. Li, M. Caricato, A. V. Marenich, 
 J. Bloino, B. G. Janesko, R. Gomperts, B. Mennucci, H. P. Hratchian, 
 J. V. Ortiz, A. F. Izmaylov, J. L. Sonnenberg, D. Williams-Young, 
 F. Ding, F. Lipparini, F. Egidi, J. Goings, B. Peng, A. Petrone, 
 T. Henderson, D. Ranasinghe, V. G. Zakrzewski, J. Gao, N. Rega, 
 G. Zheng, W. Liang, M. Hada, M. Ehara, K. Toyota, R. Fukuda, 
 J. Hasegawa, M. Ishida, T. Nakajima, Y. Honda, O. Kitao, H. Nakai, 
 T. Vreven, K. Throssell, J. A. Montgomery, Jr., J. E. Peralta, 
 F. Ogliaro, M. J. Bearpark, J. J. Heyd, E. N. Brothers, K. N. Kudin, 
 V. N. Staroverov, T. A. Keith, R. Kobayashi, J. Normand, 
 K. Raghavachari, A. P. Rendell, J. C. Burant, S. S. Iyengar, 
 J. Tomasi, M. Cossi, J. M. Millam, M. Klene, C. Adamo, R. Cammi, 
 J. W. Ochterski, R. L. Martin, K. Morokuma, O. Farkas, 
 J. B. Foresman, and D. J. Fox, Gaussian, Inc., Wallingford CT, 2016.
 
 ******************************************
 Gaussian 16:  ES64L-G16RevA.03 25-Dec-2016
                 9-Jun-2021 
 ******************************************
 %mem=16GB
 %nprocshared=16
 Will use up to   16 processors via shared memory.
 ----------------------------------------------------------------------
 #p opt=modredundant freq=noraman b3lyp pop=none empiricaldispersion=gd
 3bj jul-cc-pvdz
 ----------------------------------------------------------------------
 1/18=120,19=15,26=3,38=1/1,3;
 2/9=110,12=2,17=6,18=5,40=1/2;
 3/5=16,7=50,11=2,25=1,30=1,71=1,74=-5,124=41/1,2,3;
 4//1;
 5/5=2,38=5/2;
 7//1,2,3,16;
 1/18=20,19=15,26=3/3(2);
 2/9=110/2;
 99//99;
 2/9=110/2;
 3/5=16,7=50,11=2,25=1,30=1,71=1,74=-5,124=41/1,2,3;
 4/5=5,16=3,69=1/1;
 5/5=2,38=5/2;
 7//1,2,3,16;
 1/18=20,19=15,26=3/3(-5);
 2/9=110/2;
 99/9=1/99;
 Leave Link    1 at Wed Jun  9 10:31:01 2021, MaxMem=  2147483648 cpu:               1.2 elap:               0.1
 (Enter /SFS/product/gaussian/g16.a03/x86_64/avx/g16/l101.exe)
 -----
 title
 -----
 Symbolic Z-matrix:
 Charge =  0 Multiplicity = 6
 C                     2.0698    2.13413   0.00981 
 C                     1.03851   1.27065   0.42094 
 C                     0.30288   1.59358   1.56965 
 C                     0.60485   2.74396   2.30488 
 C                     1.63466   3.59196   1.89581 
 C                     2.36678   3.28169   0.74191 
 C                     0.66735   0.03148  -0.3642 
 C                     1.72762  -1.10182  -0.51078 
 C                     1.30086  -1.85132  -1.78231 
 C                     0.88705  -0.76413  -2.79337 
 C                     0.35132   0.42351  -1.97305 
 C                    -1.09575   0.53938  -1.88254 
 O                    -0.51006  -0.50211   0.13102 
 Fe                   -1.62978  -1.8703    0.6431 
 Cl                   -2.65074  -2.48837  -1.27497 
 Cl                   -3.09408  -0.86204   1.98413 
 Cl                   -0.44343  -3.50957   1.52661 
 H                    -0.50928   0.93956   1.87801 
 H                     0.02493   2.97571   3.19891 
 H                     1.86826   4.49132   2.46718 
 H                     3.17058   3.94019   0.41026 
 H                     2.64378   1.91643  -0.88936 
 H                     1.63294  -1.71828   0.39033 
 C                     3.14594  -0.58533  -0.5946 
 H                     2.10331  -2.48866  -2.17095 
 H                     0.44967  -2.49673  -1.53871 
 H                     1.75655  -0.42997  -3.3681 
 H                     0.1352   -1.13983  -3.49985 
 H                     0.85245   1.3679   -2.19422 
 O                     3.73512  -0.59433   0.61261 
 O                     3.68629  -0.18841  -1.61136 
 C                     5.08551  -0.06625   0.68997 
 C                     6.1112   -1.13023   0.34302 
 H                     5.15972   0.80011   0.02207 
 H                     5.17774   0.26521   1.7309 
 H                     7.12268  -0.72179   0.4839 
 H                     5.99766  -2.00624   0.99589 
 H                     6.0081   -1.44563  -0.70285 
 C                    -1.82552   1.64546  -1.40599 
 C                    -1.22242   2.90164  -1.12074 
 C                    -3.1926    1.43001  -1.07209 
 C                    -1.9677    3.90197  -0.51844 
 H                    -0.18003   3.07542  -1.37444 
 C                    -3.92376   2.43362  -0.45737 
 H                    -3.62964   0.44767  -1.25361 
 C                    -3.31125   3.66572  -0.1853 
 H                    -1.51003   4.86412  -0.29213 
 H                    -4.95949   2.25937  -0.16933 
 H                    -3.88781   4.45456   0.30057 
 H                    -1.67537  -0.36209  -2.1024 
 
 The following ModRedundant input section has been read:
 B       7      11 F                                                           
 B      12      13 F                                                           
 
 ITRead=  0  0  0  0  0  0  0  0  0  0  0  0  0  0  0  0  0  0  0  0
 ITRead=  0  0  0  0  0  0  0  0  0  0  0  0  0  0  0  0  0  0  0  0
 ITRead=  0  0  0  0  0  0  0  0  0  0
 MicOpt= -1 -1 -1 -1 -1 -1 -1 -1 -1 -1 -1 -1 -1 -1 -1 -1 -1 -1 -1 -1
 MicOpt= -1 -1 -1 -1 -1 -1 -1 -1 -1 -1 -1 -1 -1 -1 -1 -1 -1 -1 -1 -1
 MicOpt= -1 -1 -1 -1 -1 -1 -1 -1 -1 -1
 NAtoms=     50 NQM=       50 NQMF=       0 NMMI=      0 NMMIF=      0
                NMic=       0 NMicF=      0.
                    Isotopes and Nuclear Properties:
 (Nuclear quadrupole moments (NQMom) in fm**2, nuclear magnetic moments (NMagM)
  in nuclear magnetons)

  Atom         1           2           3           4           5           6           7           8           9          10
 IAtWgt=          12          12          12          12          12          12          12          12          12          12
 AtmWgt=  12.0000000  12.0000000  12.0000000  12.0000000  12.0000000  12.0000000  12.0000000  12.0000000  12.0000000  12.0000000
 NucSpn=           0           0           0           0           0           0           0           0           0           0
 AtZEff=  -0.0000000  -0.0000000  -0.0000000  -0.0000000  -0.0000000  -0.0000000  -0.0000000  -0.0000000  -0.0000000  -0.0000000
 NQMom=    0.0000000   0.0000000   0.0000000   0.0000000   0.0000000   0.0000000   0.0000000   0.0000000   0.0000000   0.0000000
 NMagM=    0.0000000   0.0000000   0.0000000   0.0000000   0.0000000   0.0000000   0.0000000   0.0000000   0.0000000   0.0000000
 AtZNuc=   6.0000000   6.0000000   6.0000000   6.0000000   6.0000000   6.0000000   6.0000000   6.0000000   6.0000000   6.0000000

  Atom        11          12          13          14          15          16          17          18          19          20
 IAtWgt=          12          12          16          56          35          35          35           1           1           1
 AtmWgt=  12.0000000  12.0000000  15.9949146  55.9349393  34.9688527  34.9688527  34.9688527   1.0078250   1.0078250   1.0078250
 NucSpn=           0           0           0           0           3           3           3           1           1           1
 AtZEff=  -0.0000000  -0.0000000  -0.0000000  -0.0000000  -0.0000000  -0.0000000  -0.0000000  -0.0000000  -0.0000000  -0.0000000
 NQMom=    0.0000000   0.0000000   0.0000000   0.0000000  -8.1650000  -8.1650000  -8.1650000   0.0000000   0.0000000   0.0000000
 NMagM=    0.0000000   0.0000000   0.0000000   0.0000000   0.8218740   0.8218740   0.8218740   2.7928460   2.7928460   2.7928460
 AtZNuc=   6.0000000   6.0000000   8.0000000  26.0000000  17.0000000  17.0000000  17.0000000   1.0000000   1.0000000   1.0000000

  Atom        21          22          23          24          25          26          27          28          29          30
 IAtWgt=           1           1           1          12           1           1           1           1           1          16
 AtmWgt=   1.0078250   1.0078250   1.0078250  12.0000000   1.0078250   1.0078250   1.0078250   1.0078250   1.0078250  15.9949146
 NucSpn=           1           1           1           0           1           1           1           1           1           0
 AtZEff=  -0.0000000  -0.0000000  -0.0000000  -0.0000000  -0.0000000  -0.0000000  -0.0000000  -0.0000000  -0.0000000  -0.0000000
 NQMom=    0.0000000   0.0000000   0.0000000   0.0000000   0.0000000   0.0000000   0.0000000   0.0000000   0.0000000   0.0000000
 NMagM=    2.7928460   2.7928460   2.7928460   0.0000000   2.7928460   2.7928460   2.7928460   2.7928460   2.7928460   0.0000000
 AtZNuc=   1.0000000   1.0000000   1.0000000   6.0000000   1.0000000   1.0000000   1.0000000   1.0000000   1.0000000   8.0000000

  Atom        31          32          33          34          35          36          37          38          39          40
 IAtWgt=          16          12          12           1           1           1           1           1          12          12
 AtmWgt=  15.9949146  12.0000000  12.0000000   1.0078250   1.0078250   1.0078250   1.0078250   1.0078250  12.0000000  12.0000000
 NucSpn=           0           0           0           1           1           1           1           1           0           0
 AtZEff=  -0.0000000  -0.0000000  -0.0000000  -0.0000000  -0.0000000  -0.0000000  -0.0000000  -0.0000000  -0.0000000  -0.0000000
 NQMom=    0.0000000   0.0000000   0.0000000   0.0000000   0.0000000   0.0000000   0.0000000   0.0000000   0.0000000   0.0000000
 NMagM=    0.0000000   0.0000000   0.0000000   2.7928460   2.7928460   2.7928460   2.7928460   2.7928460   0.0000000   0.0000000
 AtZNuc=   8.0000000   6.0000000   6.0000000   1.0000000   1.0000000   1.0000000   1.0000000   1.0000000   6.0000000   6.0000000

  Atom        41          42          43          44          45          46          47          48          49          50
 IAtWgt=          12          12           1          12           1          12           1           1           1           1
 AtmWgt=  12.0000000  12.0000000   1.0078250  12.0000000   1.0078250  12.0000000   1.0078250   1.0078250   1.0078250   1.0078250
 NucSpn=           0           0           1           0           1           0           1           1           1           1
 AtZEff=  -0.0000000  -0.0000000  -0.0000000  -0.0000000  -0.0000000  -0.0000000  -0.0000000  -0.0000000  -0.0000000  -0.0000000
 NQMom=    0.0000000   0.0000000   0.0000000   0.0000000   0.0000000   0.0000000   0.0000000   0.0000000   0.0000000   0.0000000
 NMagM=    0.0000000   0.0000000   2.7928460   0.0000000   2.7928460   0.0000000   2.7928460   2.7928460   2.7928460   2.7928460
 AtZNuc=   6.0000000   6.0000000   1.0000000   6.0000000   1.0000000   6.0000000   1.0000000   1.0000000   1.0000000   1.0000000
 Leave Link  101 at Wed Jun  9 10:31:02 2021, MaxMem=  2147483648 cpu:               6.2 elap:               0.4
 (Enter /SFS/product/gaussian/g16.a03/x86_64/avx/g16/l103.exe)

 GradGradGradGradGradGradGradGradGradGradGradGradGradGradGradGradGradGrad
 Berny optimization.
 Initialization pass.
                           ----------------------------
                           !    Initial Parameters    !
                           ! (Angstroms and Degrees)  !
 --------------------------                            --------------------------
 ! Name  Definition              Value          Derivative Info.                !
 --------------------------------------------------------------------------------
 ! R1    R(1,2)                  1.4065         estimate D2E/DX2                !
 ! R2    R(1,6)                  1.3932         estimate D2E/DX2                !
 ! R3    R(1,22)                 1.0887         estimate D2E/DX2                !
 ! R4    R(2,3)                  1.4018         estimate D2E/DX2                !
 ! R5    R(2,7)                  1.5132         estimate D2E/DX2                !
 ! R6    R(3,4)                  1.3983         estimate D2E/DX2                !
 ! R7    R(3,18)                 1.0874         estimate D2E/DX2                !
 ! R8    R(4,5)                  1.3953         estimate D2E/DX2                !
 ! R9    R(4,19)                 1.0906         estimate D2E/DX2                !
 ! R10   R(5,6)                  1.4013         estimate D2E/DX2                !
 ! R11   R(5,20)                 1.0908         estimate D2E/DX2                !
 ! R12   R(6,21)                 1.0907         estimate D2E/DX2                !
 ! R13   R(7,8)                  1.5589         estimate D2E/DX2                !
 ! R14   R(7,11)                 1.6858         Frozen                          !
 ! R15   R(7,13)                 1.3843         estimate D2E/DX2                !
 ! R16   R(8,9)                  1.5364         estimate D2E/DX2                !
 ! R17   R(8,23)                 1.0959         estimate D2E/DX2                !
 ! R18   R(8,24)                 1.5118         estimate D2E/DX2                !
 ! R19   R(9,10)                 1.5413         estimate D2E/DX2                !
 ! R20   R(9,25)                 1.096          estimate D2E/DX2                !
 ! R21   R(9,26)                 1.0956         estimate D2E/DX2                !
 ! R22   R(10,11)                1.5396         estimate D2E/DX2                !
 ! R23   R(10,27)                1.0945         estimate D2E/DX2                !
 ! R24   R(10,28)                1.098          estimate D2E/DX2                !
 ! R25   R(11,12)                1.4545         estimate D2E/DX2                !
 ! R26   R(11,29)                1.0917         estimate D2E/DX2                !
 ! R27   R(12,13)                2.3414         Frozen                          !
 ! R28   R(12,39)                1.4082         estimate D2E/DX2                !
 ! R29   R(12,50)                1.0941         estimate D2E/DX2                !
 ! R30   R(13,14)                1.8406         estimate D2E/DX2                !
 ! R31   R(14,15)                2.2591         estimate D2E/DX2                !
 ! R32   R(14,16)                2.2269         estimate D2E/DX2                !
 ! R33   R(14,17)                2.208          estimate D2E/DX2                !
 ! R34   R(24,30)                1.3433         estimate D2E/DX2                !
 ! R35   R(24,31)                1.2179         estimate D2E/DX2                !
 ! R36   R(30,32)                1.452          estimate D2E/DX2                !
 ! R37   R(32,33)                1.5181         estimate D2E/DX2                !
 ! R38   R(32,34)                1.0964         estimate D2E/DX2                !
 ! R39   R(32,35)                1.0963         estimate D2E/DX2                !
 ! R40   R(33,36)                1.0999         estimate D2E/DX2                !
 ! R41   R(33,37)                1.0984         estimate D2E/DX2                !
 ! R42   R(33,38)                1.0972         estimate D2E/DX2                !
 ! R43   R(39,40)                1.4223         estimate D2E/DX2                !
 ! R44   R(39,41)                1.4237         estimate D2E/DX2                !
 ! R45   R(40,42)                1.3852         estimate D2E/DX2                !
 ! R46   R(40,43)                1.0868         estimate D2E/DX2                !
 ! R47   R(41,44)                1.3855         estimate D2E/DX2                !
 ! R48   R(41,45)                1.0904         estimate D2E/DX2                !
 ! R49   R(42,46)                1.4043         estimate D2E/DX2                !
 ! R50   R(42,47)                1.0892         estimate D2E/DX2                !
 ! R51   R(44,46)                1.4026         estimate D2E/DX2                !
 ! R52   R(44,48)                1.0891         estimate D2E/DX2                !
 ! R53   R(46,49)                1.0912         estimate D2E/DX2                !
 ! A1    A(2,1,6)              120.5554         estimate D2E/DX2                !
 ! A2    A(2,1,22)             120.3462         estimate D2E/DX2                !
 ! A3    A(6,1,22)             119.0976         estimate D2E/DX2                !
 ! A4    A(1,2,3)              118.875          estimate D2E/DX2                !
 ! A5    A(1,2,7)              122.0684         estimate D2E/DX2                !
 ! A6    A(3,2,7)              119.0212         estimate D2E/DX2                !
 ! A7    A(2,3,4)              120.4706         estimate D2E/DX2                !
 ! A8    A(2,3,18)             119.0635         estimate D2E/DX2                !
 ! A9    A(4,3,18)             120.4652         estimate D2E/DX2                !
 ! A10   A(3,4,5)              120.347          estimate D2E/DX2                !
 ! A11   A(3,4,19)             119.4103         estimate D2E/DX2                !
 ! A12   A(5,4,19)             120.242          estimate D2E/DX2                !
 ! A13   A(4,5,6)              119.5003         estimate D2E/DX2                !
 ! A14   A(4,5,20)             120.3686         estimate D2E/DX2                !
 ! A15   A(6,5,20)             120.131          estimate D2E/DX2                !
 ! A16   A(1,6,5)              120.2449         estimate D2E/DX2                !
 ! A17   A(1,6,21)             119.6417         estimate D2E/DX2                !
 ! A18   A(5,6,21)             120.1131         estimate D2E/DX2                !
 ! A19   A(2,7,8)              118.5102         estimate D2E/DX2                !
 ! A20   A(2,7,11)             110.5317         estimate D2E/DX2                !
 ! A21   A(2,7,13)             109.7955         estimate D2E/DX2                !
 ! A22   A(8,7,11)             101.9366         estimate D2E/DX2                !
 ! A23   A(8,7,13)             109.3851         estimate D2E/DX2                !
 ! A24   A(11,7,13)            105.7594         estimate D2E/DX2                !
 ! A25   A(7,8,9)              104.0956         estimate D2E/DX2                !
 ! A26   A(7,8,23)             105.8349         estimate D2E/DX2                !
 ! A27   A(7,8,24)             113.2629         estimate D2E/DX2                !
 ! A28   A(9,8,23)             112.4628         estimate D2E/DX2                !
 ! A29   A(9,8,24)             112.4187         estimate D2E/DX2                !
 ! A30   A(23,8,24)            108.5923         estimate D2E/DX2                !
 ! A31   A(8,9,10)             105.8645         estimate D2E/DX2                !
 ! A32   A(8,9,25)             111.9481         estimate D2E/DX2                !
 ! A33   A(8,9,26)             108.6113         estimate D2E/DX2                !
 ! A34   A(10,9,25)            111.9728         estimate D2E/DX2                !
 ! A35   A(10,9,26)            110.6589         estimate D2E/DX2                !
 ! A36   A(25,9,26)            107.7641         estimate D2E/DX2                !
 ! A37   A(9,10,11)            106.7404         estimate D2E/DX2                !
 ! A38   A(9,10,27)            110.2747         estimate D2E/DX2                !
 ! A39   A(9,10,28)            111.3812         estimate D2E/DX2                !
 ! A40   A(11,10,27)           108.7054         estimate D2E/DX2                !
 ! A41   A(11,10,28)           111.6238         estimate D2E/DX2                !
 ! A42   A(27,10,28)           108.0939         estimate D2E/DX2                !
 ! A43   A(7,11,10)            105.2998         estimate D2E/DX2                !
 ! A44   A(7,11,12)             98.3748         estimate D2E/DX2                !
 ! A45   A(7,11,29)            107.9655         estimate D2E/DX2                !
 ! A46   A(10,11,12)           116.1541         estimate D2E/DX2                !
 ! A47   A(10,11,29)           113.5532         estimate D2E/DX2                !
 ! A48   A(12,11,29)           113.6011         estimate D2E/DX2                !
 ! A49   A(11,12,39)           126.8122         estimate D2E/DX2                !
 ! A50   A(11,12,50)           116.6754         estimate D2E/DX2                !
 ! A51   A(39,12,50)           116.1451         estimate D2E/DX2                !
 ! A52   A(7,13,14)            154.618          estimate D2E/DX2                !
 ! A53   A(13,14,15)           104.0095         estimate D2E/DX2                !
 ! A54   A(13,14,16)           103.3556         estimate D2E/DX2                !
 ! A55   A(13,14,17)           109.6535         estimate D2E/DX2                !
 ! A56   A(15,14,16)           109.7548         estimate D2E/DX2                !
 ! A57   A(15,14,17)           112.2992         estimate D2E/DX2                !
 ! A58   A(16,14,17)           116.6465         estimate D2E/DX2                !
 ! A59   A(8,24,30)            111.0617         estimate D2E/DX2                !
 ! A60   A(8,24,31)            125.0209         estimate D2E/DX2                !
 ! A61   A(30,24,31)           123.9054         estimate D2E/DX2                !
 ! A62   A(24,30,32)           116.958          estimate D2E/DX2                !
 ! A63   A(30,32,33)           111.1796         estimate D2E/DX2                !
 ! A64   A(30,32,34)           108.5334         estimate D2E/DX2                !
 ! A65   A(30,32,35)           103.8151         estimate D2E/DX2                !
 ! A66   A(33,32,34)           111.6447         estimate D2E/DX2                !
 ! A67   A(33,32,35)           111.8431         estimate D2E/DX2                !
 ! A68   A(34,32,35)           109.4989         estimate D2E/DX2                !
 ! A69   A(32,33,36)           109.3783         estimate D2E/DX2                !
 ! A70   A(32,33,37)           110.6881         estimate D2E/DX2                !
 ! A71   A(32,33,38)           110.8437         estimate D2E/DX2                !
 ! A72   A(36,33,37)           108.3656         estimate D2E/DX2                !
 ! A73   A(36,33,38)           108.376          estimate D2E/DX2                !
 ! A74   A(37,33,38)           109.1228         estimate D2E/DX2                !
 ! A75   A(12,39,40)           122.8074         estimate D2E/DX2                !
 ! A76   A(12,39,41)           117.2662         estimate D2E/DX2                !
 ! A77   A(40,39,41)           119.5896         estimate D2E/DX2                !
 ! A78   A(39,40,42)           119.7915         estimate D2E/DX2                !
 ! A79   A(39,40,43)           120.0723         estimate D2E/DX2                !
 ! A80   A(42,40,43)           120.1363         estimate D2E/DX2                !
 ! A81   A(39,41,44)           120.0776         estimate D2E/DX2                !
 ! A82   A(39,41,45)           118.8278         estimate D2E/DX2                !
 ! A83   A(44,41,45)           120.9919         estimate D2E/DX2                !
 ! A84   A(40,42,46)           119.7633         estimate D2E/DX2                !
 ! A85   A(40,42,47)           120.1435         estimate D2E/DX2                !
 ! A86   A(46,42,47)           120.0885         estimate D2E/DX2                !
 ! A87   A(41,44,46)           119.466          estimate D2E/DX2                !
 ! A88   A(41,44,48)           120.219          estimate D2E/DX2                !
 ! A89   A(46,44,48)           120.3028         estimate D2E/DX2                !
 ! A90   A(42,46,44)           121.3052         estimate D2E/DX2                !
 ! A91   A(42,46,49)           119.3098         estimate D2E/DX2                !
 ! A92   A(44,46,49)           119.3838         estimate D2E/DX2                !
 ! D1    D(6,1,2,3)              0.8428         estimate D2E/DX2                !
 ! D2    D(6,1,2,7)            178.6573         estimate D2E/DX2                !
 ! D3    D(22,1,2,3)          -178.8337         estimate D2E/DX2                !
 ! D4    D(22,1,2,7)            -1.0193         estimate D2E/DX2                !
 ! D5    D(2,1,6,5)             -0.2994         estimate D2E/DX2                !
 ! D6    D(2,1,6,21)           179.916          estimate D2E/DX2                !
 ! D7    D(22,1,6,5)           179.3811         estimate D2E/DX2                !
 ! D8    D(22,1,6,21)           -0.4035         estimate D2E/DX2                !
 ! D9    D(1,2,3,4)             -1.0083         estimate D2E/DX2                !
 ! D10   D(1,2,3,18)           178.6782         estimate D2E/DX2                !
 ! D11   D(7,2,3,4)           -178.8904         estimate D2E/DX2                !
 ! D12   D(7,2,3,18)             0.7961         estimate D2E/DX2                !
 ! D13   D(1,2,7,8)             63.4109         estimate D2E/DX2                !
 ! D14   D(1,2,7,11)           -53.6393         estimate D2E/DX2                !
 ! D15   D(1,2,7,13)          -169.9371         estimate D2E/DX2                !
 ! D16   D(3,2,7,8)           -118.7778         estimate D2E/DX2                !
 ! D17   D(3,2,7,11)           124.1721         estimate D2E/DX2                !
 ! D18   D(3,2,7,13)             7.8743         estimate D2E/DX2                !
 ! D19   D(2,3,4,5)              0.6344         estimate D2E/DX2                !
 ! D20   D(2,3,4,19)          -179.6652         estimate D2E/DX2                !
 ! D21   D(18,3,4,5)          -179.0476         estimate D2E/DX2                !
 ! D22   D(18,3,4,19)            0.6527         estimate D2E/DX2                !
 ! D23   D(3,4,5,6)             -0.0757         estimate D2E/DX2                !
 ! D24   D(3,4,5,20)           179.7868         estimate D2E/DX2                !
 ! D25   D(19,4,5,6)          -179.7736         estimate D2E/DX2                !
 ! D26   D(19,4,5,20)            0.089          estimate D2E/DX2                !
 ! D27   D(4,5,6,1)             -0.0905         estimate D2E/DX2                !
 ! D28   D(4,5,6,21)           179.6931         estimate D2E/DX2                !
 ! D29   D(20,5,6,1)          -179.9533         estimate D2E/DX2                !
 ! D30   D(20,5,6,21)           -0.1697         estimate D2E/DX2                !
 ! D31   D(2,7,8,9)           -156.3614         estimate D2E/DX2                !
 ! D32   D(2,7,8,23)            84.9072         estimate D2E/DX2                !
 ! D33   D(2,7,8,24)           -33.9525         estimate D2E/DX2                !
 ! D34   D(11,7,8,9)           -34.8426         estimate D2E/DX2                !
 ! D35   D(11,7,8,23)         -153.5739         estimate D2E/DX2                !
 ! D36   D(11,7,8,24)           87.5663         estimate D2E/DX2                !
 ! D37   D(13,7,8,9)            76.791          estimate D2E/DX2                !
 ! D38   D(13,7,8,23)          -41.9404         estimate D2E/DX2                !
 ! D39   D(13,7,8,24)         -160.8002         estimate D2E/DX2                !
 ! D40   D(2,7,11,10)          143.9441         estimate D2E/DX2                !
 ! D41   D(2,7,11,12)          -95.9115         estimate D2E/DX2                !
 ! D42   D(2,7,11,29)           22.3282         estimate D2E/DX2                !
 ! D43   D(8,7,11,10)           17.0649         estimate D2E/DX2                !
 ! D44   D(8,7,11,12)          137.2093         estimate D2E/DX2                !
 ! D45   D(8,7,11,29)         -104.551          estimate D2E/DX2                !
 ! D46   D(13,7,11,10)         -97.2757         estimate D2E/DX2                !
 ! D47   D(13,7,11,12)          22.8687         estimate D2E/DX2                !
 ! D48   D(13,7,11,29)         141.1084         estimate D2E/DX2                !
 ! D49   D(2,7,13,14)         -139.7007         estimate D2E/DX2                !
 ! D50   D(8,7,13,14)           -8.0623         estimate D2E/DX2                !
 ! D51   D(11,7,13,14)         101.0318         estimate D2E/DX2                !
 ! D52   D(7,8,9,10)            41.352          estimate D2E/DX2                !
 ! D53   D(7,8,9,25)           163.6212         estimate D2E/DX2                !
 ! D54   D(7,8,9,26)           -77.5108         estimate D2E/DX2                !
 ! D55   D(23,8,9,10)          155.4472         estimate D2E/DX2                !
 ! D56   D(23,8,9,25)          -82.2836         estimate D2E/DX2                !
 ! D57   D(23,8,9,26)           36.5844         estimate D2E/DX2                !
 ! D58   D(24,8,9,10)          -81.611          estimate D2E/DX2                !
 ! D59   D(24,8,9,25)           40.6582         estimate D2E/DX2                !
 ! D60   D(24,8,9,26)          159.5262         estimate D2E/DX2                !
 ! D61   D(7,8,24,30)           95.1357         estimate D2E/DX2                !
 ! D62   D(7,8,24,31)          -83.6422         estimate D2E/DX2                !
 ! D63   D(9,8,24,30)         -147.2109         estimate D2E/DX2                !
 ! D64   D(9,8,24,31)           34.0112         estimate D2E/DX2                !
 ! D65   D(23,8,24,30)         -22.1212         estimate D2E/DX2                !
 ! D66   D(23,8,24,31)         159.1009         estimate D2E/DX2                !
 ! D67   D(8,9,10,11)          -29.8024         estimate D2E/DX2                !
 ! D68   D(8,9,10,27)           88.1104         estimate D2E/DX2                !
 ! D69   D(8,9,10,28)         -151.8771         estimate D2E/DX2                !
 ! D70   D(25,9,10,11)        -152.0558         estimate D2E/DX2                !
 ! D71   D(25,9,10,27)         -34.1431         estimate D2E/DX2                !
 ! D72   D(25,9,10,28)          85.8695         estimate D2E/DX2                !
 ! D73   D(26,9,10,11)          87.6968         estimate D2E/DX2                !
 ! D74   D(26,9,10,27)        -154.3904         estimate D2E/DX2                !
 ! D75   D(26,9,10,28)         -34.3779         estimate D2E/DX2                !
 ! D76   D(9,10,11,7)            7.1876         estimate D2E/DX2                !
 ! D77   D(9,10,11,12)        -100.424          estimate D2E/DX2                !
 ! D78   D(9,10,11,29)         125.098          estimate D2E/DX2                !
 ! D79   D(27,10,11,7)        -111.7513         estimate D2E/DX2                !
 ! D80   D(27,10,11,12)        140.6371         estimate D2E/DX2                !
 ! D81   D(27,10,11,29)          6.1591         estimate D2E/DX2                !
 ! D82   D(28,10,11,7)         129.1093         estimate D2E/DX2                !
 ! D83   D(28,10,11,12)         21.4977         estimate D2E/DX2                !
 ! D84   D(28,10,11,29)       -112.9803         estimate D2E/DX2                !
 ! D85   D(7,11,12,39)          80.5224         estimate D2E/DX2                !
 ! D86   D(7,11,12,50)         -92.2112         estimate D2E/DX2                !
 ! D87   D(10,11,12,39)       -167.7971         estimate D2E/DX2                !
 ! D88   D(10,11,12,50)         19.4693         estimate D2E/DX2                !
 ! D89   D(29,11,12,39)        -33.3404         estimate D2E/DX2                !
 ! D90   D(29,11,12,50)        153.926          estimate D2E/DX2                !
 ! D91   D(11,12,39,40)          9.506          estimate D2E/DX2                !
 ! D92   D(11,12,39,41)       -163.7938         estimate D2E/DX2                !
 ! D93   D(50,12,39,40)       -177.7269         estimate D2E/DX2                !
 ! D94   D(50,12,39,41)          8.9733         estimate D2E/DX2                !
 ! D95   D(7,13,14,15)         -85.5041         estimate D2E/DX2                !
 ! D96   D(7,13,14,16)         159.8332         estimate D2E/DX2                !
 ! D97   D(7,13,14,17)          34.7857         estimate D2E/DX2                !
 ! D98   D(8,24,30,32)        -177.3404         estimate D2E/DX2                !
 ! D99   D(31,24,30,32)          1.4538         estimate D2E/DX2                !
 ! D100  D(24,30,32,33)        -85.2973         estimate D2E/DX2                !
 ! D101  D(24,30,32,34)         37.8711         estimate D2E/DX2                !
 ! D102  D(24,30,32,35)        154.2927         estimate D2E/DX2                !
 ! D103  D(30,32,33,36)       -175.7775         estimate D2E/DX2                !
 ! D104  D(30,32,33,37)        -56.4469         estimate D2E/DX2                !
 ! D105  D(30,32,33,38)         64.7831         estimate D2E/DX2                !
 ! D106  D(34,32,33,36)         62.8566         estimate D2E/DX2                !
 ! D107  D(34,32,33,37)       -177.8128         estimate D2E/DX2                !
 ! D108  D(34,32,33,38)        -56.5828         estimate D2E/DX2                !
 ! D109  D(35,32,33,36)        -60.2332         estimate D2E/DX2                !
 ! D110  D(35,32,33,37)         59.0974         estimate D2E/DX2                !
 ! D111  D(35,32,33,38)       -179.6726         estimate D2E/DX2                !
 ! D112  D(12,39,40,42)       -172.9845         estimate D2E/DX2                !
 ! D113  D(12,39,40,43)          6.9947         estimate D2E/DX2                !
 ! D114  D(41,39,40,42)          0.1658         estimate D2E/DX2                !
 ! D115  D(41,39,40,43)       -179.855          estimate D2E/DX2                !
 ! D116  D(12,39,41,44)        172.6918         estimate D2E/DX2                !
 ! D117  D(12,39,41,45)         -3.6607         estimate D2E/DX2                !
 ! D118  D(40,39,41,44)         -0.8331         estimate D2E/DX2                !
 ! D119  D(40,39,41,45)       -177.1856         estimate D2E/DX2                !
 ! D120  D(39,40,42,46)          0.4334         estimate D2E/DX2                !
 ! D121  D(39,40,42,47)        179.6427         estimate D2E/DX2                !
 ! D122  D(43,40,42,46)       -179.5458         estimate D2E/DX2                !
 ! D123  D(43,40,42,47)         -0.3365         estimate D2E/DX2                !
 ! D124  D(39,41,44,46)          0.8825         estimate D2E/DX2                !
 ! D125  D(39,41,44,48)       -177.8522         estimate D2E/DX2                !
 ! D126  D(45,41,44,46)        177.1548         estimate D2E/DX2                !
 ! D127  D(45,41,44,48)         -1.5799         estimate D2E/DX2                !
 ! D128  D(40,42,46,44)         -0.3881         estimate D2E/DX2                !
 ! D129  D(40,42,46,49)        179.2195         estimate D2E/DX2                !
 ! D130  D(47,42,46,44)       -179.5979         estimate D2E/DX2                !
 ! D131  D(47,42,46,49)          0.0098         estimate D2E/DX2                !
 ! D132  D(41,44,46,42)         -0.2793         estimate D2E/DX2                !
 ! D133  D(41,44,46,49)       -179.8866         estimate D2E/DX2                !
 ! D134  D(48,44,46,42)        178.4544         estimate D2E/DX2                !
 ! D135  D(48,44,46,49)         -1.1529         estimate D2E/DX2                !
 --------------------------------------------------------------------------------
 Trust Radius=3.00D-01 FncErr=1.00D-07 GrdErr=1.00D-06 EigMax=2.50D+02 EigMin=1.00D-04
 Number of steps in this run=    290 maximum allowed number of steps=    300.
 GradGradGradGradGradGradGradGradGradGradGradGradGradGradGradGradGradGrad

 Leave Link  103 at Wed Jun  9 10:31:02 2021, MaxMem=  2147483648 cpu:               0.3 elap:               0.0
 (Enter /SFS/product/gaussian/g16.a03/x86_64/avx/g16/l202.exe)
                          Input orientation:                          
 ---------------------------------------------------------------------
 Center     Atomic      Atomic             Coordinates (Angstroms)
 Number     Number       Type             X           Y           Z
 ---------------------------------------------------------------------
      1          6           0        2.069795    2.134128    0.009806
      2          6           0        1.038505    1.270646    0.420942
      3          6           0        0.302882    1.593579    1.569646
      4          6           0        0.604849    2.743955    2.304875
      5          6           0        1.634661    3.591956    1.895805
      6          6           0        2.366775    3.281689    0.741913
      7          6           0        0.667350    0.031484   -0.364197
      8          6           0        1.727624   -1.101820   -0.510782
      9          6           0        1.300856   -1.851317   -1.782311
     10          6           0        0.887050   -0.764125   -2.793367
     11          6           0        0.351316    0.423512   -1.973046
     12          6           0       -1.095751    0.539380   -1.882540
     13          8           0       -0.510055   -0.502107    0.131021
     14         26           0       -1.629780   -1.870303    0.643104
     15         17           0       -2.650737   -2.488367   -1.274971
     16         17           0       -3.094084   -0.862041    1.984126
     17         17           0       -0.443432   -3.509574    1.526606
     18          1           0       -0.509278    0.939563    1.878010
     19          1           0        0.024928    2.975708    3.198909
     20          1           0        1.868261    4.491321    2.467179
     21          1           0        3.170585    3.940192    0.410262
     22          1           0        2.643778    1.916430   -0.889359
     23          1           0        1.632937   -1.718281    0.390333
     24          6           0        3.145936   -0.585331   -0.594597
     25          1           0        2.103311   -2.488661   -2.170952
     26          1           0        0.449672   -2.496730   -1.538707
     27          1           0        1.756552   -0.429974   -3.368097
     28          1           0        0.135196   -1.139834   -3.499854
     29          1           0        0.852450    1.367895   -2.194220
     30          8           0        3.735116   -0.594327    0.612607
     31          8           0        3.686292   -0.188412   -1.611362
     32          6           0        5.085506   -0.066251    0.689971
     33          6           0        6.111205   -1.130234    0.343017
     34          1           0        5.159722    0.800107    0.022065
     35          1           0        5.177744    0.265212    1.730895
     36          1           0        7.122677   -0.721793    0.483904
     37          1           0        5.997664   -2.006245    0.995892
     38          1           0        6.008097   -1.445625   -0.702849
     39          6           0       -1.825521    1.645463   -1.405994
     40          6           0       -1.222423    2.901640   -1.120743
     41          6           0       -3.192599    1.430009   -1.072091
     42          6           0       -1.967700    3.901970   -0.518444
     43          1           0       -0.180034    3.075421   -1.374444
     44          6           0       -3.923763    2.433622   -0.457366
     45          1           0       -3.629638    0.447670   -1.253607
     46          6           0       -3.311250    3.665718   -0.185302
     47          1           0       -1.510031    4.864116   -0.292133
     48          1           0       -4.959488    2.259365   -0.169334
     49          1           0       -3.887806    4.454557    0.300567
     50          1           0       -1.675371   -0.362090   -2.102404
 ---------------------------------------------------------------------
                    Distance matrix (angstroms):
                    1          2          3          4          5
     1  C    0.000000
     2  C    1.406483   0.000000
     3  C    2.418114   1.401766   0.000000
     4  C    2.790215   2.430617   1.398253   0.000000
     5  C    2.423138   2.814090   2.423536   1.395334   0.000000
     6  C    1.393224   2.431382   2.791865   2.415862   1.401329
     7  C    2.554964   1.513183   2.512514   3.805963   4.326692
     8  C    3.295368   2.640377   3.690968   4.896788   5.275589
     9  C    4.436972   3.830118   4.909061   6.189187   6.577932
    10  C    4.201968   3.807232   4.993586   6.195025   6.443811
    11  C    3.132264   2.630788   3.731229   4.873330   5.162753
    12  C    4.018069   3.224256   3.871059   5.028582   5.572186
    13  O    3.690536   2.371655   2.668784   4.062705   4.947284
    14  Fe   5.488478   4.127307   4.073345   5.389474   6.485531
    15  Cl   6.730641   5.533246   5.786017   7.126804   8.086333
    16  Cl   6.288133   4.906138   4.212035   5.175731   6.496685
    17  Cl   6.361475   5.125342   5.157616   6.388366   7.408543
    18  H    3.401292   2.151347   1.087396   2.163174   3.410569
    19  H    3.880737   3.413455   2.154539   1.090557   2.160806
    20  H    3.411108   3.904911   3.413632   2.162369   1.090823
    21  H    2.152666   3.416483   3.882587   3.406397   2.164987
    22  H    1.088736   2.170444   3.410386   3.878809   3.403358
    23  H    3.895729   3.047617   3.758755   4.963264   5.519517
    24  C    2.986443   2.986174   4.185039   5.093938   5.092718
    25  H    5.111458   4.688722   5.822225   7.046892   7.330215
    26  H    5.144661   4.287198   5.139458   6.500922   7.090287
    27  H    4.252407   4.214797   5.530753   6.601731   6.625665
    28  H    5.174864   4.690312   5.761900   6.999948   7.331532
    29  H    2.631876   2.623575   3.810465   4.711338   4.720869
    30  O    3.252865   3.284291   4.181278   4.879187   4.856282
    31  O    3.261202   3.642785   4.974110   5.781953   5.549828
    32  C    3.794576   4.270584   5.138322   5.530051   5.171542
    33  C    5.205774   5.612716   6.531492   7.012716   6.689520
    34  H    3.365622   4.167126   5.158827   5.453131   4.871486
    35  H    4.014267   4.456476   5.055179   5.233067   4.862906
    36  H    5.823459   6.402416   7.283501   7.603251   7.121813
    37  H    5.791650   5.971754   6.761543   7.304813   7.154404
    38  H    5.369612   5.773896   6.852041   7.469543   7.159411
    39  C    4.173340   3.417723   3.658856   4.569894   5.163678
    40  C    3.564536   3.185707   3.357942   3.885698   4.211772
    41  C    5.418402   4.489631   4.384509   5.248901   6.065052
    42  C    4.439108   4.104093   3.852834   3.991258   4.347610
    43  H    2.804267   2.822315   3.331175   3.776678   3.775507
    44  C    6.019193   5.171851   4.762245   5.313625   6.146156
    45  H    6.076503   5.027222   4.974794   5.988873   6.893343
    46  C    5.598168   5.002426   4.520570   4.731433   5.366422
    47  H    4.512112   4.462795   4.177234   3.963868   4.036651
    48  H    7.032680   6.107529   5.582102   6.108877   7.037286
    49  H    6.400152   5.866883   5.230451   5.208393   5.812616
    50  H    4.971801   4.049472   4.606743   5.854146   6.525065
                    6          7          8          9         10
     6  C    0.000000
     7  C    3.830843   0.000000
     8  C    4.603576   1.558861   0.000000
     9  C    5.818560   2.440762   1.536445   0.000000
    10  C    5.572827   2.565566   2.455768   1.541251   0.000000
    11  C    4.427443   1.685811   2.521721   2.472418   1.539617
    12  C    5.137811   2.381564   3.542133   3.386621   2.541698
    13  O    4.792333   1.384284   2.403908   2.959832   3.251554
    14  Fe   6.521138   3.147738   3.632379   3.804159   4.400840
    15  Cl   7.908021   4.264840   4.655807   4.034639   4.218350
    16  Cl   6.966676   4.523427   5.434237   5.871985   6.219602
    17  Cl   7.391499   4.165101   3.829062   4.091612   5.288652
    18  H    3.879169   2.690084   3.857111   4.946064   5.164692
    19  H    3.408035   4.666571   5.769507   7.052710   7.115966
    20  H    2.165241   5.417474   6.338080   7.655663   7.500389
    21  H    1.090747   4.705738   5.324692   6.468759   6.132566
    22  H    2.145160   2.781202   3.176868   4.098380   3.727830
    23  H    5.065750   2.136200   1.095901   2.201899   3.406275
    24  C    4.164996   2.564553   1.511752   2.533319   3.157392
    25  H    6.469245   3.417233   2.195594   1.095985   2.200163
    26  H    6.501280   2.796198   2.153036   1.095635   2.183436
    27  H    5.571445   3.228424   2.935381   2.177749   1.094534
    28  H    6.520920   3.389324   3.387008   2.194294   1.097983
    29  H    3.817940   2.273596   3.114384   3.276288   2.214878
    30  O    4.112490   3.279783   2.355754   3.638857   4.443081
    31  O    4.395524   3.273803   2.425277   2.912865   3.092626
    32  C    4.313108   4.543228   3.713433   4.860269   5.499791
    33  C    5.800426   5.611176   4.466046   5.308148   6.104321
    34  H    3.804863   4.573990   3.959867   5.017636   5.350627
    35  H    4.240137   4.978724   4.335576   5.643808   6.319694
    36  H    6.221980   6.554231   5.499129   6.348634   7.044526
    37  H    6.419510   5.866381   4.617499   5.459159   6.482262
    38  H    6.139549   5.551587   4.298551   4.846436   5.573135
    39  C    4.986591   3.147169   4.579717   4.705669   3.884451
    40  C    4.061560   3.518721   5.010242   5.421735   4.548118
    41  C    6.134001   4.166076   5.561818   5.609158   4.941715
    42  C    4.556415   4.684863   6.220401   6.736552   5.924299
    43  H    3.317793   3.317260   4.672731   5.160633   4.230145
    44  C    6.459749   5.182400   6.666362   6.885697   6.231084
    45  H    6.926091   4.407762   5.626097   5.465770   4.923391
    46  C    5.766036   5.391560   6.944466   7.366114   6.637110
    47  H    4.313114   5.300992   6.791363   7.430932   6.609029
    48  H    7.453164   6.054976   7.492104   7.661025   7.085834
    49  H    6.378886   6.383959   7.941327   8.427612   7.720513
    50  H    6.140538   2.943570   3.828947   3.343379   2.684225
                   11         12         13         14         15
    11  C    0.000000
    12  C    1.454517   0.000000
    13  O    2.454756   2.341402   0.000000
    14  Fe   4.003819   3.531379   1.840645   0.000000
    15  Cl   4.240126   3.457510   3.241074   2.259064   0.000000
    16  Cl   5.402096   4.572573   3.200118   2.226908   3.669224
    17  Cl   5.324317   5.333088   3.316166   2.207987   3.709972
    18  H    3.979644   3.826987   2.265035   3.267394   5.126192
    19  H    5.776621   5.745671   4.668334   5.723113   7.551881
    20  H    6.209975   6.582041   6.004027   7.485573   9.118173
    21  H    5.098576   5.918115   5.775734   7.540529   8.834827
    22  H    2.942544   4.106915   4.103311   5.911944   6.898030
    23  H    3.437352   4.208173   2.477647   3.276023   4.660057
    24  C    3.275330   4.573366   3.728233   5.098090   6.138882
    25  H    3.404321   4.414319   4.009384   4.715638   4.837743
    26  H    2.954004   3.424108   2.772650   3.078446   3.111617
    27  H    2.156222   3.358893   4.169717   5.443485   5.295503
    28  H    2.195883   2.636417   3.742499   4.562108   3.811833
    29  H    1.091747   2.139876   3.280255   4.969688   5.290378
    30  O    4.378550   5.554127   4.273395   5.514631   6.923110
    31  O    3.409887   4.844704   4.554518   6.014316   6.749881
    32  C    5.453814   6.722540   5.640275   6.953551   8.341289
    33  C    6.399578   7.725343   6.654365   7.782069   9.012993
    34  H    5.219488   6.544191   5.818419   7.322166   8.573193
    35  H    6.085938   7.244917   5.958140   7.217070   8.826242
    36  H    7.293809   8.644835   7.644043   8.828925  10.086330
    37  H    6.826387   8.067349   6.735046   7.636808   8.954558
    38  H    6.091490   7.469710   6.638665   7.767181   8.740140
    39  C    2.559948   1.408219   2.950411   4.074031   4.217428
    40  C    3.056827   2.485287   3.695927   5.103777   5.578176
    41  C    3.792636   2.418020   3.518038   4.034397   3.960864
    42  C    4.426440   3.732032   4.684275   5.897671   6.471111
    43  H    2.770068   2.743757   3.895388   5.534659   6.088514
    44  C    4.961263   3.690112   4.540716   4.999716   5.149277
    45  H    4.045512   2.612384   3.542749   3.601381   3.094999
    46  C    5.207909   4.190828   5.031652   5.844752   6.284618
    47  H    5.099906   4.626485   5.474976   6.800103   7.505077
    48  H    5.901557   4.563101   5.245321   5.366672   5.393860
    49  H    6.276049   5.281111   6.000539   6.724572   7.226123
    50  H    2.177467   1.094051   2.523044   3.132826   2.481338
                   16         17         18         19         20
    16  Cl   0.000000
    17  Cl   3.774217   0.000000
    18  H    3.152501   4.463479   0.000000
    19  H    5.092372   6.713780   2.485163   0.000000
    20  H    7.315510   8.381105   4.314487   2.496075   0.000000
    21  H    8.048886   8.355020   4.969854   4.312997   2.496137
    22  H    6.992845   6.693973   4.307478   4.969344   4.300911
    23  H    5.061428   2.968359   3.723762   5.701520   6.551933
    24  C    6.757531   5.092569   4.669012   6.067320   6.064596
    25  H    6.850072   4.604356   5.913750   7.938162   8.383773
    26  H    5.257449   3.349572   4.939803   7.250723   8.178776
    27  H    7.236135   6.187244   5.876330   7.597550   7.634269
    28  H    6.370201   5.587108   5.801781   7.862778   8.385637
    29  H    6.164927   6.270053   4.315186   5.688207   5.702307
    30  O    6.970704   5.176323   4.687104   5.761910   5.726116
    31  O    7.704207   6.158862   5.572329   6.823192   6.468356
    32  C    8.319484   6.567007   5.807298   6.415429   5.854963
    33  C    9.354278   7.072864   7.104299   7.877668   7.356393
    34  H    8.645099   7.227194   5.966703   6.418075   5.517006
    35  H    8.352123   6.774095   5.728753   6.004446   5.418006
    36  H   10.327272   8.130495   7.934127   8.451083   7.662821
    37  H    9.216599   6.635463   7.196958   8.083731   7.838049
    38  H    9.508423   7.131100   7.404467   8.400608   7.901560
    39  C    4.403378   6.089722   3.607696   5.137981   6.061716
    40  C    5.225765   6.979896   3.653880   4.496750   4.995258
    41  C    3.821474   6.221786   4.017940   5.566247   6.892776
    42  C    5.497945   7.838151   4.079932   4.318245   4.896517
    43  H    5.939300   7.200530   3.904965   4.579029   4.578029
    44  C    4.184572   7.167317   4.398284   5.408730   6.806955
    45  H    3.533423   5.791483   4.448104   6.290606   7.773175
    46  C    5.025354   7.914532   4.420433   4.801987   5.877466
    47  H    6.362346   8.635052   4.594904   4.255533   4.377857
    48  H    4.226145   7.520082   5.073250   6.058268   7.651862
    49  H    5.632990   8.763234   5.124252   5.088897   6.150436
    50  H    4.354587   4.959238   4.347156   6.491212   7.549438
                   21         22         23         24         25
    21  H    0.000000
    22  H    2.462144   0.000000
    23  H    5.863708   3.983784   0.000000
    24  C    4.635807   2.568629   2.131391   0.000000
    25  H    7.009414   4.619460   2.715680   2.682280   0.000000
    26  H    7.255054   4.971090   2.393177   3.437242   1.770401
    27  H    5.947591   3.526602   3.975023   3.105934   2.406572
    28  H    7.092902   4.737976   4.208490   4.220491   2.731079
    29  H    4.332873   2.283070   4.100434   3.410860   4.054407
    30  O    4.574003   3.122630   2.394125   1.343337   3.741589
    31  O    4.625828   2.457333   3.250161   1.217925   2.847826
    32  C    4.449353   3.519566   3.839169   2.383588   4.790244
    33  C    5.861825   4.777443   4.516959   3.157350   4.922253
    34  H    3.737311   2.899456   4.349266   2.520921   4.996696
    35  H    4.390699   4.001654   4.277500   3.203058   5.679821
    36  H    6.112165   5.376487   5.580232   4.122651   5.946774
    37  H    6.610253   5.494552   4.415933   3.561040   5.042580
    38  H    6.188499   4.759920   4.517899   2.990617   4.300070
    39  C    5.790133   4.507213   5.148058   5.509101   5.754291
    40  C    4.766664   3.996459   5.637384   5.614121   6.420186
    41  C    6.999179   5.859462   5.944427   6.668330   6.679082
    42  C    5.221679   5.034449   6.736296   6.803745   7.755261
    43  H    3.893540   3.090709   5.420413   5.007129   6.066885
    44  C    7.304266   6.602022   6.988119   7.688534   7.968116
    45  H    7.823631   6.453346   5.923561   6.885477   6.506171
    46  C    6.514923   6.246444   7.332379   7.741718   8.434255
    47  H    4.822360   5.128319   7.326115   7.173980   8.405328
    48  H    8.322211   7.644978   7.719777   8.600642   8.742617
    49  H    7.077958   7.107714   8.281944   8.699156   9.497903
    50  H    6.950281   5.031717   4.358657   5.056513   4.336524
                   26         27         28         29         30
    26  H    0.000000
    27  H    3.053864   0.000000
    28  H    2.405444   1.774840   0.000000
    29  H    3.940464   2.329747   2.916820   0.000000
    30  O    4.363649   4.448340   5.492662   4.476422   0.000000
    31  O    3.976094   2.620757   4.133024   3.285190   2.261236
    32  C    5.689041   5.261382   6.573643   5.319219   1.452034
    33  C    6.120552   5.764177   7.104958   6.350805   2.450648
    34  H    5.957324   4.958615   6.435305   4.877181   2.079108
    35  H    6.377561   6.179608   7.400147   5.943955   2.017561
    36  H    7.195162   6.611987   8.054190   7.131262   3.392401
    37  H    6.119231   6.286180   7.438476   6.930719   2.694354
    38  H    5.718354   5.119641   6.512120   6.059767   2.760720
    39  C    4.727777   4.581324   3.998317   2.805329   6.325511
    40  C    5.666833   5.002454   4.882296   2.794606   6.309000
    41  C    5.376165   5.764137   4.855136   4.198268   7.411436
    42  C    6.915778   6.384067   6.223405   4.145239   7.349699
    43  H    5.610025   4.473568   4.731291   2.157244   5.722222
    44  C    6.678668   6.995607   6.204955   5.192749   8.304923
    45  H    5.039002   5.852552   4.662593   4.671261   7.668645
    46  C    7.345203   7.251724   6.779202   5.162571   8.272600
    47  H    7.718577   6.939705   7.003118   4.628478   7.623957
    48  H    7.331755   7.910109   6.971565   6.218803   9.184287
    49  H    8.397442   8.317242   7.869241   6.182352   9.148636
    50  H    3.064351   3.658508   2.415762   3.064500   6.057936
                   31         32         33         34         35
    31  O    0.000000
    32  C    2.696082   0.000000
    33  C    3.253741   1.518056   0.000000
    34  H    2.411690   1.096441   2.175901   0.000000
    35  H    3.687938   1.096311   2.178262   1.790681   0.000000
    36  H    4.059973   2.149945   1.099886   2.526394   2.512355
    37  H    3.929978   2.165455   1.098423   3.086438   2.524285
    38  H    2.792268   2.166517   1.097241   2.507699   3.088618
    39  C    5.812517   7.421949   8.588082   7.179666   7.796851
    40  C    5.821049   7.202571   8.495923   6.815734   7.486303
    41  C    7.087259   8.594805   9.752853   8.447202   8.903714
    42  C    7.063520   8.182589   9.556877   7.791909   8.327239
    43  H    5.065295   6.469762   7.759955   5.969949   6.800455
    44  C    8.131402   9.419802  10.679057   9.241641   9.608742
    45  H    7.352239   8.944012   9.996150   8.888442   9.301103
    46  C    8.115021   9.230342  10.585978   8.944948   9.343354
    47  H    7.366830   8.293018   9.716938   7.816681   8.364741
    48  H    9.100581  10.346439  11.589311  10.225677  10.504808
    49  H    9.087332  10.055330  11.453031   9.761677  10.088639
    50  H    5.386902   7.320815   8.197615   7.251384   7.877365
                   36         37         38         39         40
    36  H    0.000000
    37  H    1.782583   0.000000
    38  H    1.781742   1.788889   0.000000
    39  C    9.447003   8.961376   8.450728   0.000000
    40  C    9.238228   8.983158   8.447116   1.422349   0.000000
    41  C   10.651586  10.027229   9.646679   1.423662   2.459605
    42  C   10.247870  10.032310   9.604380   2.428947   1.385230
    43  H    8.438121   8.343008   7.693105   2.180230   1.086802
    44  C   11.526772  10.966271  10.665396   2.433867   2.820700
    45  H   10.954399  10.186603   9.837369   2.170891   3.440103
    46  C   11.338647  10.964591  10.641612   2.789070   2.412895
    47  H   10.311560  10.257990   9.823633   3.420519   2.149564
    48  H   12.461651  11.815767  11.588767   3.424610   3.909393
    49  H   12.167948  11.829960  11.564942   3.880255   3.396460
    50  H    9.177365   8.436714   7.884699   2.130211   3.438132
                   41         42         43         44         45
    41  C    0.000000
    42  C    2.813804   0.000000
    43  H    3.445917   2.147480   0.000000
    44  C    1.385542   2.446622   3.907486   0.000000
    45  H    1.090386   3.903164   4.338138   2.159749   0.000000
    46  C    2.408084   1.404253   3.401033   1.402587   3.405654
    47  H    3.902878   1.089221   2.477846   3.429388   4.992210
    48  H    2.150511   3.430864   4.996140   1.089061   2.495273
    49  H    3.393434   2.159384   4.295958   2.158688   4.305491
    50  H    2.564204   4.558135   3.818696   3.946824   2.279326
                   46         47         48         49         50
    46  C    0.000000
    47  H    2.166093   0.000000
    48  H    2.166742   4.324183   0.000000
    49  H    1.091216   2.484521   2.487605   0.000000
    50  H    4.751275   5.533322   4.625388   5.819727   0.000000
 Stoichiometry    C21H22Cl3FeO3(6)
 Framework group  C1[X(C21H22Cl3FeO3)]
 Deg. of freedom   144
 Full point group                 C1      NOp   1
 Largest Abelian subgroup         C1      NOp   1
 Largest concise Abelian subgroup C1      NOp   1
                         Standard orientation:                         
 ---------------------------------------------------------------------
 Center     Atomic      Atomic             Coordinates (Angstroms)
 Number     Number       Type             X           Y           Z
 ---------------------------------------------------------------------
      1          6           0       -2.069795    2.134128   -0.009806
      2          6           0       -1.038505    1.270646   -0.420942
      3          6           0       -0.302882    1.593579   -1.569646
      4          6           0       -0.604849    2.743955   -2.304875
      5          6           0       -1.634661    3.591956   -1.895805
      6          6           0       -2.366775    3.281689   -0.741913
      7          6           0       -0.667350    0.031484    0.364197
      8          6           0       -1.727624   -1.101820    0.510782
      9          6           0       -1.300856   -1.851317    1.782311
     10          6           0       -0.887050   -0.764125    2.793367
     11          6           0       -0.351316    0.423512    1.973046
     12          6           0        1.095751    0.539380    1.882540
     13          8           0        0.510055   -0.502107   -0.131021
     14         26           0        1.629780   -1.870303   -0.643104
     15         17           0        2.650737   -2.488367    1.274971
     16         17           0        3.094084   -0.862041   -1.984126
     17         17           0        0.443432   -3.509574   -1.526606
     18          1           0        0.509278    0.939563   -1.878010
     19          1           0       -0.024928    2.975708   -3.198909
     20          1           0       -1.868261    4.491321   -2.467179
     21          1           0       -3.170585    3.940192   -0.410262
     22          1           0       -2.643778    1.916430    0.889359
     23          1           0       -1.632937   -1.718281   -0.390333
     24          6           0       -3.145936   -0.585331    0.594597
     25          1           0       -2.103311   -2.488661    2.170952
     26          1           0       -0.449672   -2.496730    1.538707
     27          1           0       -1.756552   -0.429974    3.368097
     28          1           0       -0.135196   -1.139834    3.499854
     29          1           0       -0.852450    1.367895    2.194220
     30          8           0       -3.735116   -0.594327   -0.612607
     31          8           0       -3.686292   -0.188412    1.611362
     32          6           0       -5.085506   -0.066251   -0.689971
     33          6           0       -6.111205   -1.130234   -0.343017
     34          1           0       -5.159722    0.800107   -0.022065
     35          1           0       -5.177744    0.265212   -1.730895
     36          1           0       -7.122677   -0.721793   -0.483904
     37          1           0       -5.997664   -2.006245   -0.995892
     38          1           0       -6.008097   -1.445625    0.702849
     39          6           0        1.825521    1.645463    1.405994
     40          6           0        1.222423    2.901640    1.120743
     41          6           0        3.192599    1.430009    1.072091
     42          6           0        1.967700    3.901970    0.518444
     43          1           0        0.180034    3.075421    1.374444
     44          6           0        3.923763    2.433622    0.457366
     45          1           0        3.629638    0.447670    1.253607
     46          6           0        3.311250    3.665718    0.185302
     47          1           0        1.510031    4.864116    0.292133
     48          1           0        4.959488    2.259365    0.169334
     49          1           0        3.887806    4.454557   -0.300567
     50          1           0        1.675371   -0.362090    2.102404
 ---------------------------------------------------------------------
 Rotational constants (GHZ):           0.1681881           0.1269154           0.0958207
 Leave Link  202 at Wed Jun  9 10:31:02 2021, MaxMem=  2147483648 cpu:               0.2 elap:               0.0
 (Enter /SFS/product/gaussian/g16.a03/x86_64/avx/g16/l301.exe)
 Standard basis: Jul-CC-pVDZ (5D, 7F)
 Ernie: Thresh=  0.10000D-02 Tol=  0.10000D-05 Strict=F.
 Ernie:  142 primitive shells out of 1058 were deleted.
 There are   866 symmetry adapted cartesian basis functions of A   symmetry.
 There are   802 symmetry adapted basis functions of A   symmetry.
   802 basis functions,  1743 primitive gaussians,   866 cartesian basis functions
   127 alpha electrons      122 beta electrons
       nuclear repulsion energy      3928.0990200411 Hartrees.
 IExCor=  402 DFT=T Ex+Corr=B3LYP ExCW=0 ScaHFX=  0.200000
 ScaDFX=  0.800000  0.720000  1.000000  0.810000 ScalE2=  1.000000  1.000000
 IRadAn=      5 IRanWt=     -1 IRanGd=            0 ICorTp=0 IEmpDi=141
 NAtoms=   50 NActive=   50 NUniq=   50 SFac= 1.00D+00 NAtFMM=   60 NAOKFM=F Big=F
 Integral buffers will be    131072 words long.
 Raffenetti 2 integral format.
 Two-electron integral symmetry is turned on.
 R6Disp:  Grimme-D3(BJ) Dispersion energy=       -0.1403374284 Hartrees.
 Nuclear repulsion after empirical dispersion term =     3927.9586826128 Hartrees.
 Leave Link  301 at Wed Jun  9 10:31:02 2021, MaxMem=  2147483648 cpu:               1.0 elap:               0.1
 (Enter /SFS/product/gaussian/g16.a03/x86_64/avx/g16/l302.exe)
 NPDir=0 NMtPBC=     1 NCelOv=     1 NCel=       1 NClECP=     1 NCelD=      1
         NCelK=      1 NCelE2=     1 NClLst=     1 CellRange=     0.0.
 One-electron integrals computed using PRISM.
 One-electron integral symmetry used in STVInt
 NBasis=   802 RedAO= T EigKep=  1.06D-06  NBF=   802
 NBsUse=   802 1.00D-06 EigRej= -1.00D+00 NBFU=   802
 Precomputing XC quadrature grid using
 IXCGrd= 4 IRadAn=           5 IRanWt=          -1 IRanGd=           0 AccXCQ= 0.00D+00.
 Generated NRdTot=       0 NPtTot=           0 NUsed=           0 NTot=          32
 NSgBfM=   862   862   862   862   862 MxSgAt=    50 MxSgA2=    50.
 Leave Link  302 at Wed Jun  9 10:31:04 2021, MaxMem=  2147483648 cpu:              30.5 elap:               1.9
 (Enter /SFS/product/gaussian/g16.a03/x86_64/avx/g16/l303.exe)
 DipDrv:  MaxL=1.
 Leave Link  303 at Wed Jun  9 10:31:04 2021, MaxMem=  2147483648 cpu:               3.4 elap:               0.3
 (Enter /SFS/product/gaussian/g16.a03/x86_64/avx/g16/l401.exe)
 ExpMin= 1.40D-02 ExpMax= 4.32D+06 ExpMxC= 4.91D+03 IAcc=3 IRadAn=         5 AccDes= 0.00D+00
 Harris functional with IExCor=  402 and IRadAn=       5 diagonalized for initial guess.
 HarFok:  IExCor=  402 AccDes= 0.00D+00 IRadAn=         5 IDoV= 1 UseB2=F ITyADJ=14
 ICtDFT=  3500011 ScaDFX=  1.000000  1.000000  1.000000  1.000000
 FoFCou: FMM=F IPFlag=           0 FMFlag=      100000 FMFlg1=           0
         NFxFlg=           0 DoJE=T BraDBF=F KetDBF=T FulRan=T
         wScrn=  0.000000 ICntrl=       500 IOpCl=  0 I1Cent=   200000004 NGrid=           0
         NMat0=    1 NMatS0=      1 NMatT0=    0 NMatD0=    1 NMtDS0=    0 NMtDT0=    0
 Petite list used in FoFCou.
 Harris En= -3683.65136390757    
 JPrj=0 DoOrth=F DoCkMO=F.
 Initial guess <Sx>= 0.0000 <Sy>= 0.0000 <Sz>= 2.5000 <S**2>= 8.7500 S= 2.5000
 Leave Link  401 at Wed Jun  9 10:31:16 2021, MaxMem=  2147483648 cpu:             192.3 elap:              12.1
 (Enter /SFS/product/gaussian/g16.a03/x86_64/avx/g16/l502.exe)
 Integral symmetry usage will be decided dynamically.
 UHF open shell SCF:
 Using DIIS extrapolation, IDIIS=  1040.
 NGot=  2147483648 LenX=  2145961826 LenY=  2145211004
 Requested convergence on RMS density matrix=1.00D-08 within 128 cycles.
 Requested convergence on MAX density matrix=1.00D-06.
 Requested convergence on             energy=1.00D-06.
 No special actions if energy rises.
 Fock matrices will be formed incrementally for  20 cycles.

 Cycle   1  Pass 1  IDiag  1:
 FoFJK:  IHMeth= 1 ICntrl=       0 DoSepK=F KAlg= 0 I1Cent=           0 FoldK=F
 IRaf= 910000000 NMat=       1 IRICut=       1 DoRegI=T DoRafI=F ISym2E= 0 IDoP0=0 IntGTp=1.
 FoFCou: FMM=F IPFlag=           0 FMFlag=      100000 FMFlg1=           0
         NFxFlg=           0 DoJE=F BraDBF=F KetDBF=F FulRan=T
         wScrn=  0.000000 ICntrl=         0 IOpCl=  1 I1Cent=           0 NGrid=           0
         NMat0=    1 NMatS0=      1 NMatT0=    0 NMatD0=    1 NMtDS0=    0 NMtDT0=    0
 Symmetry not used in FoFCou.
 E= -3682.91597843003    
 DIIS: error= 2.02D-02 at cycle   1 NSaved=   1.
 NSaved= 1 IEnMin= 1 EnMin= -3682.91597843003     IErMin= 1 ErrMin= 2.02D-02
 ErrMax= 2.02D-02  0.00D+00 EMaxC= 1.00D-01 BMatC= 4.69D+00 BMatP= 4.69D+00
 IDIUse=3 WtCom= 7.98D-01 WtEn= 2.02D-01
 Coeff-Com:  0.100D+01
 Coeff-En:   0.100D+01
 Coeff:      0.100D+01
 Gap=     0.105 Goal=   None    Shift=    0.000
 Gap=     0.452 Goal=   None    Shift=    0.000
 GapD=    0.105 DampG=1.000 DampE=0.250 DampFc=0.2500 IDamp=-1.
 Damping current iteration by 2.50D-01
 RMSDP=3.07D-02 MaxDP=5.67D+00              OVMax= 8.18D-01

 Cycle   2  Pass 1  IDiag  1:
 RMSU=  5.33D-03    CP:  9.19D-01
 E= -3682.97241364187     Delta-E=       -0.056435211841 Rises=F Damp=T
 DIIS: error= 1.29D-02 at cycle   2 NSaved=   2.
 NSaved= 2 IEnMin= 2 EnMin= -3682.97241364187     IErMin= 2 ErrMin= 1.29D-02
 ErrMax= 1.29D-02  0.00D+00 EMaxC= 1.00D-01 BMatC= 1.43D+00 BMatP= 4.69D+00
 IDIUse=3 WtCom= 8.71D-01 WtEn= 1.29D-01
 Coeff-Com:  0.262D+00 0.738D+00
 Coeff-En:   0.477D+00 0.523D+00
 Coeff:      0.289D+00 0.711D+00
 Gap=     0.300 Goal=   None    Shift=    0.000
 Gap=    -0.095 Goal=   None    Shift=    0.000
 RMSDP=2.31D-02 MaxDP=5.34D+00 DE=-5.64D-02 OVMax= 9.39D-01

 Cycle   3  Pass 1  IDiag  1:
 RMSU=  8.89D-03    CP:  6.06D-01  1.27D+00
 E= -3682.55629102933     Delta-E=        0.416122612538 Rises=F Damp=F
 DIIS: error= 3.17D-02 at cycle   3 NSaved=   3.
 NSaved= 3 IEnMin= 2 EnMin= -3682.97241364187     IErMin= 2 ErrMin= 1.29D-02
 ErrMax= 3.17D-02  0.00D+00 EMaxC= 1.00D-01 BMatC= 6.37D+00 BMatP= 1.43D+00
 IDIUse=2 WtCom= 0.00D+00 WtEn= 1.00D+00
 EnCoef did     4 forward-backward iterations
 Coeff-En:   0.103D+00 0.541D+00 0.357D+00
 Coeff:      0.103D+00 0.541D+00 0.357D+00
 Gap=     0.309 Goal=   None    Shift=    0.000
 Gap=     0.223 Goal=   None    Shift=    0.000
 RMSDP=7.20D-03 MaxDP=6.71D-01 DE= 4.16D-01 OVMax= 5.81D-01

 Cycle   4  Pass 1  IDiag  1:
 RMSU=  5.46D-03    CP:  6.32D-01  1.51D+00  5.30D-01
 E= -3679.77350723386     Delta-E=        2.782783795470 Rises=F Damp=F
 DIIS: error= 6.99D-02 at cycle   4 NSaved=   4.
 NSaved= 4 IEnMin= 2 EnMin= -3682.97241364187     IErMin= 2 ErrMin= 1.29D-02
 ErrMax= 6.99D-02  0.00D+00 EMaxC= 1.00D-01 BMatC= 2.64D+01 BMatP= 1.43D+00
 IDIUse=2 WtCom= 0.00D+00 WtEn= 1.00D+00
 EnCoef did     4 forward-backward iterations
 Coeff-En:   0.216D+00 0.000D+00 0.483D+00 0.301D+00
 Coeff:      0.216D+00 0.000D+00 0.483D+00 0.301D+00
 Gap=     0.080 Goal=   None    Shift=    0.000
 Gap=     0.005 Goal=   None    Shift=    0.000
 RMSDP=4.00D-03 MaxDP=5.18D-01 DE= 2.78D+00 OVMax= 8.05D-01

 Cycle   5  Pass 1  IDiag  1:
 RMSU=  2.64D-03    CP:  6.43D-01  1.10D+00  6.34D-01  6.93D-01
 E= -3683.91481198058     Delta-E=       -4.141304746714 Rises=F Damp=F
 DIIS: error= 3.50D-03 at cycle   5 NSaved=   5.
 NSaved= 5 IEnMin= 5 EnMin= -3683.91481198058     IErMin= 5 ErrMin= 3.50D-03
 ErrMax= 3.50D-03  0.00D+00 EMaxC= 1.00D-01 BMatC= 2.83D-01 BMatP= 1.43D+00
 IDIUse=3 WtCom= 9.65D-01 WtEn= 3.50D-02
 Coeff-Com: -0.504D-01 0.326D+00 0.203D+00 0.714D-03 0.521D+00
 Coeff-En:   0.000D+00 0.000D+00 0.000D+00 0.000D+00 0.100D+01
 Coeff:     -0.486D-01 0.314D+00 0.196D+00 0.689D-03 0.538D+00
 Gap=     0.036 Goal=   None    Shift=    0.000
 Gap=     0.227 Goal=   None    Shift=    0.000
 RMSDP=2.79D-03 MaxDP=3.14D-01 DE=-4.14D+00 OVMax= 9.52D-02

 Cycle   6  Pass 1  IDiag  1:
 RMSU=  2.24D-03    CP:  6.36D-01  1.05D+00  7.17D-01  6.87D-01  4.83D-01
 E= -3683.92317177754     Delta-E=       -0.008359796961 Rises=F Damp=F
 DIIS: error= 4.41D-03 at cycle   6 NSaved=   6.
 NSaved= 6 IEnMin= 6 EnMin= -3683.92317177754     IErMin= 5 ErrMin= 3.50D-03
 ErrMax= 4.41D-03  0.00D+00 EMaxC= 1.00D-01 BMatC= 2.96D-01 BMatP= 2.83D-01
 IDIUse=3 WtCom= 9.65D-01 WtEn= 3.50D-02
 Coeff-Com: -0.512D-01 0.125D+00 0.864D-01-0.184D-01 0.452D+00 0.406D+00
 Coeff-En:   0.000D+00 0.000D+00 0.000D+00 0.000D+00 0.470D+00 0.530D+00
 Coeff:     -0.494D-01 0.121D+00 0.834D-01-0.178D-01 0.452D+00 0.410D+00
 Gap=     0.071 Goal=   None    Shift=    0.000
 Gap=     0.101 Goal=   None    Shift=    0.000
 RMSDP=1.36D-03 MaxDP=1.85D-01 DE=-8.36D-03 OVMax= 7.51D-02

 Cycle   7  Pass 1  IDiag  1:
 RMSU=  1.01D-03    CP:  6.35D-01  1.06D+00  6.84D-01  6.61D-01  7.38D-01
                    CP:  7.69D-01
 E= -3683.98508561682     Delta-E=       -0.061913839284 Rises=F Damp=F
 DIIS: error= 1.18D-03 at cycle   7 NSaved=   7.
 NSaved= 7 IEnMin= 7 EnMin= -3683.98508561682     IErMin= 7 ErrMin= 1.18D-03
 ErrMax= 1.18D-03  0.00D+00 EMaxC= 1.00D-01 BMatC= 1.82D-02 BMatP= 2.83D-01
 IDIUse=3 WtCom= 9.88D-01 WtEn= 1.18D-02
 Coeff-Com: -0.168D-01 0.352D-01 0.148D-01-0.377D-02 0.161D+00 0.199D+00
 Coeff-Com:  0.611D+00
 Coeff-En:   0.000D+00 0.000D+00 0.000D+00 0.000D+00 0.000D+00 0.000D+00
 Coeff-En:   0.100D+01
 Coeff:     -0.166D-01 0.347D-01 0.146D-01-0.373D-02 0.159D+00 0.197D+00
 Coeff:      0.615D+00
 Gap=     0.098 Goal=   None    Shift=    0.000
 Gap=     0.112 Goal=   None    Shift=    0.000
 RMSDP=5.21D-04 MaxDP=8.18D-02 DE=-6.19D-02 OVMax= 2.38D-02

 Cycle   8  Pass 1  IDiag  1:
 RMSU=  5.06D-04    CP:  6.34D-01  1.06D+00  6.81D-01  6.69D-01  7.39D-01
                    CP:  7.41D-01  9.75D-01
 E= -3683.98784074325     Delta-E=       -0.002755126427 Rises=F Damp=F
 DIIS: error= 1.07D-03 at cycle   8 NSaved=   8.
 NSaved= 8 IEnMin= 8 EnMin= -3683.98784074325     IErMin= 8 ErrMin= 1.07D-03
 ErrMax= 1.07D-03  0.00D+00 EMaxC= 1.00D-01 BMatC= 8.04D-03 BMatP= 1.82D-02
 IDIUse=3 WtCom= 9.89D-01 WtEn= 1.07D-02
 Coeff-Com: -0.335D-02 0.706D-02-0.127D-01 0.428D-02-0.662D-02 0.302D-01
 Coeff-Com:  0.371D+00 0.610D+00
 Coeff-En:   0.000D+00 0.000D+00 0.000D+00 0.000D+00 0.000D+00 0.000D+00
 Coeff-En:   0.150D+00 0.850D+00
 Coeff:     -0.332D-02 0.699D-02-0.126D-01 0.424D-02-0.655D-02 0.299D-01
 Coeff:      0.369D+00 0.613D+00
 Gap=     0.098 Goal=   None    Shift=    0.000
 Gap=     0.106 Goal=   None    Shift=    0.000
 RMSDP=2.60D-04 MaxDP=2.99D-02 DE=-2.76D-03 OVMax= 1.69D-02

 Cycle   9  Pass 1  IDiag  1:
 RMSU=  2.03D-04    CP:  6.34D-01  1.05D+00  6.80D-01  6.77D-01  7.35D-01
                    CP:  7.84D-01  1.09D+00  9.63D-01
 E= -3683.98913771721     Delta-E=       -0.001296973958 Rises=F Damp=F
 DIIS: error= 6.69D-04 at cycle   9 NSaved=   9.
 NSaved= 9 IEnMin= 9 EnMin= -3683.98913771721     IErMin= 9 ErrMin= 6.69D-04
 ErrMax= 6.69D-04  0.00D+00 EMaxC= 1.00D-01 BMatC= 2.49D-03 BMatP= 8.04D-03
 IDIUse=3 WtCom= 9.93D-01 WtEn= 6.69D-03
 Coeff-Com: -0.505D-02 0.905D-02-0.818D-02 0.330D-02-0.172D-01 0.379D-02
 Coeff-Com:  0.896D-01 0.302D+00 0.623D+00
 Coeff-En:   0.000D+00 0.000D+00 0.000D+00 0.000D+00 0.000D+00 0.000D+00
 Coeff-En:   0.000D+00 0.000D+00 0.100D+01
 Coeff:     -0.502D-02 0.899D-02-0.813D-02 0.328D-02-0.171D-01 0.376D-02
 Coeff:      0.890D-01 0.300D+00 0.625D+00
 Gap=     0.099 Goal=   None    Shift=    0.000
 Gap=     0.104 Goal=   None    Shift=    0.000
 RMSDP=1.40D-04 MaxDP=1.02D-02 DE=-1.30D-03 OVMax= 1.22D-02

 Cycle  10  Pass 1  IDiag  1:
 RMSU=  1.21D-04    CP:  6.34D-01  1.06D+00  6.79D-01  6.81D-01  7.33D-01
                    CP:  7.97D-01  1.13D+00  1.01D+00  8.39D-01
 E= -3683.98939331865     Delta-E=       -0.000255601441 Rises=F Damp=F
 DIIS: error= 3.54D-04 at cycle  10 NSaved=  10.
 NSaved=10 IEnMin=10 EnMin= -3683.98939331865     IErMin=10 ErrMin= 3.54D-04
 ErrMax= 3.54D-04  0.00D+00 EMaxC= 1.00D-01 BMatC= 1.11D-03 BMatP= 2.49D-03
 IDIUse=3 WtCom= 9.96D-01 WtEn= 3.54D-03
 Coeff-Com: -0.594D-02 0.790D-02 0.223D-03 0.630D-03 0.663D-02 0.654D-02
 Coeff-Com: -0.118D+00-0.116D+00 0.509D+00 0.709D+00
 Coeff-En:   0.000D+00 0.000D+00 0.000D+00 0.000D+00 0.000D+00 0.000D+00
 Coeff-En:   0.000D+00 0.000D+00 0.252D+00 0.748D+00
 Coeff:     -0.592D-02 0.788D-02 0.223D-03 0.628D-03 0.661D-02 0.652D-02
 Coeff:     -0.118D+00-0.116D+00 0.508D+00 0.709D+00
 Gap=     0.101 Goal=   None    Shift=    0.000
 Gap=     0.104 Goal=   None    Shift=    0.000
 RMSDP=1.08D-04 MaxDP=8.48D-03 DE=-2.56D-04 OVMax= 7.95D-03

 Cycle  11  Pass 1  IDiag  1:
 RMSU=  7.52D-05    CP:  6.34D-01  1.06D+00  6.76D-01  6.82D-01  7.28D-01
                    CP:  7.92D-01  1.13D+00  1.08D+00  1.12D+00  8.29D-01
 E= -3683.98966187369     Delta-E=       -0.000268555038 Rises=F Damp=F
 DIIS: error= 8.44D-05 at cycle  11 NSaved=  11.
 NSaved=11 IEnMin=11 EnMin= -3683.98966187369     IErMin=11 ErrMin= 8.44D-05
 ErrMax= 8.44D-05  0.00D+00 EMaxC= 1.00D-01 BMatC= 1.29D-04 BMatP= 1.11D-03
 IDIUse=1 WtCom= 1.00D+00 WtEn= 0.00D+00
 Coeff-Com: -0.332D-02 0.408D-02 0.155D-02-0.177D-03 0.109D-01 0.525D-02
 Coeff-Com: -0.797D-01-0.119D+00 0.181D+00 0.419D+00 0.581D+00
 Coeff:     -0.332D-02 0.408D-02 0.155D-02-0.177D-03 0.109D-01 0.525D-02
 Coeff:     -0.797D-01-0.119D+00 0.181D+00 0.419D+00 0.581D+00
 Gap=     0.102 Goal=   None    Shift=    0.000
 Gap=     0.105 Goal=   None    Shift=    0.000
 RMSDP=4.42D-05 MaxDP=5.90D-03 DE=-2.69D-04 OVMax= 1.82D-03

 Cycle  12  Pass 1  IDiag  1:
 RMSU=  3.22D-05    CP:  6.34D-01  1.06D+00  6.75D-01  6.82D-01  7.29D-01
                    CP:  7.87D-01  1.12D+00  1.12D+00  1.17D+00  9.09D-01
                    CP:  1.01D+00
 E= -3683.98969334224     Delta-E=       -0.000031468553 Rises=F Damp=F
 DIIS: error= 3.38D-05 at cycle  12 NSaved=  12.
 NSaved=12 IEnMin=12 EnMin= -3683.98969334224     IErMin=12 ErrMin= 3.38D-05
 ErrMax= 3.38D-05  0.00D+00 EMaxC= 1.00D-01 BMatC= 2.39D-05 BMatP= 1.29D-04
 IDIUse=1 WtCom= 1.00D+00 WtEn= 0.00D+00
 Coeff-Com: -0.520D-03 0.102D-03 0.339D-03-0.633D-04 0.500D-02 0.198D-03
 Coeff-Com: -0.214D-01-0.339D-01 0.277D-01 0.114D+00 0.314D+00 0.594D+00
 Coeff:     -0.520D-03 0.102D-03 0.339D-03-0.633D-04 0.500D-02 0.198D-03
 Coeff:     -0.214D-01-0.339D-01 0.277D-01 0.114D+00 0.314D+00 0.594D+00
 Gap=     0.102 Goal=   None    Shift=    0.000
 Gap=     0.104 Goal=   None    Shift=    0.000
 RMSDP=1.72D-05 MaxDP=1.71D-03 DE=-3.15D-05 OVMax= 8.79D-04

 Cycle  13  Pass 1  IDiag  1:
 RMSU=  1.38D-05    CP:  6.34D-01  1.06D+00  6.75D-01  6.82D-01  7.31D-01
                    CP:  7.85D-01  1.13D+00  1.12D+00  1.19D+00  9.48D-01
                    CP:  1.05D+00  1.01D+00
 E= -3683.98969843694     Delta-E=       -0.000005094703 Rises=F Damp=F
 DIIS: error= 2.10D-05 at cycle  13 NSaved=  13.
 NSaved=13 IEnMin=13 EnMin= -3683.98969843694     IErMin=13 ErrMin= 2.10D-05
 ErrMax= 2.10D-05  0.00D+00 EMaxC= 1.00D-01 BMatC= 4.93D-06 BMatP= 2.39D-05
 IDIUse=1 WtCom= 1.00D+00 WtEn= 0.00D+00
 Coeff-Com:  0.207D-03-0.338D-03 0.285D-06-0.310D-04 0.774D-03-0.975D-03
 Coeff-Com: -0.207D-02-0.932D-04 0.208D-02 0.153D-01 0.892D-01 0.286D+00
 Coeff-Com:  0.610D+00
 Coeff:      0.207D-03-0.338D-03 0.285D-06-0.310D-04 0.774D-03-0.975D-03
 Coeff:     -0.207D-02-0.932D-04 0.208D-02 0.153D-01 0.892D-01 0.286D+00
 Coeff:      0.610D+00
 Gap=     0.102 Goal=   None    Shift=    0.000
 Gap=     0.104 Goal=   None    Shift=    0.000
 RMSDP=8.33D-06 MaxDP=9.57D-04 DE=-5.09D-06 OVMax= 3.44D-04

 Cycle  14  Pass 1  IDiag  1:
 RMSU=  6.95D-06    CP:  6.34D-01  1.06D+00  6.75D-01  6.82D-01  7.31D-01
                    CP:  7.85D-01  1.13D+00  1.12D+00  1.19D+00  9.68D-01
                    CP:  1.08D+00  1.06D+00  1.04D+00
 E= -3683.98969979204     Delta-E=       -0.000001355096 Rises=F Damp=F
 DIIS: error= 1.18D-05 at cycle  14 NSaved=  14.
 NSaved=14 IEnMin=14 EnMin= -3683.98969979204     IErMin=14 ErrMin= 1.18D-05
 ErrMax= 1.18D-05  0.00D+00 EMaxC= 1.00D-01 BMatC= 1.22D-06 BMatP= 4.93D-06
 IDIUse=1 WtCom= 1.00D+00 WtEn= 0.00D+00
 Coeff-Com:  0.298D-03-0.208D-03-0.773D-04-0.139D-04-0.116D-02-0.410D-03
 Coeff-Com:  0.378D-02 0.847D-02-0.323D-04-0.179D-01-0.508D-01-0.907D-01
 Coeff-Com:  0.271D+00 0.877D+00
 Coeff:      0.298D-03-0.208D-03-0.773D-04-0.139D-04-0.116D-02-0.410D-03
 Coeff:      0.378D-02 0.847D-02-0.323D-04-0.179D-01-0.508D-01-0.907D-01
 Coeff:      0.271D+00 0.877D+00
 Gap=     0.102 Goal=   None    Shift=    0.000
 Gap=     0.104 Goal=   None    Shift=    0.000
[...]
 501,0.00003208,0.00001829,-0.00000529,-0.00001375,-0.00000033,0.000004
 43,0.00000366,-0.00000012,0.00000533,0.00000085,-0.00000656,0.00000477
 ,-0.00000128,0.00000447,0.00000094,-0.00000071,-0.00000015,-0.00000147
 ,0.00000187,-0.00000069,-0.00000173,0.00000134,0.00000176,0.00279169,-
 0.00001839,-0.00390360,-0.01104255,-0.01518292,-0.00391399,0.00053990,
 0.00033983,0.00032023,-0.10773679,-0.27737233,-0.05842092,0.00035588,0
 .00030502,0.00168858,-0.00094932,0.00224366,-0.00137245,0.00004496,-0.
 00011958,0.00029104,0.00093892,-0.00014766,-0.00151808,0.11553505,0.29
 046399,-0.00001925,0.00005836,-0.00009709,-0.00011339,-0.00000764,-0.0
 0003200,0.00009714,0.00006270,0.00010137,0.00005896,-0.00010363,0.0000
 2636,-0.00000748,-0.00005781,-0.00000636,-0.00003793,0.00002371,0.0000
 5163,0.00003215,0.00009091,0.00000621,-0.00000666,-0.00001970,0.000000
 54,0.00001305,0.00000186,-0.00000423,0.00000828,0.00002606,-0.00000697
 ,-0.00008250,-0.00005095,0.00007733,-0.00062089,-0.00074884,0.00009943
 ,-0.00003031,-0.00009486,0.00002442,0.00007605,0.00007076,-0.00001903,
 -0.00003110,-0.00000643,0.00000073,-0.00002967,0.00000913,-0.00000875,
 0.00000262,-0.00001867,0.00000479,0.00000702,0.00001595,0.00000238,-0.
 00001122,0.00003164,-0.00007056,-0.00004404,-0.00000280,-0.00002387,0.
 00002626,0.00000368,0.00000134,0.00001445,-0.00001937,-0.00000559,0.00
 000530,0.00000089,-0.00000329,-0.00004319,-0.00000034,0.00001960,0.000
 00244,-0.00000591,-0.00000035,-0.00000192,0.00000311,-0.00000105,0.000
 01534,-0.00001162,-0.00000192,-0.00000731,0.00000334,0.00000685,-0.000
 00209,0.00000887,0.00003691,0.00002748,-0.00000046,-0.00000475,0.00002
 729,0.00000059,-0.00001977,-0.00002187,-0.00000067,0.00000155,0.000000
 23,-0.00000058,-0.00000099,-0.00000117,0.00000052,0.00000263,-0.000000
 86,0.00000156,-0.00000167,0.00000320,0.00000039,0.00000124,0.00000016,
 -0.00000114,0.00000005,-0.00000128,-0.00000159,-0.00000084,0.00415207,
 -0.00340015,0.00573912,-0.00674114,-0.01227837,0.00107392,0.00027672,0
 .00027681,-0.00086039,-0.01964739,-0.05913417,-0.05349438,-0.00111015,
 0.00169134,-0.00341485,0.00314738,-0.00147375,0.00500143,-0.00031490,0
 .00021925,-0.00073915,0.00385102,0.00759488,0.00467059,0.01808161,0.06
 570514,0.04491411,0.00001524,0.00001807,-0.00000313,0.00000707,0.00001
 204,-0.00006160,-0.00003382,-0.00002435,0.00002362,0.00000719,0.000002
 69,0.00001575,-0.00001321,-0.00000274,0.00000569,0.00001639,-0.0000028
 4,-0.00002936,-0.00006829,-0.00006282,0.00023962,0.00002110,0.00003625
 ,-0.00006035,-0.00001438,-0.00000880,0.00000985,-0.00002959,-0.0000503
 7,-0.00003352,-0.00006548,0.00025610,-0.00024798,-0.00032862,-0.000516
 10,0.00021334,0.00010505,0.00018960,-0.00015592,-0.00031088,-0.0000039
 4,0.00030542,0.00000812,0.00002800,-0.00008738,0.00028079,-0.00027309,
 -0.00010336,0.00004663,-0.00003217,-0.00000532,-0.00001121,0.00000097,
 0.00000496,-0.00000333,-0.00000738,-0.00000680,0.00000133,-0.00000051,
 0.00000087,0.00000177,-0.00000211,-0.00000017,0.00000674,0.00000235,-0
 .00000225,-0.00002877,0.00001001,0.00000966,0.00002672,-0.00000596,0.0
 0002612,-0.00000250,0.00000979,-0.00000460,0.00000024,0.00000323,0.000
 00085,-0.00000854,0.00001788,0.00000706,0.00000583,0.00000014,0.000000
 37,0.00001861,-0.00000823,0.00001331,-0.00001917,-0.00000171,-0.000020
 10,-0.00000768,0.00000696,-0.00001387,0.00001113,0.00000185,0.00000381
 ,-0.00000134,-0.00000128,0.00000019,-0.00000048,0.00000029,0.00000003,
 -0.00000119,-0.00000110,-0.00000073,-0.00000136,0.00000016,0.,0.000000
 06,0.00000106,-0.00000026,0.00000092,-0.00000038,-0.00000021,0.0015427
 7,0.00200310,0.00304801,0.00055941,0.00012765,-0.00042006,-0.01081437,
 -0.00447978,0.00326678,0.00163448,-0.00280304,0.00080699,-0.00012907,0
 .00009337,-0.00028289,-0.31488439,-0.04517894,0.07723324,0.00027613,0.
 00032972,-0.00141488,-0.00761536,0.00066130,0.00390807,-0.00037978,0.0
 0008315,0.00020837,0.32989371,-0.00000093,-0.00000548,-0.00000939,-0.0
 0001614,-0.00004271,0.00001926,0.00000258,0.00001355,-0.00002128,-0.00
 001451,0.00001857,0.00001547,0.00000210,0.00001498,-0.00000036,-0.0000
 0413,0.00000561,0.00000370,0.00015408,0.00007195,-0.00023338,-0.000020
 06,-0.00003428,0.00006082,0.00000897,0.00000704,-0.00000756,0.00005657
 ,0.00004546,0.00004124,0.00010734,-0.00040039,0.00028053,0.00112844,0.
 00052291,-0.00032840,-0.00014415,-0.00016764,0.00012146,0.00029417,0.0
 0000150,-0.00019450,-0.00006987,-0.00001926,0.00004128,-0.00026874,0.0
 0017147,0.00003844,-0.00005061,0.00003554,-0.00000611,0.00000660,0.000
 00688,-0.00000046,0.00000077,0.00000243,0.00000324,0.00000351,-0.00000
 150,0.00000539,0.00000320,-0.00000060,0.00000157,-0.00000446,-0.000005
 00,0.00000278,0.00002868,-0.00001076,-0.00000638,-0.00001047,0.0000028
 0,-0.00002060,0.00000112,-0.00000987,0.00000583,0.00000186,-0.00000550
 ,0.00000015,0.00000921,-0.00001812,-0.00001232,-0.00000662,0.00000257,
 -0.00000177,-0.00002889,0.00001952,-0.00001714,0.00000506,0.00000257,0
 .00001399,-0.00000070,-0.00000315,0.00001545,0.00000028,-0.00000114,-0
 .00000055,0.00000060,0.00000120,-0.00000051,0.00000076,-0.00000027,-0.
 00000068,0.00000096,0.00000024,0.00000063,-0.00000012,-0.00000046,-0.0
 0000008,0.00000016,-0.00000004,0.00000029,-0.00000011,0.00000040,0.000
 00024,0.00095050,-0.00230892,-0.00428152,0.00033978,-0.00106964,-0.000
 19175,0.02337678,0.00737395,-0.00666992,-0.00201811,-0.00369650,-0.003
 31872,0.00009721,0.00001311,0.00035313,-0.04569166,-0.06234217,0.00626
 760,0.00023262,0.00039629,0.00167212,-0.02719695,-0.00043148,0.0078358
 8,-0.00127356,-0.00005286,0.00030101,0.04923346,0.06135602,-0.00001000
 ,-0.00000254,-0.00000747,0.00001146,0.00004621,-0.00000341,-0.00000239
 ,-0.00001842,0.00001151,-0.00000231,-0.00000531,0.00000869,0.00000405,
 0.00000304,-0.00001033,-0.00000037,0.00001124,0.00000548,-0.00015351,0
 .00000989,-0.00002182,0.00000618,0.00001245,-0.00001850,0.00000648,-0.
 00000750,-0.00002174,0.00009587,0.00003360,0.00001355,-0.00002865,-0.0
 0013495,-0.00045365,0.00083834,-0.00000234,0.00024926,0.00003955,0.000
 02494,-0.00003557,-0.00010423,0.00010140,0.00023281,-0.00007708,-0.000
 00420,-0.00009723,0.00017854,-0.00020013,-0.00011659,0.00002924,-0.000
 03447,-0.00000178,-0.00000373,0.00000355,0.00000607,-0.00000622,-0.000
 00430,-0.00000716,0.00000013,0.00000098,0.00000235,0.00000367,0.000001
 15,-0.00000136,0.00000181,-0.00000055,-0.00000131,-0.00000884,0.000005
 62,0.00000356,-0.00002076,-0.00000536,-0.00000473,0.00000282,-0.000004
 72,0.00000629,0.00000099,0.00000304,0.00000497,0.00001157,-0.00002644,
 -0.00001445,-0.00000885,0.00000026,0.00000307,0.00001201,0.00000827,0.
 00000881,0.00001545,0.00000211,0.00000308,0.00001488,0.00000140,-0.000
 00403,-0.00001188,-0.00000116,-0.00000010,0.00000057,-0.00000032,-0.00
 000024,-0.00000004,0.00000021,0.00000044,0.00000022,0.00000027,-0.0000
 0027,0.00000176,0.00000035,0.00000055,-0.00000034,-0.00000044,-0.00000
 002,-0.00000092,-0.00000028,-0.00000030,0.00233425,-0.00399069,0.00561
 453,-0.00037703,-0.00025911,-0.00084036,0.01379682,0.00293205,0.000316
 92,0.00086477,-0.00331519,0.00513397,-0.00020005,0.00036653,-0.0007958
 1,0.07809029,0.00675679,-0.06169510,-0.00153306,0.00131210,-0.00333438
 ,-0.00732850,-0.00193758,0.00490603,-0.00032509,-0.00010329,0.00018059
 ,-0.08514002,-0.00298363,0.05350849,-0.00001524,0.00001481,-0.00007217
 ,-0.00002959,-0.00000672,0.00000559,0.00002579,0.00001096,0.00003318,-
 0.00000771,-0.00004409,0.00003461,0.00003029,-0.00000918,-0.00001490,-
 0.00000110,0.00004446,0.00003345,0.00003712,-0.00002212,0.00003888,-0.
 00000243,-0.00000707,0.00000919,-0.00000134,0.00000451,0.00001365,-0.0
 0000930,0.00001620,-0.00002191,-0.00008102,-0.00010591,0.00013930,-0.0
 0015410,0.00015918,-0.00025525,0.00005160,0.00002365,-0.00003303,-0.00
 001200,-0.00001377,-0.00001048,0.00000987,-0.00002827,0.00000480,-0.00
 001392,0.00000387,-0.00001247,-0.00000068,0.00000054,-0.00000137,0.000
 00190,0.00001048,0.00000714,-0.00000881,0.00001162,-0.00003801,-0.0000
 1394,-0.00000278,-0.00000943,0.00000113,0.00000069,-0.00000029,0.00001
 606,-0.00000763,-0.00000003,0.00000219,-0.00000048,-0.00000444,0.00000
 512,-0.00000154,0.00002336,-0.00000100,0.00000380,-0.00000454,-0.00000
 076,0.00000165,-0.00000319,0.00000183,0.00000356,0.00000028,-0.0000017
 3,0.00000164,-0.00000159,0.00005314,0.00007098,-0.00001186,-0.00001059
 ,-0.00000220,-0.00001460,-0.00000248,0.00000366,-0.00001405,0.00000585
 ,0.00000334,0.00000325,-0.00000111,-0.00000067,-0.00000002,-0.00000034
 ,-0.00000005,0.00000099,-0.00000081,0.00000006,-0.00000164,-0.00000085
 ,0.00000012,0.00000013,0.00000024,0.00000013,0.00000013,0.00000056,-0.
 00000032,-0.00000058,-0.00052402,-0.00085154,-0.00065226,-0.00482480,-
 0.00233120,0.00294637,0.00019809,-0.00375437,0.00100059,-0.00948918,0.
 02237793,0.01361658,-0.00052477,0.00116861,0.00043984,0.01103150,-0.01
 149521,-0.00575294,0.00033072,-0.00047114,-0.00058148,-0.13601359,0.10
 540364,0.07013354,0.00062552,0.00026528,-0.00126419,0.00031682,0.00074
 805,-0.00100899,0.13903170,-0.00003291,-0.00004935,0.00002538,0.000040
 31,0.00004736,0.00004639,0.00002338,-0.00002494,-0.00002130,0.00000832
 ,0.00000383,-0.00003841,-0.00000585,0.00002025,0.00000616,-0.00001392,
 0.00000156,0.00000819,-0.00009103,-0.00002217,-0.00002858,0.00000389,0
 .00000310,-0.00001397,-0.00000235,-0.00000342,0.00000419,0.00003839,0.
 00000396,-0.00001272,0.00008210,0.00008948,-0.00012753,0.00020154,-0.0
 0021009,0.00036742,0.00000540,-0.00003866,0.00003182,0.00000732,0.0000
 1581,-0.00014020,0.00005160,-0.00004506,0.00005679,-0.00005253,0.00005
 242,0.00007912,0.00000475,-0.00000739,0.00001356,0.00000244,-0.0000130
 7,-0.00000805,0.00001074,0.00000452,0.00002139,-0.00000086,0.00000017,
 -0.00000482,-0.00000315,0.00000161,0.00000240,0.00000122,-0.00000043,0
 .00000119,-0.00000418,0.00000228,0.00000454,-0.00000484,0.00000465,-0.
 00001060,0.00000049,-0.00000072,-0.00000056,-0.00000082,0.00000039,0.0
 0000121,0.00000240,-0.00000849,-0.00000051,-0.00000184,0.00000399,0.00
 000853,0.00002370,-0.00007191,-0.00002003,0.00000649,-0.00000018,0.000
 00675,0.00000287,-0.00000392,0.00000668,-0.00000534,-0.00000087,-0.000
 00187,0.00000088,0.00000044,-0.00000014,-0.00000002,-0.00000021,0.0000
 0035,0.00000017,0.00000061,-0.00000002,0.00000063,0.00000010,-0.000000
 15,-0.00000026,-0.00000066,0.00000012,-0.00000042,0.00000014,0.0000001
 2,-0.00091671,-0.00010735,0.00074985,-0.00208306,0.00189190,-0.0015157
 3,-0.00380455,-0.00330691,-0.00282479,-0.00534298,0.00761077,0.0020271
 7,-0.00028091,0.00015315,0.00044178,0.01588597,-0.01308790,-0.01284503
 ,0.00095667,-0.00066436,-0.00029440,0.10546046,-0.20362693,-0.09506237
 ,0.00069288,0.00016556,0.00123534,0.00040423,0.00046336,0.00142397,-0.
 11123856,0.21070160,0.00002708,0.00006172,-0.00002388,-0.00009193,-0.0
 0006309,-0.00008595,-0.00001840,0.00005914,0.00005125,-0.00001808,-0.0
 0005302,0.00002343,0.00003783,-0.00001944,-0.00003649,0.00000893,0.000
 00933,0.00002775,0.00018157,0.00008045,0.00005640,0.00000694,-0.000008
 65,0.00003479,0.00000139,0.00000678,-0.00001402,-0.00009364,-0.0000025
 0,0.00005079,-0.00022422,-0.00023952,0.00028131,-0.00012730,0.00007077
 ,-0.00101273,0.00001553,0.00006293,-0.00004934,-0.00007104,0.00001533,
 0.00000694,-0.00000135,-0.00006255,0.00000653,0.00002095,-0.00003287,-
 0.00002515,0.00001490,-0.00001745,0.00000618,0.00000044,0.00000984,0.0
 0000422,-0.00000802,-0.00000009,-0.00001842,-0.00000255,0.00000139,0.0
 0000195,0.00000298,0.00000050,-0.00000328,-0.00000815,0.00000184,-0.00
 000241,0.00000825,-0.00000461,-0.00000826,-0.00003697,-0.00000615,0.00
 000261,0.00000304,-0.00000346,0.00000130,-0.00000175,0.00000390,-0.000
 00119,0.00000215,0.00002211,-0.00000064,-0.00000117,-0.00000731,-0.000
 01029,-0.00004013,0.00017529,0.00006603,0.00002251,0.00000318,0.000005
 84,0.00001830,0.00000224,-0.00000880,-0.00001434,-0.00000104,-0.000000
 05,0.00000032,-0.00000058,0.00000049,0.00000013,0.00000079,0.00000050,
 0.00000036,0.00000041,-0.00000057,0.00000198,0.00000027,0.00000044,-0.
 00000049,-0.00000018,-0.00000031,-0.00000118,-0.00000018,-0.00000026,-
 0.00040863,0.00096115,-0.00080803,0.00259680,-0.00129883,0.00576869,0.
 00075156,-0.00297693,0.00611247,0.00329136,-0.00655209,0.00316259,-0.0
 0001075,-0.00002823,-0.00073871,0.00513562,-0.00411091,0.00376700,-0.0
 0004492,0.00013357,-0.00080804,0.07020390,-0.09527619,-0.10156025,-0.0
 0109339,0.00137730,-0.00270555,-0.00129447,0.00128509,-0.00277292,-0.0
 7873258,0.10641501,0.09124273,-0.00042791,-0.00027923,-0.00004498,0.00
 017687,0.00032687,0.00077896,0.00032654,-0.00008305,-0.00011194,-0.000
 00351,0.00001416,-0.00006157,0.00010744,0.00000129,-0.00009693,-0.0000
 5242,0.00020391,0.00016887,0.00012311,0.00007578,-0.00093876,-0.000112
 58,-0.00020650,0.00035840,-0.00013931,0.00016891,-0.00018216,0.0011680
 4,-0.00130512,-0.00117455,-0.01308177,-0.02456849,-0.00092712,-0.13562
 370,-0.12178671,-0.03146108,-0.00051178,0.00028355,-0.00100282,0.00139
 486,0.00069947,0.00106679,-0.00156098,-0.00077938,-0.00073104,0.000048
 69,-0.00017637,-0.00018769,-0.00025204,0.00011794,-0.00015132,0.000012
 87,0.00004352,0.00002417,-0.00000681,0.00001680,-0.00000429,0.00001172
 ,-0.00000868,-0.00000475,-0.00000276,0.00001028,-0.00000205,0.00014915
 ,-0.00000923,-0.00004978,0.00014615,0.00003382,-0.00001916,-0.00004661
 ,-0.00005576,0.00008936,0.00011173,0.00004867,0.00002514,-0.00011547,0
 .00032204,-0.00013676,0.00048154,-0.00011523,0.00014096,0.00004528,0.0
 0082090,0.00105640,-0.00432570,0.00130824,-0.00137056,0.00006571,-0.00
 000999,-0.00000661,0.00002664,0.00011105,0.00000780,-0.00001138,0.0000
 0145,0.00000202,0.00000349,0.00000311,-0.00000257,0.00000177,-0.000000
 33,0.00000252,-0.00000026,0.00000415,-0.00000067,0.00000305,-0.0000003
 0,0.00000070,-0.00000053,-0.00000238,0.00000038,-0.00000194,-0.0000011
 2,-0.00000032,0.01067405,0.01623216,0.00643224,-0.00245535,0.00145931,
 0.00227844,0.00136163,0.00275354,-0.00024830,0.00001592,0.00110191,-0.
 00015176,0.00002849,-0.00001342,0.00006974,-0.00004323,-0.00021703,0.0
 0010897,-0.00074898,0.00032703,0.00021508,0.00033925,0.00009208,0.0000
 7066,-0.00018919,0.00026881,0.00005728,-0.00003143,0.00002537,-0.00000
 885,-0.00002985,-0.00003215,-0.00000936,0.14295148,-0.00007375,-0.0002
 7256,-0.00007425,0.00016521,0.00033936,0.00028822,0.00028218,-0.000057
 65,-0.00007464,-0.00005846,-0.00006370,-0.00005225,0.00012495,0.000028
 66,-0.00016205,-0.00012181,0.00016247,0.00024156,-0.00185431,-0.000302
 82,-0.00018420,-0.00001278,-0.00031136,-0.00009715,0.00018693,0.000272
 63,0.00017499,0.00120325,0.00078597,0.00025356,0.00285310,0.00755735,-
 0.00114472,-0.11827467,-0.24252975,-0.05378244,0.00069329,-0.00218953,
 0.00319631,0.00238133,0.00201622,0.00344487,-0.00107786,-0.00210182,-0
 .00185935,0.00017391,-0.00044975,-0.00030002,-0.00029726,0.00005653,-0
 .00026256,-0.00001028,0.00006631,0.00002273,-0.00000771,0.00000917,0.0
 0000016,0.00000670,-0.00000140,0.00001230,0.00000399,-0.00000273,-0.00
 000326,-0.00004439,-0.00000322,0.00004199,0.00007095,0.00003274,-0.000
 01708,0.00014343,0.00016497,-0.00016308,-0.00005811,-0.00009387,-0.000
 02531,0.00017118,-0.00027294,0.00012806,0.00010672,-0.00007446,-0.0000
 0065,-0.00021156,0.00046471,-0.00004897,0.00197428,0.00015981,-0.00027
 147,-0.00002408,-0.00005617,0.00004939,-0.00001241,-0.00016609,0.00011
 535,-0.00001640,0.00002409,-0.00001675,-0.00000292,-0.00000136,-0.0000
 0317,-0.00000797,-0.00000488,0.00000718,-0.00000554,0.00000278,-0.0000
 0399,-0.00000056,-0.00000075,-0.00000035,0.00000350,-0.00000567,0.0000
 0496,0.00000130,0.00000248,-0.00000329,-0.01346495,-0.01439742,-0.0055
 8835,0.00227753,-0.00134541,-0.00307069,0.00001003,-0.00004519,0.00146
 409,-0.00108586,-0.00065120,0.00049329,-0.00000234,0.00008162,0.000133
 19,0.00003718,0.00064984,0.00016195,0.00090005,0.00069407,-0.00038576,
 0.00000385,0.00007868,-0.00006058,0.00020111,-0.00017842,0.00000166,-0
 .00006577,0.00007786,-0.00001851,0.00004142,0.00005201,0.00000553,0.12
 277437,0.25179981,-0.00032026,-0.00003659,0.00030260,0.00012365,-0.000
 09527,0.00128817,0.00041634,-0.00029983,-0.00028546,0.00014637,0.00030
 121,0.00005424,-0.00014126,0.00002703,0.00024233,0.00002945,-0.0001471
 4,-0.00004344,0.00708829,0.00311109,-0.00508274,-0.00043634,0.00040088
 ,0.00153299,-0.00004676,-0.00012376,-0.00046220,0.00002619,0.00309448,
 0.00059358,0.00525446,-0.00581610,0.01355890,-0.02849449,-0.04948661,-
 0.05688724,-0.00542960,0.00181586,-0.00658438,-0.00130436,-0.00016753,
 -0.00151464,0.00024527,0.00013427,-0.00035701,0.00008914,-0.00006831,-
 0.00001215,-0.00003722,0.00009193,0.00000300,-0.00003281,0.00009461,0.
 00004366,-0.00001019,0.00003718,0.00000274,-0.00002583,0.00001814,-0.0
 0001916,0.00000589,0.00002779,-0.00000683,-0.00001050,0.00003273,-0.00
 010999,0.00025826,-0.00032911,-0.00011459,-0.00025611,-0.00012286,0.00
 016425,0.00002755,0.00005318,0.00009797,-0.00006038,0.00003654,-0.0000
 2718,0.00018937,-0.00045585,-0.00014430,-0.00024268,0.00002976,-0.0005
 1829,0.00000210,0.00121670,0.00080879,0.00005102,0.00004304,-0.0000190
 5,0.00004323,0.00001115,-0.00007871,-0.00004178,0.00001988,-0.00000201
 ,-0.00000159,0.00000036,0.00000166,0.00000732,0.00000135,0.00001187,0.
 00000373,0.00000633,-0.00000333,0.00000532,0.00000014,0.00000127,0.000
 00056,-0.00000402,-0.00000068,-0.00000142,-0.00000316,-0.00000103,-0.0
 0431197,-0.00866092,0.00937227,0.00201215,-0.00286392,0.00470326,-0.00
 069341,0.00020564,-0.00368289,-0.00112398,0.00001131,-0.00134776,-0.00
 000555,-0.00010249,-0.00005234,0.00053576,0.00076475,0.00068399,0.0004
 7753,-0.00008621,0.00013806,-0.00020682,-0.00014511,0.00040608,-0.0000
 0723,0.00008712,-0.00052174,0.00003725,-0.00007957,0.00003958,0.000033
 46,-0.00001365,0.00001331,0.02613291,0.05743358,0.04381458\\-0.0000013
 5,-0.00000384,0.00000167,0.00000284,-0.00000249,-0.00000064,-0.0000008
 3,0.00000245,0.00000364,-0.00000225,-0.00000329,-0.00000055,0.00000218
 ,0.00000030,-0.00000099,-0.00000007,0.00000263,0.00000210,0.00143913,-
 0.00179131,0.00736387,0.00000113,0.00000217,0.00000284,-0.00000063,0.0
 0000017,-0.00000138,0.00000081,-0.00000043,-0.00000151,-0.00144930,0.0
 0179165,-0.00736799,0.00032266,-0.00056896,0.00110524,-0.00031512,0.00
 056828,-0.00109849,0.00000748,-0.00000328,-0.00001747,-0.00000283,0.00
 000401,0.00000013,-0.00000303,0.00000255,0.00000177,-0.00000155,0.0000
 0296,0.00000431,-0.00000020,0.00000002,-0.00000089,-0.00000025,0.00000
 036,0.00000004,-0.00000071,-0.00000054,0.00000047,0.00000053,-0.000001
 24,0.00000075,0.00000097,-0.00000053,-0.00000064,-0.00000125,-0.000001
 04,0.00000071,0.00000002,-0.00000153,0.00000968,0.00000005,-0.00000037
 ,0.00000058,-0.00000056,-0.00000023,-0.00000085,-0.00000004,0.00000051
 ,0.00000020,0.00000058,0.00000036,0.00000152,0.00000220,0.00000040,-0.
 00000036,-0.00000543,-0.00000149,-0.00000383,0.00000087,0.00000138,-0.
 00000328,0.00000364,0.00000073,0.00000172,-0.00000039,-0.00000108,-0.0
 0000067,-0.00000105,-0.00000113,0.00000070,-0.00000077,-0.00000118,0.0
 0000050,-0.00000032,-0.00000141,0.00000219,-0.00000096,-0.00000087,0.0
 0000101,-0.00000005,-0.00000077,0.00000123,-0.00000041,0.00000048,0.00
 000020,0.00000139,0.00000055,-0.00000203,0.00000089,-0.00000032,0.0000
 0070,-0.00000168,0.00000156,0.00000030,-0.00000061,0.00000005,0.000000
 23,0.00000037,-0.00000061,-0.00000166,-0.00000061,0.00000099,-0.000001
 17,0.00000252,0.00000156,0.00000010,0.00000056,0.00000041,-0.00000043,
 0.00000045,0.00000015,-0.00000060,0.00000082,0.00000085,-0.00000121,0.
 00000023,0.00000041,-0.00000176\\\@


 KNOWLEDGE IS CHIMERA - FOR BEYOND IT LIES OTHER KNOWLEDGE,
 AND THE INCOMPLETENESS OF WHAT IS KNOWN RENDERS THE KNOWING FALSE.
     -- THE THOMAS COVENANT CHRONICLES
 Job cpu time:       5 days 17 hours 11 minutes 22.8 seconds.
 Elapsed time:       0 days  8 hours 35 minutes 42.9 seconds.
 File lengths (MBytes):  RWF=   5632 Int=      0 D2E=      0 Chk=     63 Scr=      1
 Normal termination of Gaussian 16 at Wed Jun  9 20:05:39 2021.
