 Entering Gaussian System, Link 0=g16
 Input=prenyl-first_betaine-gs3-b3lyp_d3bj-juldz-gas.gjf
 Output=prenyl-first_betaine-gs3-b3lyp_d3bj-juldz-gas.out
 Initial command:
 /SFS/product/gaussian/g16.a03/x86_64/avx/g16/l1.exe "/scratch/kwaneu.2872753.bmbhpcps002/Gau-8178.inp" -scrdir="/scratch/kwaneu.2872753.bmbhpcps002/"
 Entering Link 1 = /SFS/product/gaussian/g16.a03/x86_64/avx/g16/l1.exe PID=      8179.
  
 Copyright (c) 1988,1990,1992,1993,1995,1998,2003,2009,2016,
            Gaussian, Inc.  All Rights Reserved.
  
 This is part of the Gaussian(R) 16 program.  It is based on
 the Gaussian(R) 09 system (copyright 2009, Gaussian, Inc.),
 the Gaussian(R) 03 system (copyright 2003, Gaussian, Inc.),
 the Gaussian(R) 98 system (copyright 1998, Gaussian, Inc.),
 the Gaussian(R) 94 system (copyright 1995, Gaussian, Inc.),
 the Gaussian 92(TM) system (copyright 1992, Gaussian, Inc.),
 the Gaussian 90(TM) system (copyright 1990, Gaussian, Inc.),
 the Gaussian 88(TM) system (copyright 1988, Gaussian, Inc.),
 the Gaussian 86(TM) system (copyright 1986, Carnegie Mellon
 University), and the Gaussian 82(TM) system (copyright 1983,
 Carnegie Mellon University). Gaussian is a federally registered
 trademark of Gaussian, Inc.
  
 This software contains proprietary and confidential information,
 including trade secrets, belonging to Gaussian, Inc.
  
 This software is provided under written license and may be
 used, copied, transmitted, or stored only in accord with that
 written license.
  
 The following legend is applicable only to US Government
 contracts under FAR:
  
                    RESTRICTED RIGHTS LEGEND
  
 Use, reproduction and disclosure by the US Government is
 subject to restrictions as set forth in subparagraphs (a)
 and (c) of the Commercial Computer Software - Restricted
 Rights clause in FAR 52.227-19.
  
 Gaussian, Inc.
 340 Quinnipiac St., Bldg. 40, Wallingford CT 06492
  
  
 ---------------------------------------------------------------
 Warning -- This program may not be used in any manner that
 competes with the business of Gaussian, Inc. or will provide
 assistance to any competitor of Gaussian, Inc.  The licensee
 of this program is prohibited from giving any competitor of
 Gaussian, Inc. access to this program.  By using this program,
 the user acknowledges that Gaussian, Inc. is engaged in the
 business of creating and licensing software in the field of
 computational chemistry and represents and warrants to the
 licensee that it is not a competitor of Gaussian, Inc. and that
 it will not use this program in any manner prohibited above.
 ---------------------------------------------------------------
  

 Cite this work as:
 Gaussian 16, Revision A.03,
 M. J. Frisch, G. W. Trucks, H. B. Schlegel, G. E. Scuseria, 
 M. A. Robb, J. R. Cheeseman, G. Scalmani, V. Barone, 
 G. A. Petersson, H. Nakatsuji, X. Li, M. Caricato, A. V. Marenich, 
 J. Bloino, B. G. Janesko, R. Gomperts, B. Mennucci, H. P. Hratchian, 
 J. V. Ortiz, A. F. Izmaylov, J. L. Sonnenberg, D. Williams-Young, 
 F. Ding, F. Lipparini, F. Egidi, J. Goings, B. Peng, A. Petrone, 
 T. Henderson, D. Ranasinghe, V. G. Zakrzewski, J. Gao, N. Rega, 
 G. Zheng, W. Liang, M. Hada, M. Ehara, K. Toyota, R. Fukuda, 
 J. Hasegawa, M. Ishida, T. Nakajima, Y. Honda, O. Kitao, H. Nakai, 
 T. Vreven, K. Throssell, J. A. Montgomery, Jr., J. E. Peralta, 
 F. Ogliaro, M. J. Bearpark, J. J. Heyd, E. N. Brothers, K. N. Kudin, 
 V. N. Staroverov, T. A. Keith, R. Kobayashi, J. Normand, 
 K. Raghavachari, A. P. Rendell, J. C. Burant, S. S. Iyengar, 
 J. Tomasi, M. Cossi, J. M. Millam, M. Klene, C. Adamo, R. Cammi, 
 J. W. Ochterski, R. L. Martin, K. Morokuma, O. Farkas, 
 J. B. Foresman, and D. J. Fox, Gaussian, Inc., Wallingford CT, 2016.
 
 ******************************************
 Gaussian 16:  ES64L-G16RevA.03 25-Dec-2016
                15-Jun-2021 
 ******************************************
 %mem=16GB
 %nprocshared=16
 Will use up to   16 processors via shared memory.
 ----------------------------------------------------------------------
 #p opt=(maxstep=3) freq=noraman ub3lyp empiricaldispersion=gd3bj jul-c
 c-pvdz pop=cm5
 ----------------------------------------------------------------------
 1/8=3,18=20,19=15,26=3,38=1/1,3;
 2/9=110,12=2,17=6,18=5,40=1/2;
 3/5=16,7=50,11=2,25=1,30=1,71=1,74=-5,116=2,124=41/1,2,3;
 4//1;
 5/5=2,38=5/2;
 6/7=2,8=2,9=2,10=2,28=1,79=1/1;
 7//1,2,3,16;
 1/8=3,18=20,19=15,26=3/3(2);
 2/9=110/2;
 99//99;
 2/9=110/2;
 3/5=16,7=50,11=2,25=1,30=1,71=1,74=-5,116=2,124=41/1,2,3;
 4/5=5,16=3,69=1/1;
 5/5=2,38=5/2;
 7//1,2,3,16;
 1/8=3,18=20,19=15,26=3/3(-5);
 2/9=110/2;
 6/7=2,8=2,9=2,10=2,19=2,28=1,79=1/1;
 99/9=1/99;
 Leave Link    1 at Tue Jun 15 12:07:09 2021, MaxMem=  2147483648 cpu:               0.8 elap:               0.1
 (Enter /SFS/product/gaussian/g16.a03/x86_64/avx/g16/l101.exe)
 -----
 title
 -----
 Symbolic Z-matrix:
 Charge =  0 Multiplicity = 6
 C                     1.70777   0.47604   2.02114 
 C                     1.10279  -0.03737   0.86708 
 C                     1.29469  -1.39043   0.55976 
 C                     2.04256  -2.2153    1.39975 
 C                     2.62507  -1.69869   2.55967 
 C                     2.4585   -0.34589   2.8639 
 C                     0.30025   0.83273  -0.11217 
 C                     1.25509   1.58438  -1.15885 
 C                     1.06      3.09782  -0.97411 
 C                     0.46775   3.28682   0.42499 
 C                    -0.41612   2.01007   0.68366 
 C                    -1.76413   2.3796    0.23929 
 C                    -2.16631   2.46553  -1.14499 
 O                    -0.62419   0.07008  -0.81698 
 Fe                   -1.93544  -1.14011  -0.28451 
 Cl                   -3.82541  -0.38921  -1.29548 
 C                    -2.78244   2.59996   1.27342 
 Cl                   -1.49742  -3.21905  -0.86331 
 Cl                   -2.2096   -0.81981   1.91764 
 H                     0.85839  -1.80414  -0.34471 
 H                     2.16087  -3.26913   1.14591 
 H                     3.20441  -2.34384   3.22119 
 H                     2.91443   0.07586   3.76012 
 H                     1.62147   1.52926   2.28043 
 H                     0.93535   1.23275  -2.14458 
 C                     2.70504   1.18956  -0.96272 
 H                     0.3887    3.4959   -1.74382 
 H                     2.00942   3.63796  -1.05906 
 H                    -0.08061   4.2324    0.53785 
 H                     1.25653   3.27877   1.18608 
 H                    -0.45434   1.76867   1.74819 
 H                    -2.36162   3.04444   2.18449 
 H                    -3.07028   1.56267   1.56355 
 H                    -3.66982   3.13428   0.92141 
 H                    -2.89389   3.26617  -1.32747 
 H                    -2.76407   1.5074   -1.27121 
 H                    -1.36738   2.41789  -1.88231 
 O                     2.97521   0.02636  -1.57153 
 O                     3.51091   1.82623  -0.31366 
 C                     4.25353  -0.58399  -1.24854 
 C                     4.2784   -1.94669  -1.90618 
 H                     4.32695  -0.64894  -0.15532 
 H                     5.05468   0.07371  -1.6111 
 H                     5.23406  -2.44234  -1.68395 
 H                     4.17648  -1.86043  -2.99649 
 H                     3.4628   -2.57536  -1.52557 
 
 ITRead=  0  0  0  0  0  0  0  0  0  0  0  0  0  0  0  0  0  0  0  0
 ITRead=  0  0  0  0  0  0  0  0  0  0  0  0  0  0  0  0  0  0  0  0
 ITRead=  0  0  0  0  0  0
 MicOpt= -1 -1 -1 -1 -1 -1 -1 -1 -1 -1 -1 -1 -1 -1 -1 -1 -1 -1 -1 -1
 MicOpt= -1 -1 -1 -1 -1 -1 -1 -1 -1 -1 -1 -1 -1 -1 -1 -1 -1 -1 -1 -1
 MicOpt= -1 -1 -1 -1 -1 -1
 NAtoms=     46 NQM=       46 NQMF=       0 NMMI=      0 NMMIF=      0
                NMic=       0 NMicF=      0.
                    Isotopes and Nuclear Properties:
 (Nuclear quadrupole moments (NQMom) in fm**2, nuclear magnetic moments (NMagM)
  in nuclear magnetons)

  Atom         1           2           3           4           5           6           7           8           9          10
 IAtWgt=          12          12          12          12          12          12          12          12          12          12
 AtmWgt=  12.0000000  12.0000000  12.0000000  12.0000000  12.0000000  12.0000000  12.0000000  12.0000000  12.0000000  12.0000000
 NucSpn=           0           0           0           0           0           0           0           0           0           0
 AtZEff=  -0.0000000  -0.0000000  -0.0000000  -0.0000000  -0.0000000  -0.0000000  -0.0000000  -0.0000000  -0.0000000  -0.0000000
 NQMom=    0.0000000   0.0000000   0.0000000   0.0000000   0.0000000   0.0000000   0.0000000   0.0000000   0.0000000   0.0000000
 NMagM=    0.0000000   0.0000000   0.0000000   0.0000000   0.0000000   0.0000000   0.0000000   0.0000000   0.0000000   0.0000000
 AtZNuc=   6.0000000   6.0000000   6.0000000   6.0000000   6.0000000   6.0000000   6.0000000   6.0000000   6.0000000   6.0000000

  Atom        11          12          13          14          15          16          17          18          19          20
 IAtWgt=          12          12          12          16          56          35          12          35          35           1
 AtmWgt=  12.0000000  12.0000000  12.0000000  15.9949146  55.9349393  34.9688527  12.0000000  34.9688527  34.9688527   1.0078250
 NucSpn=           0           0           0           0           0           3           0           3           3           1
 AtZEff=  -0.0000000  -0.0000000  -0.0000000  -0.0000000  -0.0000000  -0.0000000  -0.0000000  -0.0000000  -0.0000000  -0.0000000
 NQMom=    0.0000000   0.0000000   0.0000000   0.0000000   0.0000000  -8.1650000   0.0000000  -8.1650000  -8.1650000   0.0000000
 NMagM=    0.0000000   0.0000000   0.0000000   0.0000000   0.0000000   0.8218740   0.0000000   0.8218740   0.8218740   2.7928460
 AtZNuc=   6.0000000   6.0000000   6.0000000   8.0000000  26.0000000  17.0000000   6.0000000  17.0000000  17.0000000   1.0000000

  Atom        21          22          23          24          25          26          27          28          29          30
 IAtWgt=           1           1           1           1           1          12           1           1           1           1
 AtmWgt=   1.0078250   1.0078250   1.0078250   1.0078250   1.0078250  12.0000000   1.0078250   1.0078250   1.0078250   1.0078250
 NucSpn=           1           1           1           1           1           0           1           1           1           1
 AtZEff=  -0.0000000  -0.0000000  -0.0000000  -0.0000000  -0.0000000  -0.0000000  -0.0000000  -0.0000000  -0.0000000  -0.0000000
 NQMom=    0.0000000   0.0000000   0.0000000   0.0000000   0.0000000   0.0000000   0.0000000   0.0000000   0.0000000   0.0000000
 NMagM=    2.7928460   2.7928460   2.7928460   2.7928460   2.7928460   0.0000000   2.7928460   2.7928460   2.7928460   2.7928460
 AtZNuc=   1.0000000   1.0000000   1.0000000   1.0000000   1.0000000   6.0000000   1.0000000   1.0000000   1.0000000   1.0000000

  Atom        31          32          33          34          35          36          37          38          39          40
 IAtWgt=           1           1           1           1           1           1           1          16          16          12
 AtmWgt=   1.0078250   1.0078250   1.0078250   1.0078250   1.0078250   1.0078250   1.0078250  15.9949146  15.9949146  12.0000000
 NucSpn=           1           1           1           1           1           1           1           0           0           0
 AtZEff=  -0.0000000  -0.0000000  -0.0000000  -0.0000000  -0.0000000  -0.0000000  -0.0000000  -0.0000000  -0.0000000  -0.0000000
 NQMom=    0.0000000   0.0000000   0.0000000   0.0000000   0.0000000   0.0000000   0.0000000   0.0000000   0.0000000   0.0000000
 NMagM=    2.7928460   2.7928460   2.7928460   2.7928460   2.7928460   2.7928460   2.7928460   0.0000000   0.0000000   0.0000000
 AtZNuc=   1.0000000   1.0000000   1.0000000   1.0000000   1.0000000   1.0000000   1.0000000   8.0000000   8.0000000   6.0000000

  Atom        41          42          43          44          45          46
 IAtWgt=          12           1           1           1           1           1
 AtmWgt=  12.0000000   1.0078250   1.0078250   1.0078250   1.0078250   1.0078250
 NucSpn=           0           1           1           1           1           1
 AtZEff=  -0.0000000  -0.0000000  -0.0000000  -0.0000000  -0.0000000  -0.0000000
 NQMom=    0.0000000   0.0000000   0.0000000   0.0000000   0.0000000   0.0000000
 NMagM=    0.0000000   2.7928460   2.7928460   2.7928460   2.7928460   2.7928460
 AtZNuc=   6.0000000   1.0000000   1.0000000   1.0000000   1.0000000   1.0000000
 Leave Link  101 at Tue Jun 15 12:07:09 2021, MaxMem=  2147483648 cpu:               5.0 elap:               0.3
 (Enter /SFS/product/gaussian/g16.a03/x86_64/avx/g16/l103.exe)

 GradGradGradGradGradGradGradGradGradGradGradGradGradGradGradGradGradGrad
 Berny optimization.
 Initialization pass.
                           ----------------------------
                           !    Initial Parameters    !
                           ! (Angstroms and Degrees)  !
 --------------------------                            --------------------------
 ! Name  Definition              Value          Derivative Info.                !
 --------------------------------------------------------------------------------
 ! R1    R(1,2)                  1.4005         estimate D2E/DX2                !
 ! R2    R(1,6)                  1.3962         estimate D2E/DX2                !
 ! R3    R(1,24)                 1.0881         estimate D2E/DX2                !
 ! R4    R(2,3)                  1.4007         estimate D2E/DX2                !
 ! R5    R(2,7)                  1.5363         estimate D2E/DX2                !
 ! R6    R(3,4)                  1.3947         estimate D2E/DX2                !
 ! R7    R(3,20)                 1.0861         estimate D2E/DX2                !
 ! R8    R(4,5)                  1.397          estimate D2E/DX2                !
 ! R9    R(4,21)                 1.0904         estimate D2E/DX2                !
 ! R10   R(5,6)                  1.3966         estimate D2E/DX2                !
 ! R11   R(5,22)                 1.0906         estimate D2E/DX2                !
 ! R12   R(6,23)                 1.0904         estimate D2E/DX2                !
 ! R13   R(7,8)                  1.6038         estimate D2E/DX2                !
 ! R14   R(7,11)                 1.5914         estimate D2E/DX2                !
 ! R15   R(7,14)                 1.3903         estimate D2E/DX2                !
 ! R16   R(8,9)                  1.5371         estimate D2E/DX2                !
 ! R17   R(8,25)                 1.0943         estimate D2E/DX2                !
 ! R18   R(8,26)                 1.5155         estimate D2E/DX2                !
 ! R19   R(9,10)                 1.531          estimate D2E/DX2                !
 ! R20   R(9,27)                 1.0962         estimate D2E/DX2                !
 ! R21   R(9,28)                 1.0956         estimate D2E/DX2                !
 ! R22   R(10,11)                1.5742         estimate D2E/DX2                !
 ! R23   R(10,29)                1.0989         estimate D2E/DX2                !
 ! R24   R(10,30)                1.0961         estimate D2E/DX2                !
 ! R25   R(11,12)                1.4667         estimate D2E/DX2                !
 ! R26   R(11,31)                1.0922         estimate D2E/DX2                !
 ! R27   R(12,13)                1.4441         estimate D2E/DX2                !
 ! R28   R(12,17)                1.468          estimate D2E/DX2                !
 ! R29   R(13,35)                1.0971         estimate D2E/DX2                !
 ! R30   R(13,36)                1.1363         estimate D2E/DX2                !
 ! R31   R(13,37)                1.0882         estimate D2E/DX2                !
 ! R32   R(14,15)                1.8621         estimate D2E/DX2                !
 ! R33   R(15,16)                2.2711         estimate D2E/DX2                !
 ! R34   R(15,18)                2.202          estimate D2E/DX2                !
 ! R35   R(15,19)                2.2421         estimate D2E/DX2                !
 ! R36   R(17,32)                1.0976         estimate D2E/DX2                !
 ! R37   R(17,33)                1.1149         estimate D2E/DX2                !
 ! R38   R(17,34)                1.094          estimate D2E/DX2                !
 ! R39   R(26,38)                1.3404         estimate D2E/DX2                !
 ! R40   R(26,39)                1.2149         estimate D2E/DX2                !
 ! R41   R(38,40)                1.4529         estimate D2E/DX2                !
 ! R42   R(40,41)                1.5133         estimate D2E/DX2                !
 ! R43   R(40,42)                1.0976         estimate D2E/DX2                !
 ! R44   R(40,43)                1.0981         estimate D2E/DX2                !
 ! R45   R(41,44)                1.0992         estimate D2E/DX2                !
 ! R46   R(41,45)                1.0985         estimate D2E/DX2                !
 ! R47   R(41,46)                1.0979         estimate D2E/DX2                !
 ! A1    A(2,1,6)              120.9205         estimate D2E/DX2                !
 ! A2    A(2,1,24)             121.127          estimate D2E/DX2                !
 ! A3    A(6,1,24)             117.9452         estimate D2E/DX2                !
 ! A4    A(1,2,3)              118.4064         estimate D2E/DX2                !
 ! A5    A(1,2,7)              122.908          estimate D2E/DX2                !
 ! A6    A(3,2,7)              118.6083         estimate D2E/DX2                !
 ! A7    A(2,3,4)              120.8378         estimate D2E/DX2                !
 ! A8    A(2,3,20)             119.7115         estimate D2E/DX2                !
 ! A9    A(4,3,20)             119.4505         estimate D2E/DX2                !
 ! A10   A(3,4,5)              120.3267         estimate D2E/DX2                !
 ! A11   A(3,4,21)             119.311          estimate D2E/DX2                !
 ! A12   A(5,4,21)             120.3605         estimate D2E/DX2                !
 ! A13   A(4,5,6)              119.2979         estimate D2E/DX2                !
 ! A14   A(4,5,22)             120.4215         estimate D2E/DX2                !
 ! A15   A(6,5,22)             120.2806         estimate D2E/DX2                !
 ! A16   A(1,6,5)              120.1908         estimate D2E/DX2                !
 ! A17   A(1,6,23)             119.5546         estimate D2E/DX2                !
 ! A18   A(5,6,23)             120.2545         estimate D2E/DX2                !
 ! A19   A(2,7,8)              111.7417         estimate D2E/DX2                !
 ! A20   A(2,7,11)             109.597          estimate D2E/DX2                !
 ! A21   A(2,7,14)             111.0882         estimate D2E/DX2                !
 ! A22   A(8,7,11)             104.3373         estimate D2E/DX2                !
 ! A23   A(8,7,14)             108.7903         estimate D2E/DX2                !
 ! A24   A(11,7,14)            111.1011         estimate D2E/DX2                !
 ! A25   A(7,8,9)              107.9054         estimate D2E/DX2                !
 ! A26   A(7,8,25)             105.2664         estimate D2E/DX2                !
 ! A27   A(7,8,26)             111.2879         estimate D2E/DX2                !
 ! A28   A(9,8,25)             112.8021         estimate D2E/DX2                !
 ! A29   A(9,8,26)             111.2472         estimate D2E/DX2                !
 ! A30   A(25,8,26)            108.2045         estimate D2E/DX2                !
 ! A31   A(8,9,10)             106.2891         estimate D2E/DX2                !
 ! A32   A(8,9,27)             110.543          estimate D2E/DX2                !
 ! A33   A(8,9,28)             111.4757         estimate D2E/DX2                !
 ! A34   A(10,9,27)            111.0973         estimate D2E/DX2                !
 ! A35   A(10,9,28)            110.1953         estimate D2E/DX2                !
 ! A36   A(27,9,28)            107.2894         estimate D2E/DX2                !
 ! A37   A(9,10,11)            105.4994         estimate D2E/DX2                !
 ! A38   A(9,10,29)            113.1491         estimate D2E/DX2                !
 ! A39   A(9,10,30)            110.8083         estimate D2E/DX2                !
 ! A40   A(11,10,29)           113.63           estimate D2E/DX2                !
 ! A41   A(11,10,30)           106.4978         estimate D2E/DX2                !
 ! A42   A(29,10,30)           107.1037         estimate D2E/DX2                !
 ! A43   A(7,11,10)            105.3725         estimate D2E/DX2                !
 ! A44   A(7,11,12)            116.6541         estimate D2E/DX2                !
 ! A45   A(7,11,31)            109.8546         estimate D2E/DX2                !
 ! A46   A(10,11,12)           105.1836         estimate D2E/DX2                !
 ! A47   A(10,11,31)           111.0414         estimate D2E/DX2                !
 ! A48   A(12,11,31)           108.5913         estimate D2E/DX2                !
 ! A49   A(11,12,13)           124.1518         estimate D2E/DX2                !
 ! A50   A(11,12,17)           117.5126         estimate D2E/DX2                !
 ! A51   A(13,12,17)           118.2404         estimate D2E/DX2                !
 ! A52   A(12,13,35)           112.8024         estimate D2E/DX2                !
 ! A53   A(12,13,36)           101.701          estimate D2E/DX2                !
 ! A54   A(12,13,37)           116.2588         estimate D2E/DX2                !
 ! A55   A(35,13,36)           104.3583         estimate D2E/DX2                !
 ! A56   A(35,13,37)           113.9619         estimate D2E/DX2                !
 ! A57   A(36,13,37)           105.9043         estimate D2E/DX2                !
 ! A58   A(7,14,15)            132.8244         estimate D2E/DX2                !
 ! A59   A(14,15,16)           104.1129         estimate D2E/DX2                !
 ! A60   A(14,15,18)           113.4746         estimate D2E/DX2                !
 ! A61   A(14,15,19)           105.9091         estimate D2E/DX2                !
 ! A62   A(16,15,18)           111.1421         estimate D2E/DX2                !
 ! A63   A(16,15,19)           106.7509         estimate D2E/DX2                !
 ! A64   A(18,15,19)           114.668          estimate D2E/DX2                !
 ! A65   A(12,17,32)           112.3079         estimate D2E/DX2                !
 ! A66   A(12,17,33)           102.8708         estimate D2E/DX2                !
 ! A67   A(12,17,34)           114.1613         estimate D2E/DX2                !
 ! A68   A(32,17,33)           105.0555         estimate D2E/DX2                !
 ! A69   A(32,17,34)           112.3514         estimate D2E/DX2                !
 ! A70   A(33,17,34)           109.1913         estimate D2E/DX2                !
 ! A71   A(8,26,38)            111.1092         estimate D2E/DX2                !
 ! A72   A(8,26,39)            124.5577         estimate D2E/DX2                !
 ! A73   A(38,26,39)           124.313          estimate D2E/DX2                !
 ! A74   A(26,38,40)           116.1627         estimate D2E/DX2                !
 ! A75   A(38,40,41)           107.2257         estimate D2E/DX2                !
 ! A76   A(38,40,42)           107.7665         estimate D2E/DX2                !
 ! A77   A(38,40,43)           108.4751         estimate D2E/DX2                !
 ! A78   A(41,40,42)           112.238          estimate D2E/DX2                !
 ! A79   A(41,40,43)           112.5725         estimate D2E/DX2                !
 ! A80   A(42,40,43)           108.39           estimate D2E/DX2                !
 ! A81   A(40,41,44)           109.4185         estimate D2E/DX2                !
 ! A82   A(40,41,45)           111.0462         estimate D2E/DX2                !
 ! A83   A(40,41,46)           110.6574         estimate D2E/DX2                !
 ! A84   A(44,41,45)           108.4656         estimate D2E/DX2                !
 ! A85   A(44,41,46)           108.5163         estimate D2E/DX2                !
 ! A86   A(45,41,46)           108.6715         estimate D2E/DX2                !
 ! D1    D(6,1,2,3)             -1.4948         estimate D2E/DX2                !
 ! D2    D(6,1,2,7)           -178.2497         estimate D2E/DX2                !
 ! D3    D(24,1,2,3)           177.4995         estimate D2E/DX2                !
 ! D4    D(24,1,2,7)             0.7446         estimate D2E/DX2                !
 ! D5    D(2,1,6,5)              0.4612         estimate D2E/DX2                !
 ! D6    D(2,1,6,23)          -179.6056         estimate D2E/DX2                !
 ! D7    D(24,1,6,5)          -178.5642         estimate D2E/DX2                !
 ! D8    D(24,1,6,23)            1.369          estimate D2E/DX2                !
 ! D9    D(1,2,3,4)              1.5692         estimate D2E/DX2                !
 ! D10   D(1,2,3,20)          -178.2931         estimate D2E/DX2                !
 ! D11   D(7,2,3,4)            178.466          estimate D2E/DX2                !
 ! D12   D(7,2,3,20)            -1.3962         estimate D2E/DX2                !
 ! D13   D(1,2,7,8)             83.191          estimate D2E/DX2                !
 ! D14   D(1,2,7,11)           -31.9575         estimate D2E/DX2                !
 ! D15   D(1,2,7,14)          -155.1105         estimate D2E/DX2                !
 ! D16   D(3,2,7,8)            -93.5577         estimate D2E/DX2                !
 ! D17   D(3,2,7,11)           151.2938         estimate D2E/DX2                !
 ! D18   D(3,2,7,14)            28.1409         estimate D2E/DX2                !
 ! D19   D(2,3,4,5)             -0.6121         estimate D2E/DX2                !
 ! D20   D(2,3,4,21)           178.8886         estimate D2E/DX2                !
 ! D21   D(20,3,4,5)           179.2506         estimate D2E/DX2                !
 ! D22   D(20,3,4,21)           -1.2488         estimate D2E/DX2                !
 ! D23   D(3,4,5,6)             -0.453          estimate D2E/DX2                !
 ! D24   D(3,4,5,22)           179.5762         estimate D2E/DX2                !
 ! D25   D(21,4,5,6)          -179.9484         estimate D2E/DX2                !
 ! D26   D(21,4,5,22)            0.0809         estimate D2E/DX2                !
 ! D27   D(4,5,6,1)              0.5274         estimate D2E/DX2                !
 ! D28   D(4,5,6,23)          -179.4054         estimate D2E/DX2                !
 ! D29   D(22,5,6,1)          -179.5018         estimate D2E/DX2                !
 ! D30   D(22,5,6,23)            0.5655         estimate D2E/DX2                !
 ! D31   D(2,7,8,9)           -119.368          estimate D2E/DX2                !
 ! D32   D(2,7,8,25)           119.9442         estimate D2E/DX2                !
 ! D33   D(2,7,8,26)             2.95           estimate D2E/DX2                !
 ! D34   D(11,7,8,9)            -1.0332         estimate D2E/DX2                !
 ! D35   D(11,7,8,25)         -121.721          estimate D2E/DX2                !
 ! D36   D(11,7,8,26)          121.2848         estimate D2E/DX2                !
 ! D37   D(14,7,8,9)           117.6175         estimate D2E/DX2                !
 ! D38   D(14,7,8,25)           -3.0703         estimate D2E/DX2                !
 ! D39   D(14,7,8,26)         -120.0645         estimate D2E/DX2                !
 ! D40   D(2,7,11,10)          101.5495         estimate D2E/DX2                !
 ! D41   D(2,7,11,12)         -142.2235         estimate D2E/DX2                !
 ! D42   D(2,7,11,31)          -18.1317         estimate D2E/DX2                !
 ! D43   D(8,7,11,10)          -18.2413         estimate D2E/DX2                !
 ! D44   D(8,7,11,12)           97.9857         estimate D2E/DX2                !
 ! D45   D(8,7,11,31)         -137.9225         estimate D2E/DX2                !
 ! D46   D(14,7,11,10)        -135.3052         estimate D2E/DX2                !
 ! D47   D(14,7,11,12)         -19.0782         estimate D2E/DX2                !
 ! D48   D(14,7,11,31)         105.0136         estimate D2E/DX2                !
 ! D49   D(2,7,14,15)           51.3842         estimate D2E/DX2                !
 ! D50   D(8,7,14,15)          174.7901         estimate D2E/DX2                !
 ! D51   D(11,7,14,15)         -70.9004         estimate D2E/DX2                !
 ! D52   D(7,8,9,10)            20.581          estimate D2E/DX2                !
 ! D53   D(7,8,9,27)          -100.0813         estimate D2E/DX2                !
 ! D54   D(7,8,9,28)           140.6773         estimate D2E/DX2                !
 ! D55   D(25,8,9,10)          136.43           estimate D2E/DX2                !
 ! D56   D(25,8,9,27)           15.7676         estimate D2E/DX2                !
 ! D57   D(25,8,9,28)         -103.4738         estimate D2E/DX2                !
 ! D58   D(26,8,9,10)         -101.762          estimate D2E/DX2                !
 ! D59   D(26,8,9,27)          137.5757         estimate D2E/DX2                !
 ! D60   D(26,8,9,28)           18.3343         estimate D2E/DX2                !
 ! D61   D(7,8,26,38)           81.9956         estimate D2E/DX2                !
 ! D62   D(7,8,26,39)          -96.4282         estimate D2E/DX2                !
 ! D63   D(9,8,26,38)         -157.6381         estimate D2E/DX2                !
 ! D64   D(9,8,26,39)           23.9381         estimate D2E/DX2                !
 ! D65   D(25,8,26,38)         -33.1943         estimate D2E/DX2                !
 ! D66   D(25,8,26,39)         148.3818         estimate D2E/DX2                !
 ! D67   D(8,9,10,11)          -32.2237         estimate D2E/DX2                !
 ! D68   D(8,9,10,29)         -157.0398         estimate D2E/DX2                !
 ! D69   D(8,9,10,30)           82.6517         estimate D2E/DX2                !
 ! D70   D(27,9,10,11)          88.0806         estimate D2E/DX2                !
 ! D71   D(27,9,10,29)         -36.7355         estimate D2E/DX2                !
 ! D72   D(27,9,10,30)        -157.044          estimate D2E/DX2                !
 ! D73   D(28,9,10,11)        -153.1469         estimate D2E/DX2                !
 ! D74   D(28,9,10,29)          82.037          estimate D2E/DX2                !
 ! D75   D(28,9,10,30)         -38.2714         estimate D2E/DX2                !
 ! D76   D(9,10,11,7)           31.3754         estimate D2E/DX2                !
 ! D77   D(9,10,11,12)         -92.4517         estimate D2E/DX2                !
 ! D78   D(9,10,11,31)         150.2677         estimate D2E/DX2                !
 ! D79   D(29,10,11,7)         155.8907         estimate D2E/DX2                !
 ! D80   D(29,10,11,12)         32.0636         estimate D2E/DX2                !
 ! D81   D(29,10,11,31)        -85.217          estimate D2E/DX2                !
 ! D82   D(30,10,11,7)         -86.4391         estimate D2E/DX2                !
 ! D83   D(30,10,11,12)        149.7338         estimate D2E/DX2                !
 ! D84   D(30,10,11,31)         32.4532         estimate D2E/DX2                !
 ! D85   D(7,11,12,13)         -40.5704         estimate D2E/DX2                !
 ! D86   D(7,11,12,17)         135.8099         estimate D2E/DX2                !
 ! D87   D(10,11,12,13)         75.7612         estimate D2E/DX2                !
 ! D88   D(10,11,12,17)       -107.8585         estimate D2E/DX2                !
 ! D89   D(31,11,12,13)       -165.3051         estimate D2E/DX2                !
 ! D90   D(31,11,12,17)         11.0752         estimate D2E/DX2                !
 ! D91   D(11,12,13,35)       -145.1681         estimate D2E/DX2                !
 ! D92   D(11,12,13,36)        103.6219         estimate D2E/DX2                !
 ! D93   D(11,12,13,37)        -10.8485         estimate D2E/DX2                !
 ! D94   D(17,12,13,35)         38.4761         estimate D2E/DX2                !
 ! D95   D(17,12,13,36)        -72.734          estimate D2E/DX2                !
 ! D96   D(17,12,13,37)        172.7957         estimate D2E/DX2                !
 ! D97   D(11,12,17,32)         34.3808         estimate D2E/DX2                !
 ! D98   D(11,12,17,33)        -78.0615         estimate D2E/DX2                !
 ! D99   D(11,12,17,34)        163.7694         estimate D2E/DX2                !
 ! D100  D(13,12,17,32)       -149.0192         estimate D2E/DX2                !
 ! D101  D(13,12,17,33)         98.5385         estimate D2E/DX2                !
 ! D102  D(13,12,17,34)        -19.6306         estimate D2E/DX2                !
 ! D103  D(7,14,15,16)         127.3846         estimate D2E/DX2                !
 ! D104  D(7,14,15,18)        -111.6411         estimate D2E/DX2                !
 ! D105  D(7,14,15,19)          15.0088         estimate D2E/DX2                !
 ! D106  D(8,26,38,40)        -168.7401         estimate D2E/DX2                !
 ! D107  D(39,26,38,40)          9.6884         estimate D2E/DX2                !
 ! D108  D(26,38,40,41)        173.3765         estimate D2E/DX2                !
 ! D109  D(26,38,40,42)         52.3514         estimate D2E/DX2                !
 ! D110  D(26,38,40,43)        -64.7999         estimate D2E/DX2                !
 ! D111  D(38,40,41,44)       -179.9953         estimate D2E/DX2                !
 ! D112  D(38,40,41,45)         60.3026         estimate D2E/DX2                !
 ! D113  D(38,40,41,46)        -60.4724         estimate D2E/DX2                !
 ! D114  D(42,40,41,44)        -61.8372         estimate D2E/DX2                !
 ! D115  D(42,40,41,45)        178.4607         estimate D2E/DX2                !
 ! D116  D(42,40,41,46)         57.6857         estimate D2E/DX2                !
 ! D117  D(43,40,41,44)         60.7835         estimate D2E/DX2                !
 ! D118  D(43,40,41,45)        -58.9186         estimate D2E/DX2                !
 ! D119  D(43,40,41,46)       -179.6936         estimate D2E/DX2                !
 --------------------------------------------------------------------------------
 Trust Radius=3.00D-02 FncErr=1.00D-07 GrdErr=1.00D-06 EigMax=2.50D+02 EigMin=1.00D-04
 Number of steps in this run=    262 maximum allowed number of steps=    276.
 GradGradGradGradGradGradGradGradGradGradGradGradGradGradGradGradGradGrad

 Leave Link  103 at Tue Jun 15 12:07:09 2021, MaxMem=  2147483648 cpu:               0.3 elap:               0.0
 (Enter /SFS/product/gaussian/g16.a03/x86_64/avx/g16/l202.exe)
                          Input orientation:                          
 ---------------------------------------------------------------------
 Center     Atomic      Atomic             Coordinates (Angstroms)
 Number     Number       Type             X           Y           Z
 ---------------------------------------------------------------------
      1          6           0        1.707772    0.476040    2.021142
      2          6           0        1.102791   -0.037370    0.867078
      3          6           0        1.294690   -1.390433    0.559757
      4          6           0        2.042556   -2.215299    1.399750
      5          6           0        2.625070   -1.698688    2.559673
      6          6           0        2.458498   -0.345889    2.863903
      7          6           0        0.300253    0.832729   -0.112172
      8          6           0        1.255093    1.584379   -1.158846
      9          6           0        1.059997    3.097815   -0.974106
     10          6           0        0.467746    3.286821    0.424986
     11          6           0       -0.416119    2.010072    0.683656
     12          6           0       -1.764134    2.379595    0.239289
     13          6           0       -2.166307    2.465529   -1.144990
     14          8           0       -0.624186    0.070076   -0.816982
     15         26           0       -1.935435   -1.140113   -0.284510
     16         17           0       -3.825409   -0.389211   -1.295476
     17          6           0       -2.782437    2.599956    1.273420
     18         17           0       -1.497418   -3.219048   -0.863314
     19         17           0       -2.209601   -0.819808    1.917638
     20          1           0        0.858386   -1.804144   -0.344705
     21          1           0        2.160865   -3.269126    1.145910
     22          1           0        3.204412   -2.343840    3.221190
     23          1           0        2.914432    0.075855    3.760119
     24          1           0        1.621467    1.529258    2.280433
     25          1           0        0.935347    1.232748   -2.144579
     26          6           0        2.705039    1.189562   -0.962721
     27          1           0        0.388700    3.495904   -1.743817
     28          1           0        2.009425    3.637962   -1.059063
     29          1           0       -0.080611    4.232397    0.537847
     30          1           0        1.256529    3.278768    1.186078
     31          1           0       -0.454337    1.768674    1.748194
     32          1           0       -2.361624    3.044437    2.184485
     33          1           0       -3.070282    1.562667    1.563548
     34          1           0       -3.669816    3.134276    0.921405
     35          1           0       -2.893886    3.266168   -1.327470
     36          1           0       -2.764068    1.507399   -1.271211
     37          1           0       -1.367381    2.417890   -1.882305
     38          8           0        2.975213    0.026360   -1.571531
     39          8           0        3.510906    1.826229   -0.313664
     40          6           0        4.253527   -0.583993   -1.248537
     41          6           0        4.278400   -1.946687   -1.906178
     42          1           0        4.326955   -0.648944   -0.155316
     43          1           0        5.054683    0.073706   -1.611102
     44          1           0        5.234061   -2.442342   -1.683950
     45          1           0        4.176480   -1.860433   -2.996488
     46          1           0        3.462795   -2.575360   -1.525573
 ---------------------------------------------------------------------
                    Distance matrix (angstroms):
                    1          2          3          4          5
     1  C    0.000000
     2  C    1.400520   0.000000
     3  C    2.406243   1.400732   0.000000
     4  C    2.782358   2.431105   1.394739   0.000000
     5  C    2.420928   2.818189   2.421693   1.397008   0.000000
     6  C    1.396210   2.433195   2.784710   2.410694   1.396555
     7  C    2.580575   1.536252   2.526429   3.822565   4.353344
     8  C    3.397890   2.599545   3.435793   4.648017   5.146139
     9  C    4.032968   3.636093   4.748914   5.901677   6.159829
    10  C    3.462061   3.413059   4.751705   5.805473   5.836629
    11  C    2.941604   2.555924   3.808629   4.940813   5.150065
    12  C    4.341964   3.801986   4.865410   6.078701   6.425083
    13  C    5.384324   4.582567   5.454641   6.789726   7.350002
    14  O    3.695644   2.414550   2.776793   4.153114   5.008791
    15  Fe   4.604448   3.431183   3.348008   4.451648   5.403664
    16  Cl   6.508818   5.393291   5.537125   6.710578   7.627948
    17  C    5.023155   4.713343   5.749390   6.817859   7.026658
    18  Cl   5.678645   4.458522   3.628337   4.319767   5.569851
    19  Cl   4.127438   3.561998   3.801251   4.505157   4.955672
    20  H    3.393807   2.156303   1.086080   2.148122   3.401133
    21  H    3.872673   3.411966   2.150191   1.090405   2.163443
    22  H    3.410538   3.908767   3.411634   2.164273   1.090625
    23  H    2.154116   3.415340   3.875033   3.403072   2.161898
    24  H    1.088094   2.172768   3.404718   3.869706   3.391877
    25  H    4.303775   3.272815   3.784658   5.067268   5.794693
    26  C    3.226003   2.724101   3.311102   4.196812   4.555836
    27  H    5.003443   4.450924   5.477551   6.725704   7.106698
    28  H    4.424523   4.247360   5.330683   6.348821   6.477199
    29  H    4.416865   4.442943   5.788622   6.842770   6.825413
    30  H    2.959094   3.334991   4.711175   5.554122   5.341791
    31  H    2.533795   2.542205   3.801504   4.714650   4.707849
    32  H    4.814907   4.820297   5.972976   6.904885   6.892396
    33  H    4.921377   4.523243   5.364828   6.359321   6.638203
    34  H    6.098696   5.730625   6.726820   7.840788   8.103521
    35  H    6.338239   5.630527   6.541386   7.864647   8.379651
    36  H    5.648065   4.680939   5.312569   6.640493   7.348297
    37  H    5.335189   4.437247   5.249154   6.623141   7.253761
    38  O    3.836133   3.075197   3.061674   3.837108   4.490572
    39  O    3.244321   3.265910   4.002673   4.628800   4.633121
    40  C    4.277305   3.834288   3.560195   3.816147   4.289158
    41  C    5.282194   4.628275   3.910598   4.000039   4.768525
    42  H    3.586458   3.437229   3.202463   3.176504   3.371875
    43  H    4.955490   4.665958   4.581908   4.835047   5.141961
    44  H    5.888920   5.418397   4.653964   4.443699   5.036685
    45  H    6.060548   5.262914   4.601358   4.899640   5.770958
    46  H    4.997033   4.211388   3.233161   3.271733   4.261405
                    6          7          8          9         10
     6  C    0.000000
     7  C    3.860594   0.000000
     8  C    4.621323   1.603815   0.000000
     9  C    5.342772   2.539834   1.537101   0.000000
    10  C    4.807077   2.517769   2.454944   1.530994   0.000000
    11  C    4.308997   1.591436   2.523683   2.471898   1.574235
    12  C    5.669875   2.603462   3.420947   3.156562   2.416367
    13  C    6.735289   3.133156   3.533072   3.292115   3.174520
    14  O    4.819220   1.390318   2.437555   3.468193   3.616939
    15  Fe   5.463510   2.986655   4.285649   5.235283   5.086886
    16  Cl   7.535901   4.462559   5.452085   6.010809   5.907993
    17  C    6.218926   3.813913   4.821718   4.479234   3.428602
    18  Cl   6.147883   4.495857   5.544057   6.815820   6.917219
    19  Cl   4.786561   3.626344   5.220055   5.865170   5.124510
    20  H    3.870663   2.705307   3.507462   4.946311   5.163618
    21  H    3.403733   4.676522   5.448746   6.800317   6.809319
    22  H    2.162371   5.443899   6.198021   7.197960   6.856562
    23  H    1.090388   4.733015   5.406040   5.914732   5.236381
    24  H    2.134768   2.820517   3.459177   3.656179   2.804066
    25  H    5.467813   2.166573   1.094327   2.205452   3.322729
    26  C    4.130550   2.575608   1.515483   2.519469   3.365963
    27  H    6.346221   3.124514   2.178705   1.096161   2.180291
    28  H    5.609135   3.418655   2.190017   1.095623   2.168519
    29  H    5.728727   3.482144   3.416851   2.207774   1.098884
    30  H    4.171087   2.929680   2.893030   2.176640   1.096132
    31  H    3.768394   2.215031   3.377425   3.386848   2.214924
    32  H    5.932073   4.153538   5.137146   4.656934   3.340647
    33  H    5.991737   3.834234   5.110848   5.084837   4.097154
    34  H    7.310341   4.703918   5.566359   5.095628   4.170027
    35  H    7.698219   4.195366   4.480053   3.973210   3.791055
    36  H    6.914408   3.344939   4.021468   4.152248   4.060548
    37  H    6.693453   2.902948   2.845260   2.679419   3.073487
    38  O    4.480919   3.152042   2.357232   3.668624   4.572098
    39  O    3.990312   3.366888   2.421057   2.839026   3.455395
    40  C    4.493438   4.350494   3.701417   4.881563   5.667100
    41  C    5.350539   5.173902   4.708218   6.055896   6.880771
    42  H    3.563518   4.290868   3.928249   5.038019   5.542607
    43  H    5.190559   5.042570   4.113825   5.050596   5.959006
    44  H    5.725542   6.126911   5.685279   6.972806   7.745236
    45  H    6.292018   5.531504   4.876285   6.195702   7.208011
    46  H    5.024605   4.859470   4.723544   6.185666   6.865870
                   11         12         13         14         15
    11  C    0.000000
    12  C    1.466681   0.000000
    13  C    2.571876   1.444076   0.000000
    14  O    2.461461   2.783715   2.867738   0.000000
    15  Fe   3.628957   3.562591   3.714079   1.862111   0.000000
    16  Cl   4.614844   3.777651   3.305269   3.269209   2.271103
    17  C    2.509033   1.467967   2.499279   3.927865   4.139163
    18  Cl   5.559318   5.712414   5.730722   3.403383   2.202009
    19  Cl   3.570366   3.640258   4.491659   3.283836   2.242146
    20  H    4.150920   4.972156   5.293329   2.435932   2.872281
    21  H    5.892746   6.937984   7.540485   4.770715   4.833060
    22  H    6.205149   7.475896   8.428415   6.065640   6.336949
    23  H    4.929340   6.292253   7.455504   5.785474   6.431082
    24  H    2.632990   4.043716   5.192048   4.094649   5.133812
    25  H    3.229490   3.779588   3.484133   2.355093   4.163138
    26  C    3.622902   4.778547   5.038981   3.515427   5.236540
    27  H    2.957711   3.132659   2.819278   3.690699   5.387377
    28  H    3.401523   4.184370   4.338055   4.441207   6.244346
    29  H    2.252233   2.521163   3.209967   4.410890   5.742866
    30  H    2.158650   3.290794   4.220313   4.224339   5.646040
    31  H    1.092234   2.089399   3.433215   3.081268   3.845332
    32  H    2.665969   2.140747   3.385068   4.568842   4.877298
    33  H    2.831777   2.031516   2.994747   3.725337   3.465287
    34  H    3.450638   2.160197   2.641543   4.656949   4.767883
    35  H    3.429538   2.125344   1.097129   3.953118   4.628359
    36  H    3.096296   2.010523   1.136338   2.617502   2.944407
    37  H    2.766834   2.158713   1.088203   2.683185   3.941449
    38  O    4.530134   5.592691   5.706725   3.677897   5.208795
    39  O    4.055856   5.332731   5.773262   4.520662   6.201828
    40  C    5.680505   6.870860   7.108064   4.940256   6.288233
    41  C    6.663459   7.735112   7.847376   5.411934   6.472412
    42  H    5.501908   6.813892   7.269240   5.046641   6.282950
    43  H    6.240601   7.432182   7.621074   5.734125   7.217683
    44  H    7.573248   8.713476   8.896242   6.432957   7.419967
    45  H    7.043879   7.983670   7.897654   5.614580   6.725265
    46  H    6.399442   7.415329   7.565857   4.919740   5.721980
                   16         17         18         19         20
    16  Cl   0.000000
    17  C    4.077025   0.000000
    18  Cl   3.689754   6.330696   0.000000
    19  Cl   3.622202   3.526747   3.741290   0.000000
    20  H    4.984369   5.938857   2.796555   3.936960   0.000000
    21  H    7.077411   7.674543   4.174030   5.069092   2.462632
    22  H    8.581330   8.004829   6.289385   5.773513   4.302408
    23  H    8.438056   6.708880   7.190058   5.518393   4.960978
    24  H    6.792356   4.642719   6.492842   4.508527   4.311057
    25  H    5.100640   5.232007   5.232444   5.532205   3.531031
    26  C    6.726812   6.091135   6.091500   6.040507   3.571323
    27  H    5.749247   4.467947   7.030171   6.227583   5.501693
    28  H    7.093610   5.429537   7.704210   6.821484   5.608183
    29  H    6.224455   3.241264   7.713276   5.653423   6.172555
    30  H    6.740792   4.096543   7.348867   5.417339   5.323327
    31  H    5.028372   2.517239   5.725850   3.132076   4.343788
    32  H    5.103208   1.097582   7.019058   3.876430   6.346180
    33  H    3.543171   1.114898   5.588234   2.557800   5.514642
    34  H    4.165781   1.094008   6.947608   4.331222   6.818771
    35  H    3.772341   2.687171   6.650082   5.262525   6.383842
    36  H    2.173514   2.769326   4.910202   3.986488   4.994688
    37  H    3.777047   3.463255   5.729775   5.062765   5.014362
    38  O    6.818898   6.918647   5.571236   6.306552   3.055618
    39  O    7.726166   6.536333   7.130235   6.686136   4.496269
    40  C    8.081420   8.124198   6.337608   7.200854   3.719229
    41  C    8.274685   8.979823   6.005543   7.614826   3.762315
    42  H    8.235804   7.946074   6.405468   6.859511   3.660782
    43  H    8.897749   8.724841   7.370987   8.125281   4.768542
    44  H    9.297325   9.921444   6.825652   8.426871   4.620325
    45  H    8.311929   9.303425   6.212035   8.124873   4.247925
    46  H    7.612497   8.580279   5.045457   6.863945   2.961785
                   21         22         23         24         25
    21  H    0.000000
    22  H    2.500386   0.000000
    23  H    4.311711   2.495888   0.000000
    24  H    4.960099   4.288546   2.444097   0.000000
    25  H    5.709298   6.836089   6.334085   4.487695   0.000000
    26  C    4.962091   5.499038   4.856893   3.436214   2.128488
    27  H    7.566817   8.165913   6.954809   4.645643   2.362479
    28  H    7.252083   7.451880   6.060706   3.968549   2.849042
    29  H    7.852821   7.825509   6.052286   3.638768   4.150358
    30  H    6.610170   6.288851   4.430912   2.095609   3.922070
    31  H    5.708017   5.698152   4.273416   2.156284   4.167988
    32  H    7.835344   7.815948   6.255547   4.262627   5.735245
    33  H    7.133410   7.574982   6.546170   4.746320   5.468466
    34  H    8.663187   9.085911   7.795162   5.693919   5.850093
    35  H    8.624279   9.452605   8.354533   6.035084   4.411971
    36  H    7.274107   8.404550   7.720684   5.643365   3.811020
    37  H    7.345799   8.343921   7.460295   5.201083   2.603057
    38  O    4.348319   5.351687   5.332226   4.350742   2.438198
    39  O    5.469516   5.475272   4.473846   3.222966   3.215272
    40  C    4.162037   4.916926   5.226395   4.883359   3.887642
    41  C    3.943100   5.253673   6.169117   6.055510   4.619702
    42  H    3.640122   3.941265   4.225066   4.242299   4.359006
    43  H    5.210549   5.711311   5.781928   5.389773   4.312413
    44  H    4.258663   5.309386   6.431165   6.673888   5.674276
    45  H    4.817321   6.311744   7.140988   6.772296   4.560533
    46  H    3.051746   4.759425   5.938702   5.892712   4.612250
                   26         27         28         29         30
    26  C    0.000000
    27  H    3.360766   0.000000
    28  H    2.547121   1.765168   0.000000
    29  H    4.389806   2.443085   2.696614   0.000000
    30  H    3.328708   3.063423   2.395106   1.765660   0.000000
    31  H    4.203105   3.985997   4.176728   2.770296   2.350196
    32  H    6.246322   4.816603   5.475303   3.053799   3.760686
    33  H    6.314711   5.161456   6.081806   4.137349   4.669987
    34  H    6.926083   4.868854   6.035705   3.772980   4.935565
    35  H    5.982750   3.316850   4.924706   3.511057   4.852219
    36  H    5.487014   3.757320   5.231686   4.230750   5.034006
    37  H    4.351899   2.065215   3.683629   3.287149   4.128073
    38  O    1.340404   4.330989   3.773465   5.610551   4.597438
    39  O    1.214924   3.818550   2.468287   4.406099   3.072672
    40  C    2.371709   5.641609   4.785060   6.721126   5.461709
    41  C    3.633405   6.691631   6.087212   7.947032   6.782266
    42  H    2.581205   5.934050   4.956336   6.613214   5.162729
    43  H    2.680739   5.787957   4.720409   6.948664   5.702860
    44  H    4.484066   7.664455   6.910778   8.816704   7.535842
    45  H    3.950167   6.678833   6.219493   8.230245   7.240950
    46  H    3.881447   6.808666   6.398069   7.947263   6.818466
                   31         32         33         34         35
    31  H    0.000000
    32  H    2.335736   0.000000
    33  H    2.630533   1.755962   0.000000
    34  H    3.589952   1.820662   1.800484   0.000000
    35  H    4.201618   3.558974   3.360211   2.382625   0.000000
    36  H    3.810502   3.803457   2.851785   2.876573   1.764451
    37  H    3.799428   4.233186   3.937662   3.698000   1.832385
    38  O    5.081146   7.190151   6.981187   7.747921   6.708371
    39  O    4.469645   6.497029   6.848754   7.402645   6.642484
    40  C    6.056354   8.289232   8.133520   9.017402   8.118835
    41  C    7.039683   9.259307   8.851988   9.848124   8.885406
    42  H    5.685858   7.990796   7.909793   8.911814   8.297144
    43  H    6.671363   8.844961   8.849320   9.586322   8.570415
    44  H    7.865757  10.137256   9.774889  10.824305   9.938696
    45  H    7.558233   9.677140   9.221014  10.092639   8.891442
    46  H    6.703141   8.903399   8.327486   9.458424   8.635397
                   36         37         38         39         40
    36  H    0.000000
    37  H    1.775715   0.000000
    38  O    5.934898   4.967305   0.000000
    39  O    6.355615   5.158331   2.260249   0.000000
    40  C    7.322641   6.403715   1.452908   2.689729   0.000000
    41  C    7.869577   7.136172   2.388137   4.166538   1.513290
    42  H    7.495175   6.694283   2.070968   2.611033   1.097608
    43  H    7.956373   6.841904   2.080385   2.671690   1.098122
    44  H    8.929775   8.200014   3.348062   4.802879   2.145808
    45  H    7.905067   7.090828   2.652081   4.607821   2.165772
    46  H    7.450332   6.956321   2.647413   4.565635   2.160451
                   41         42         43         44         45
    41  C    0.000000
    42  H    2.179911   0.000000
    43  H    2.184416   1.780765   0.000000
    44  H    1.099248   2.525042   2.523486   0.000000
    45  H    1.098455   3.092346   2.536026   1.783214   0.000000
    46  H    1.097862   2.517033   3.091759   1.783300   1.784393
                   46
    46  H    0.000000
 Stoichiometry    C17H22Cl3FeO3(6)
 Framework group  C1[X(C17H22Cl3FeO3)]
 Deg. of freedom   132
 Full point group                 C1      NOp   1
 Largest Abelian subgroup         C1      NOp   1
 Largest concise Abelian subgroup C1      NOp   1
                         Standard orientation:                         
 ---------------------------------------------------------------------
 Center     Atomic      Atomic             Coordinates (Angstroms)
 Number     Number       Type             X           Y           Z
 ---------------------------------------------------------------------
      1          6           0        1.707772    0.476040    2.021142
      2          6           0        1.102791   -0.037370    0.867078
      3          6           0        1.294690   -1.390433    0.559757
      4          6           0        2.042556   -2.215299    1.399750
      5          6           0        2.625070   -1.698688    2.559673
      6          6           0        2.458498   -0.345889    2.863903
      7          6           0        0.300253    0.832729   -0.112172
      8          6           0        1.255093    1.584379   -1.158846
      9          6           0        1.059997    3.097815   -0.974106
     10          6           0        0.467746    3.286821    0.424986
     11          6           0       -0.416119    2.010072    0.683656
     12          6           0       -1.764134    2.379595    0.239289
     13          6           0       -2.166307    2.465529   -1.144990
     14          8           0       -0.624186    0.070076   -0.816982
     15         26           0       -1.935435   -1.140113   -0.284510
     16         17           0       -3.825409   -0.389211   -1.295476
     17          6           0       -2.782437    2.599956    1.273420
     18         17           0       -1.497418   -3.219048   -0.863314
     19         17           0       -2.209601   -0.819808    1.917638
     20          1           0        0.858386   -1.804144   -0.344705
     21          1           0        2.160865   -3.269126    1.145910
     22          1           0        3.204412   -2.343840    3.221190
     23          1           0        2.914432    0.075855    3.760119
     24          1           0        1.621467    1.529258    2.280433
     25          1           0        0.935347    1.232748   -2.144579
     26          6           0        2.705039    1.189562   -0.962721
     27          1           0        0.388700    3.495904   -1.743817
     28          1           0        2.009425    3.637962   -1.059063
     29          1           0       -0.080611    4.232397    0.537847
     30          1           0        1.256529    3.278768    1.186078
     31          1           0       -0.454337    1.768674    1.748194
     32          1           0       -2.361624    3.044437    2.184485
     33          1           0       -3.070282    1.562667    1.563548
     34          1           0       -3.669816    3.134276    0.921405
     35          1           0       -2.893886    3.266168   -1.327470
     36          1           0       -2.764068    1.507399   -1.271211
     37          1           0       -1.367381    2.417890   -1.882305
     38          8           0        2.975213    0.026360   -1.571531
     39          8           0        3.510906    1.826229   -0.313664
     40          6           0        4.253527   -0.583993   -1.248537
     41          6           0        4.278400   -1.946687   -1.906178
     42          1           0        4.326955   -0.648944   -0.155316
     43          1           0        5.054683    0.073706   -1.611102
     44          1           0        5.234061   -2.442342   -1.683950
     45          1           0        4.176480   -1.860433   -2.996488
     46          1           0        3.462795   -2.575360   -1.525573
 ---------------------------------------------------------------------
 Rotational constants (GHZ):           0.2359411           0.1540979           0.1291009
 Leave Link  202 at Tue Jun 15 12:07:09 2021, MaxMem=  2147483648 cpu:               0.2 elap:               0.0
 (Enter /SFS/product/gaussian/g16.a03/x86_64/avx/g16/l301.exe)
 Standard basis: Jul-CC-pVDZ (5D, 7F)
 Ernie: Thresh=  0.10000D-02 Tol=  0.10000D-05 Strict=F.
 Ernie:  134 primitive shells out of 958 were deleted.
 There are   766 symmetry adapted cartesian basis functions of A   symmetry.
 There are   710 symmetry adapted basis functions of A   symmetry.
   710 basis functions,  1571 primitive gaussians,   766 cartesian basis functions
   115 alpha electrons      110 beta electrons
       nuclear repulsion energy      3371.5557870273 Hartrees.
 IExCor=  402 DFT=T Ex+Corr=B3LYP ExCW=0 ScaHFX=  0.200000
 ScaDFX=  0.800000  0.720000  1.000000  0.810000 ScalE2=  1.000000  1.000000
 IRadAn=      5 IRanWt=     -1 IRanGd=            0 ICorTp=0 IEmpDi=141
 NAtoms=   46 NActive=   46 NUniq=   46 SFac= 1.00D+00 NAtFMM=   60 NAOKFM=F Big=F
 Integral buffers will be    131072 words long.
 Raffenetti 2 integral format.
 Two-electron integral symmetry is turned on.
 R6Disp:  Grimme-D3(BJ) Dispersion energy=       -0.1256413802 Hartrees.
 Nuclear repulsion after empirical dispersion term =     3371.4301456471 Hartrees.
 Leave Link  301 at Tue Jun 15 12:07:09 2021, MaxMem=  2147483648 cpu:               1.0 elap:               0.1
 (Enter /SFS/product/gaussian/g16.a03/x86_64/avx/g16/l302.exe)
 NPDir=0 NMtPBC=     1 NCelOv=     1 NCel=       1 NClECP=     1 NCelD=      1
         NCelK=      1 NCelE2=     1 NClLst=     1 CellRange=     0.0.
 One-electron integrals computed using PRISM.
 One-electron integral symmetry used in STVInt
 NBasis=   710 RedAO= T EigKep=  1.28D-06  NBF=   710
 NBsUse=   710 1.00D-06 EigRej= -1.00D+00 NBFU=   710
 Precomputing XC quadrature grid using
 IXCGrd= 4 IRadAn=           5 IRanWt=          -1 IRanGd=           0 AccXCQ= 0.00D+00.
 Generated NRdTot=       0 NPtTot=           0 NUsed=           0 NTot=          32
 NSgBfM=   764   764   764   764   764 MxSgAt=    46 MxSgA2=    46.
 Leave Link  302 at Tue Jun 15 12:07:11 2021, MaxMem=  2147483648 cpu:              16.9 elap:               1.1
 (Enter /SFS/product/gaussian/g16.a03/x86_64/avx/g16/l303.exe)
 DipDrv:  MaxL=1.
 Leave Link  303 at Tue Jun 15 12:07:11 2021, MaxMem=  2147483648 cpu:               2.4 elap:               0.2
 (Enter /SFS/product/gaussian/g16.a03/x86_64/avx/g16/l401.exe)
 ExpMin= 1.40D-02 ExpMax= 4.32D+06 ExpMxC= 4.91D+03 IAcc=3 IRadAn=         5 AccDes= 0.00D+00
 Harris functional with IExCor=  402 and IRadAn=       5 diagonalized for initial guess.
 HarFok:  IExCor=  402 AccDes= 0.00D+00 IRadAn=         5 IDoV= 1 UseB2=F ITyADJ=14
 ICtDFT=  3500011 ScaDFX=  1.000000  1.000000  1.000000  1.000000
 FoFCou: FMM=F IPFlag=           0 FMFlag=      100000 FMFlg1=           0
         NFxFlg=           0 DoJE=T BraDBF=F KetDBF=T FulRan=T
         wScrn=  0.000000 ICntrl=       500 IOpCl=  0 I1Cent=   200000004 NGrid=           0
         NMat0=    1 NMatS0=      1 NMatT0=    0 NMatD0=    1 NMtDS0=    0 NMtDT0=    0
 Petite list used in FoFCou.
 Harris En= -3531.19872169692    
 JPrj=0 DoOrth=F DoCkMO=F.
 Initial guess <Sx>= 0.0000 <Sy>= 0.0000 <Sz>= 2.5000 <S**2>= 8.7500 S= 2.5000
 Leave Link  401 at Tue Jun 15 12:07:18 2021, MaxMem=  2147483648 cpu:             106.5 elap:               6.7
 (Enter /SFS/product/gaussian/g16.a03/x86_64/avx/g16/l502.exe)
 Integral symmetry usage will be decided dynamically.
 UHF open shell SCF:
 Using DIIS extrapolation, IDIIS=  1040.
 NGot=  2147483648 LenX=  2146290678 LenY=  2145703156
 Requested convergence on RMS density matrix=1.00D-08 within 128 cycles.
 Requested convergence on MAX density matrix=1.00D-06.
 Requested convergence on             energy=1.00D-06.
 No special actions if energy rises.
 Fock matrices will be formed incrementally for  20 cycles.

 Cycle   1  Pass 1  IDiag  1:
 FoFJK:  IHMeth= 1 ICntrl=       0 DoSepK=F KAlg= 0 I1Cent=           0 FoldK=F
 IRaf= 930000000 NMat=       1 IRICut=       1 DoRegI=T DoRafI=F ISym2E= 0 IDoP0=0 IntGTp=1.
 FoFCou: FMM=F IPFlag=           0 FMFlag=      100000 FMFlg1=           0
         NFxFlg=           0 DoJE=F BraDBF=F KetDBF=F FulRan=T
         wScrn=  0.000000 ICntrl=         0 IOpCl=  1 I1Cent=           0 NGrid=           0
         NMat0=    1 NMatS0=      1 NMatT0=    0 NMatD0=    1 NMtDS0=    0 NMtDT0=    0
 Symmetry not used in FoFCou.
 E= -3530.42394087253    
 DIIS: error= 1.90D-02 at cycle   1 NSaved=   1.
 NSaved= 1 IEnMin= 1 EnMin= -3530.42394087253     IErMin= 1 ErrMin= 1.90D-02
 ErrMax= 1.90D-02  0.00D+00 EMaxC= 1.00D-01 BMatC= 4.90D+00 BMatP= 4.90D+00
 IDIUse=3 WtCom= 8.10D-01 WtEn= 1.90D-01
 Coeff-Com:  0.100D+01
 Coeff-En:   0.100D+01
 Coeff:      0.100D+01
 Gap=     0.027 Goal=   None    Shift=    0.000
 Gap=    -0.102 Goal=   None    Shift=    0.000
 GapD=   -0.102 DampG=0.250 DampE=0.250 DampFc=0.1250 IDamp=-1.
 Damping current iteration by 1.25D-01
 RMSDP=2.86D-02 MaxDP=6.11D+00              OVMax= 8.24D-01

 Cycle   2  Pass 1  IDiag  1:
 RMSU=  2.44D-03    CP:  9.61D-01
 E= -3530.77396997562     Delta-E=       -0.350029103090 Rises=F Damp=T
 DIIS: error= 8.18D-03 at cycle   2 NSaved=   2.
 NSaved= 2 IEnMin= 2 EnMin= -3530.77396997562     IErMin= 2 ErrMin= 8.18D-03
 ErrMax= 8.18D-03  0.00D+00 EMaxC= 1.00D-01 BMatC= 1.26D+00 BMatP= 4.90D+00
 IDIUse=3 WtCom= 9.18D-01 WtEn= 8.18D-02
 Coeff-Com: -0.451D+00 0.145D+01
 Coeff-En:   0.000D+00 0.100D+01
 Coeff:     -0.414D+00 0.141D+01
 Gap=     0.318 Goal=   None    Shift=    0.000
 Gap=     0.055 Goal=   None    Shift=    0.000
 RMSDP=2.37D-02 MaxDP=6.63D+00 DE=-3.50D-01 OVMax= 9.64D-01

 Cycle   3  Pass 1  IDiag  1:
 RMSU=  8.35D-03    CP:  6.32D-01  2.74D+00
 E= -3530.35240008047     Delta-E=        0.421569895155 Rises=F Damp=F
 DIIS: error= 2.72D-02 at cycle   3 NSaved=   3.
 NSaved= 3 IEnMin= 2 EnMin= -3530.77396997562     IErMin= 2 ErrMin= 8.18D-03
 ErrMax= 2.72D-02  0.00D+00 EMaxC= 1.00D-01 BMatC= 5.13D+00 BMatP= 1.26D+00
 IDIUse=2 WtCom= 0.00D+00 WtEn= 1.00D+00
 Coeff-En:   0.000D+00 0.691D+00 0.309D+00
 Coeff:      0.000D+00 0.691D+00 0.309D+00
 Gap=    -0.214 Goal=   None    Shift=    0.000
 Gap=     0.290 Goal=   None    Shift=    0.000
 RMSDP=8.31D-03 MaxDP=7.18D-01 DE= 4.22D-01 OVMax= 7.40D-01

 Cycle   4  Pass 1  IDiag  1:
 RMSU=  5.79D-03    CP:  6.50D-01  3.00D+00  3.49D-01
 E= -3521.43971693215     Delta-E=        8.912683148323 Rises=F Damp=F
 DIIS: error= 8.64D-02 at cycle   4 NSaved=   4.
 NSaved= 4 IEnMin= 2 EnMin= -3530.77396997562     IErMin= 2 ErrMin= 8.18D-03
 ErrMax= 8.64D-02  0.00D+00 EMaxC= 1.00D-01 BMatC= 4.99D+01 BMatP= 1.26D+00
 IDIUse=2 WtCom= 0.00D+00 WtEn= 1.00D+00
 EnCoef did   100 forward-backward iterations
 Coeff-En:   0.312D+00 0.346D-01 0.479D+00 0.174D+00
 Coeff:      0.312D+00 0.346D-01 0.479D+00 0.174D+00
 Gap=     0.153 Goal=   None    Shift=    0.000
 Gap=     0.008 Goal=   None    Shift=    0.000
 RMSDP=5.86D-03 MaxDP=6.03D-01 DE= 8.91D+00 OVMax= 9.55D-01

 Cycle   5  Pass 1  IDiag  1:
 RMSU=  3.98D-03    CP:  6.73D-01  2.70D+00  5.65D-01  5.26D-01
 E= -3530.18538429802     Delta-E=       -8.745667365873 Rises=F Damp=F
 DIIS: error= 6.01D-02 at cycle   5 NSaved=   5.
 NSaved= 5 IEnMin= 2 EnMin= -3530.77396997562     IErMin= 2 ErrMin= 8.18D-03
 ErrMax= 6.01D-02  0.00D+00 EMaxC= 1.00D-01 BMatC= 8.88D+00 BMatP= 1.26D+00
 IDIUse=2 WtCom= 0.00D+00 WtEn= 1.00D+00
 EnCoef did     3 forward-backward iterations
 Coeff-En:   0.426D-02 0.000D+00 0.518D+00 0.000D+00 0.477D+00
 Coeff:      0.426D-02 0.000D+00 0.518D+00 0.000D+00 0.477D+00
 Gap=     0.087 Goal=   None    Shift=    0.000
 Gap=     0.135 Goal=   None    Shift=    0.000
 RMSDP=4.52D-03 MaxDP=4.90D-01 DE=-8.75D+00 OVMax= 3.73D-01

 Cycle   6  Pass 1  IDiag  1:
 RMSU=  3.65D-03    CP:  6.70D-01  2.13D+00  5.08D-01  3.29D-01  5.23D-01
 E= -3531.37243926988     Delta-E=       -1.187054971856 Rises=F Damp=F
 DIIS: error= 6.37D-03 at cycle   6 NSaved=   6.
 NSaved= 6 IEnMin= 6 EnMin= -3531.37243926988     IErMin= 6 ErrMin= 6.37D-03
 ErrMax= 6.37D-03  0.00D+00 EMaxC= 1.00D-01 BMatC= 6.52D-01 BMatP= 1.26D+00
 IDIUse=3 WtCom= 9.36D-01 WtEn= 6.37D-02
 Coeff-Com: -0.434D+00 0.777D+00 0.270D+00-0.247D-02 0.761D-01 0.314D+00
 Coeff-En:   0.000D+00 0.000D+00 0.000D+00 0.000D+00 0.112D+00 0.888D+00
 Coeff:     -0.406D+00 0.727D+00 0.253D+00-0.231D-02 0.784D-01 0.350D+00
 Gap=     0.118 Goal=   None    Shift=    0.000
 Gap=     0.168 Goal=   None    Shift=    0.000
 RMSDP=3.51D-03 MaxDP=4.25D-01 DE=-1.19D+00 OVMax= 1.66D-01

 Cycle   7  Pass 1  IDiag  1:
 RMSU=  1.59D-03    CP:  6.63D-01  2.37D+00  6.34D-01  4.17D-01  7.31D-01
                    CP:  2.67D-01
 E= -3531.42211230986     Delta-E=       -0.049673039989 Rises=F Damp=F
 DIIS: error= 9.56D-03 at cycle   7 NSaved=   7.
 NSaved= 7 IEnMin= 7 EnMin= -3531.42211230986     IErMin= 6 ErrMin= 6.37D-03
 ErrMax= 9.56D-03  0.00D+00 EMaxC= 1.00D-01 BMatC= 4.42D-01 BMatP= 6.52D-01
 IDIUse=3 WtCom= 9.36D-01 WtEn= 6.37D-02
 Coeff-Com: -0.199D+00 0.291D+00 0.906D-01 0.735D-02-0.865D-01 0.317D+00
 Coeff-Com:  0.580D+00
 Coeff-En:   0.000D+00 0.000D+00 0.000D+00 0.000D+00 0.000D+00 0.412D+00
 Coeff-En:   0.588D+00
 Coeff:     -0.187D+00 0.272D+00 0.849D-01 0.688D-02-0.810D-01 0.323D+00
 Coeff:      0.581D+00
 Gap=     0.077 Goal=   None    Shift=    0.000
 Gap=     0.157 Goal=   None    Shift=    0.000
 RMSDP=1.49D-03 MaxDP=1.42D-01 DE=-4.97D-02 OVMax= 1.12D-01

 Cycle   8  Pass 1  IDiag  1:
 RMSU=  9.34D-04    CP:  6.62D-01  2.28D+00  6.14D-01  3.74D-01  6.24D-01
                    CP:  5.42D-01  9.06D-01
 E= -3531.51495288218     Delta-E=       -0.092840572312 Rises=F Damp=F
 DIIS: error= 1.53D-03 at cycle   8 NSaved=   8.
 NSaved= 8 IEnMin= 8 EnMin= -3531.51495288218     IErMin= 8 ErrMin= 1.53D-03
 ErrMax= 1.53D-03  0.00D+00 EMaxC= 1.00D-01 BMatC= 3.66D-02 BMatP= 4.42D-01
 IDIUse=3 WtCom= 9.85D-01 WtEn= 1.53D-02
 Coeff-Com: -0.107D+00 0.147D+00 0.320D-01 0.721D-02-0.559D-01 0.169D+00
 Coeff-Com:  0.355D+00 0.453D+00
 Coeff-En:   0.000D+00 0.000D+00 0.000D+00 0.000D+00 0.000D+00 0.000D+00
 Coeff-En:   0.000D+00 0.100D+01
 Coeff:     -0.105D+00 0.144D+00 0.315D-01 0.710D-02-0.551D-01 0.166D+00
 Coeff:      0.350D+00 0.461D+00
 Gap=     0.093 Goal=   None    Shift=    0.000
 Gap=     0.111 Goal=   None    Shift=    0.000
 RMSDP=5.27D-04 MaxDP=8.45D-02 DE=-9.28D-02 OVMax= 2.20D-02

 Cycle   9  Pass 1  IDiag  1:
 RMSU=  4.20D-04    CP:  6.60D-01  2.26D+00  6.03D-01  3.74D-01  6.02D-01
                    CP:  5.92D-01  9.44D-01  9.14D-01
 E= -3531.52106723912     Delta-E=       -0.006114356944 Rises=F Damp=F
 DIIS: error= 1.19D-03 at cycle   9 NSaved=   9.
 NSaved= 9 IEnMin= 9 EnMin= -3531.52106723912     IErMin= 9 ErrMin= 1.19D-03
 ErrMax= 1.19D-03  0.00D+00 EMaxC= 1.00D-01 BMatC= 1.24D-02 BMatP= 3.66D-02
 IDIUse=3 WtCom= 9.88D-01 WtEn= 1.19D-02
 Coeff-Com: -0.316D-01 0.403D-01-0.901D-02 0.305D-02 0.550D-02-0.813D-02
 Coeff-Com:  0.596D-02 0.231D+00 0.763D+00
 Coeff-En:   0.000D+00 0.000D+00 0.000D+00 0.000D+00 0.000D+00 0.000D+00
 Coeff-En:   0.000D+00 0.000D+00 0.100D+01
 Coeff:     -0.312D-01 0.398D-01-0.890D-02 0.302D-02 0.544D-02-0.804D-02
 Coeff:      0.589D-02 0.228D+00 0.766D+00
 Gap=     0.106 Goal=   None    Shift=    0.000
 Gap=     0.106 Goal=   None    Shift=    0.000
 RMSDP=3.14D-04 MaxDP=7.99D-02 DE=-6.11D-03 OVMax= 1.47D-02

 Cycle  10  Pass 1  IDiag  1:
 RMSU=  2.97D-04    CP:  6.60D-01  2.26D+00  5.98D-01  3.79D-01  6.07D-01
                    CP:  5.94D-01  9.54D-01  9.67D-01  1.11D+00
 E= -3531.52286271617     Delta-E=       -0.001795477053 Rises=F Damp=F
 DIIS: error= 7.43D-04 at cycle  10 NSaved=  10.
 NSaved=10 IEnMin=10 EnMin= -3531.52286271617     IErMin=10 ErrMin= 7.43D-04
 ErrMax= 7.43D-04  0.00D+00 EMaxC= 1.00D-01 BMatC= 4.58D-03 BMatP= 1.24D-02
 IDIUse=3 WtCom= 9.93D-01 WtEn= 7.43D-03
 Coeff-Com:  0.314D-02-0.628D-02-0.164D-01 0.927D-03 0.197D-01-0.479D-01
 Coeff-Com: -0.698D-01-0.213D-02 0.472D+00 0.647D+00
 Coeff-En:   0.000D+00 0.000D+00 0.000D+00 0.000D+00 0.000D+00 0.000D+00
 Coeff-En:   0.000D+00 0.000D+00 0.000D+00 0.100D+01
 Coeff:      0.311D-02-0.623D-02-0.163D-01 0.920D-03 0.196D-01-0.476D-01
 Coeff:     -0.692D-01-0.211D-02 0.468D+00 0.650D+00
 Gap=     0.104 Goal=   None    Shift=    0.000
 Gap=     0.103 Goal=   None    Shift=    0.000
 RMSDP=1.99D-04 MaxDP=2.17D-02 DE=-1.80D-03 OVMax= 9.46D-03

 Cycle  11  Pass 1  IDiag  1:
 RMSU=  1.49D-04    CP:  6.61D-01  2.28D+00  5.93D-01  3.81D-01  6.06D-01
                    CP:  6.00D-01  9.57D-01  1.07D+00  1.26D+00  9.49D-01
 E= -3531.52346129887     Delta-E=       -0.000598582699 Rises=F Damp=F
 DIIS: error= 3.06D-04 at cycle  11 NSaved=  11.
 NSaved=11 IEnMin=11 EnMin= -3531.52346129887     IErMin=11 ErrMin= 3.06D-04
 ErrMax= 3.06D-04  0.00D+00 EMaxC= 1.00D-01 BMatC= 1.07D-03 BMatP= 4.58D-03
 IDIUse=3 WtCom= 9.97D-01 WtEn= 3.06D-03
 Coeff-Com:  0.547D-02-0.669D-02-0.564D-02 0.166D-03 0.336D-02-0.114D-01
 Coeff-Com:  0.925D-02-0.494D-01 0.849D-02 0.410D+00 0.637D+00
 Coeff-En:   0.000D+00 0.000D+00 0.000D+00 0.000D+00 0.000D+00 0.000D+00
 Coeff-En:   0.000D+00 0.000D+00 0.000D+00 0.147D+00 0.853D+00
 Coeff:      0.545D-02-0.667D-02-0.563D-02 0.165D-03 0.335D-02-0.114D-01
 Coeff:      0.922D-02-0.492D-01 0.846D-02 0.409D+00 0.637D+00
 Gap=     0.104 Goal=   None    Shift=    0.000
 Gap=     0.103 Goal=   None    Shift=    0.000
 RMSDP=1.05D-04 MaxDP=1.45D-02 DE=-5.99D-04 OVMax= 6.26D-03

 Cycle  12  Pass 1  IDiag  1:
 RMSU=  7.19D-05    CP:  6.60D-01  2.27D+00  5.92D-01  3.83D-01  6.08D-01
                    CP:  5.93D-01  9.62D-01  1.04D+00  1.33D+00  1.02D+00
                    CP:  6.93D-01
 E= -3531.52371482264     Delta-E=       -0.000253523766 Rises=F Damp=F
 DIIS: error= 9.12D-05 at cycle  12 NSaved=  12.
 NSaved=12 IEnMin=12 EnMin= -3531.52371482264     IErMin=12 ErrMin= 9.12D-05
 ErrMax= 9.12D-05  0.00D+00 EMaxC= 1.00D-01 BMatC= 1.37D-04 BMatP= 1.07D-03
 IDIUse=1 WtCom= 1.00D+00 WtEn= 0.00D+00
 Coeff-Com:  0.152D-02-0.109D-02-0.100D-02 0.752D-04-0.142D-02 0.115D-02
 Coeff-Com:  0.215D-01-0.247D-01-0.581D-01 0.157D+00 0.385D+00 0.521D+00
 Coeff:      0.152D-02-0.109D-02-0.100D-02 0.752D-04-0.142D-02 0.115D-02
 Coeff:      0.215D-01-0.247D-01-0.581D-01 0.157D+00 0.385D+00 0.521D+00
 Gap=     0.105 Goal=   None    Shift=    0.000
 Gap=     0.104 Goal=   None    Shift=    0.000
 RMSDP=4.45D-05 MaxDP=8.44D-03 DE=-2.54D-04 OVMax= 1.79D-03

 Cycle  13  Pass 1  IDiag  1:
 RMSU=  2.66D-05    CP:  6.61D-01  2.27D+00  5.93D-01  3.84D-01  6.10D-01
                    CP:  5.90D-01  9.62D-01  1.03D+00  1.30D+00  1.05D+00
                    CP:  7.74D-01  7.72D-01
 E= -3531.52375155550     Delta-E=       -0.000036732862 Rises=F Damp=F
 DIIS: error= 1.90D-05 at cycle  13 NSaved=  13.
 NSaved=13 IEnMin=13 EnMin= -3531.52375155550     IErMin=13 ErrMin= 1.90D-05
 ErrMax= 1.90D-05  0.00D+00 EMaxC= 1.00D-01 BMatC= 7.03D-06 BMatP= 1.37D-04
 IDIUse=1 WtCom= 1.00D+00 WtEn= 0.00D+00
 Coeff-Com:  0.855D-03-0.103D-02-0.212D-03 0.529D-05-0.586D-03 0.120D-02
 Coeff-Com:  0.673D-02-0.451D-02-0.218D-01 0.260D-01 0.867D-01 0.216D+00
 Coeff-Com:  0.690D+00
 Coeff:      0.855D-03-0.103D-02-0.212D-03 0.529D-05-0.586D-03 0.120D-02
 Coeff:      0.673D-02-0.451D-02-0.218D-01 0.260D-01 0.867D-01 0.216D+00
 Coeff:      0.690D+00
 Gap=     0.105 Goal=   None    Shift=    0.000
 Gap=     0.103 Goal=   None    Shift=    0.000
 RMSDP=1.30D-05 MaxDP=2.44D-03 DE=-3.67D-05 OVMax= 6.30D-04

 Cycle  14  Pass 1  IDiag  1:
 RMSU=  1.07D-05    CP:  6.61D-01  2.27D+00  5.93D-01  3.84D-01  6.10D-01
                    CP:  5.90D-01  9.62D-01  1.03D+00  1.30D+00  1.07D+00
                    CP:  7.86D-01  7.98D-01  9.45D-01
 E= -3531.52375396123     Delta-E=       -0.000002405728 Rises=F Damp=F
 DIIS: error= 9.75D-06 at cycle  14 NSaved=  14.
 NSaved=14 IEnMin=14 EnMin= -3531.52375396123     IErMin=14 ErrMin= 9.75D-06
 ErrMax= 9.75D-06  0.00D+00 EMaxC= 1.00D-01 BMatC= 2.21D-06 BMatP= 7.03D-06
 IDIUse=1 WtCom= 1.00D+00 WtEn= 0.00D+00
 Coeff-Com: -0.317D-04-0.453D-04 0.199D-03-0.258D-04 0.884D-04 0.113D-03
 Coeff-Com: -0.283D-02 0.485D-02 0.615D-02-0.274D-01-0.649D-01-0.281D-01
 Coeff-Com:  0.354D+00 0.758D+00
 Coeff:     -0.317D-04-0.453D-04 0.199D-03-0.258D-04 0.884D-04 0.113D-03
 Coeff:     -0.283D-02 0.485D-02 0.615D-02-0.274D-01-0.649D-01-0.281D-01
 Coeff:      0.354D+00 0.758D+00
 Gap=     0.105 Goal=   None    Shift=    0.000
 Gap=     0.103 Goal=   None    Shift=    0.000
 RMSDP=7.25D-06 MaxDP=7.62D-04 DE=-2.41D-06 OVMax= 5.01D-04

 Cycle  15  Pass 1  IDiag  1:
 RMSU=  4.89D-06    CP:  6.61D-01  2.27D+00  5.93D-01  3.84D-01  6.10D-01
                    CP:  5.90D-01  9.62D-01  1.03D+00  1.30D+00  1.07D+00
                    CP:  7.87D-01  8.35D-01  1.09D+00  1.05D+00
 E= -3531.52375488485     Delta-E=       -0.000000923621 Rises=F Damp=F
 DIIS: error= 6.49D-06 at cycle  15 NSaved=  15.
 NSaved=15 IEnMin=15 EnMin= -3531.52375488485     IErMin=15 ErrMin= 6.49D-06
 ErrMax= 6.49D-06  0.00D+00 EMaxC= 1.00D-01 BMatC= 5.52D-07 BMatP= 2.21D-06
 IDIUse=1 WtCom= 1.00D+00 WtEn= 0.00D+00
 Coeff-Com: -0.161D-04 0.801D-05 0.756D-04-0.185D-04 0.203D-03-0.459D-03
 Coeff-Com: -0.297D-02 0.289D-02 0.804D-02-0.138D-01-0.441D-01-0.522D-01
 Coeff-Com:  0.123D-01 0.315D+00 0.775D+00
 Coeff:     -0.161D-04 0.801D-05 0.756D-04-0.185D-04 0.203D-03-0.459D-03
 Coeff:     -0.297D-02 0.289D-02 0.804D-02-0.138D-01-0.441D-01-0.522D-01
 Coeff:      0.123D-01 0.315D+00 0.775D+00
 Gap=     0.105 Goal=   None    Shift=    0.000
 Gap=     0.103 Goal=   None    Shift=    0.000
 RMSDP=3.74D-06 MaxDP=4.15D-04 DE=-9.24D-07 OVMax= 2.88D-04

 Cycle  16  Pass 1  IDiag  1:
 RMSU=  2.31D-06    CP:  6.61D-01  2.27D+00  5.93D-01  3.84D-01  6.10D-01
                    CP:  5.90D-01  9.62D-01  1.03D+00  1.30D+00  1.07D+00
                    CP:  7.86D-01  8.50D-01  1.16D+00  1.17D+00  1.05D+00
 E= -3531.52375506082     Delta-E=       -0.000000175974 Rises=F Damp=F
 DIIS: error= 2.60D-06 at cycle  16 NSaved=  16.
 NSaved=16 IEnMin=16 EnMin= -3531.52375506082     IErMin=16 ErrMin= 2.60D-06
 ErrMax= 2.60D-06  0.00D+00 EMaxC= 1.00D-01 BMatC= 1.44D-07 BMatP= 5.52D-07
 IDIUse=1 WtCom= 1.00D+00 WtEn= 0.00D+00
 Coeff-Com: -0.540D-04 0.127D-03 0.345D-04-0.628D-05 0.682D-04-0.286D-03
 Coeff-Com: -0.104D-02 0.706D-03 0.340D-02-0.154D-02-0.110D-01-0.231D-01
 Coeff-Com: -0.743D-01 0.157D-01 0.464D+00 0.628D+00
 Coeff:     -0.540D-04 0.127D-03 0.345D-04-0.628D-05 0.682D-04-0.286D-03
 Coeff:     -0.104D-02 0.706D-03 0.340D-02-0.154D-02-0.110D-01-0.231D-01
 Coeff:     -0.743D-01 0.157D-01 0.464D+00 0.628D+00
 Gap=     0.105 Goal=   None    Shift=    0.000
 Gap=     0.103 Goal=   None    Shift=    0.000
 RMSDP=1.89D-06 MaxDP=3.20D-04 DE=-1.76D-07 OVMax= 8.13D-05

 Cycle  17  Pass 1  IDiag  1:
 RMSU=  1.18D-06    CP:  6.61D-01  2.27D+00  5.93D-01  3.84D-01  6.10D-01
                    CP:  5.90D-01  9.62D-01  1.03D+00  1.30D+00  1.07D+00
                    CP:  7.89D-01  8.55D-01  1.17D+00  1.22D+00  1.18D+00
                    CP:  7.76D-01
 E= -3531.52375510372     Delta-E=       -0.000000042894 Rises=F Damp=F
 DIIS: error= 1.00D-06 at cycle  17 NSaved=  17.
 NSaved=17 IEnMin=17 EnMin= -3531.52375510372     IErMin=17 ErrMin= 1.00D-06
 ErrMax= 1.00D-06  0.00D+00 EMaxC= 1.00D-01 BMatC= 1.42D-08 BMatP= 1.44D-07
 IDIUse=1 WtCom= 1.00D+00 WtEn= 0.00D+00
 Coeff-Com:  0.953D-05 0.135D-04-0.589D-05-0.104D-05 0.175D-04-0.107D-03
 Coeff-Com: -0.141D-03-0.159D-03 0.476D-03 0.147D-02 0.156D-02-0.256D-02
 Coeff-Com: -0.376D-01-0.428D-01 0.101D+00 0.317D+00 0.661D+00
 Coeff:      0.953D-05 0.135D-04-0.589D-05-0.104D-05 0.175D-04-0.107D-03
 Coeff:     -0.141D-03-0.159D-03 0.476D-03 0.147D-02 0.156D-02-0.256D-02
 Coeff:     -0.376D-01-0.428D-01 0.101D+00 0.317D+00 0.661D+00
 Gap=     0.105 Goal=   None    Shift=    0.000
 Gap=     0.103 Goal=   None    Shift=    0.000
 RMSDP=6.87D-07 MaxDP=1.74D-04 DE=-4.29D-08 OVMax= 3.37D-05

 Cycle  18  Pass 1  IDiag  1:
 RMSU=  3.52D-07    CP:  6.61D-01  2.27D+00  5.93D-01  3.84D-01  6.10D-01
                    CP:  5.90D-01  9.62D-01  1.03D+00  1.30D+00  1.07D+00
                    CP:  7.88D-01  8.54D-01  1.17D+00  1.24D+00  1.22D+00
                    CP:  8.62D-01  8.03D-01
 E= -3531.52375510874     Delta-E=       -0.000000005023 Rises=F Damp=F
 DIIS: error= 2.95D-07 at cycle  18 NSaved=  18.
 NSaved=18 IEnMin=18 EnMin= -3531.52375510874     IErMin=18 ErrMin= 2.95D-07
 ErrMax= 2.95D-07  0.00D+00 EMaxC= 1.00D-01 BMatC= 1.96D-09 BMatP= 1.42D-08
 IDIUse=1 WtCom= 1.00D+00 WtEn= 0.00D+00
 Coeff-Com:  0.125D-04-0.108D-04-0.664D-05 0.286D-06 0.166D-05-0.201D-04
 Coeff-Com:  0.558D-04-0.194D-03-0.206D-03 0.868D-03 0.226D-02 0.166D-02
 Coeff-Com: -0.868D-02-0.239D-01-0.743D-02 0.767D-01 0.325D+00 0.634D+00
 Coeff:      0.125D-04-0.108D-04-0.664D-05 0.286D-06 0.166D-05-0.201D-04
 Coeff:      0.558D-04-0.194D-03-0.206D-03 0.868D-03 0.226D-02 0.166D-02
 Coeff:     -0.868D-02-0.239D-01-0.743D-02 0.767D-01 0.325D+00 0.634D+00
 Gap=     0.105 Goal=   None    Shift=    0.000
 Gap=     0.103 Goal=   None    Shift=    0.000
 RMSDP=2.37D-07 MaxDP=8.36D-05 DE=-5.02D-09 OVMax= 1.24D-05

 Cycle  19  Pass 1  IDiag  1:
 RMSU=  1.50D-07    CP:  6.61D-01  2.27D+00  5.93D-01  3.84D-01  6.10D-01
                    CP:  5.90D-01  9.62D-01  1.03D+00  1.30D+00  1.07D+00
                    CP:  7.89D-01  8.55D-01  1.17D+00  1.24D+00  1.22D+00
                    CP:  8.71D-01  8.67D-01  8.85D-01
 E= -3531.52375510939     Delta-E=       -0.000000000648 Rises=F Damp=F
 DIIS: error= 1.73D-07 at cycle  19 NSaved=  19.
 NSaved=19 IEnMin=19 EnMin= -3531.52375510939     IErMin=19 ErrMin= 1.73D-07
 ErrMax= 1.73D-07  0.00D+00 EMaxC= 1.00D-01 BMatC= 5.02D-10 BMatP= 1.96D-09
 IDIUse=1 WtCom= 1.00D+00 WtEn= 0.00D+00
 Coeff-Com: -0.259D-05 0.264D-05 0.615D-06 0.279D-06-0.335D-05 0.101D-04
 Coeff-Com:  0.538D-04-0.645D-04-0.199D-03 0.572D-04 0.727D-03 0.111D-02
 Coeff-Com:  0.345D-02-0.297D-02-0.183D-01-0.224D-01 0.300D-01 0.284D+00
 Coeff-Com:  0.725D+00
 Coeff:     -0.259D-05 0.264D-05 0.615D-06 0.279D-06-0.335D-05 0.101D-04
 Coeff:      0.538D-04-0.645D-04-0.199D-03 0.572D-04 0.727D-03 0.111D-02
 Coeff:      0.345D-02-0.297D-02-0.183D-01-0.224D-01 0.300D-01 0.284D+00
 Coeff:      0.725D+00
 Gap=     0.105 Goal=   None    Shift=    0.000
 Gap=     0.103 Goal=   None    Shift=    0.000
 RMSDP=9.76D-08 MaxDP=1.17D-05 DE=-6.48D-10 OVMax= 5.32D-06

 Cycle  20  Pass 1  IDiag  1:
 RMSU=  7.47D-08    CP:  6.61D-01  2.27D+00  5.93D-01  3.84D-01  6.10D-01
                    CP:  5.90D-01  9.62D-01  1.03D+00  1.30D+00  1.07D+00
[...]
 .00001143,0.00015891,-0.00007426,0.00005903,-0.00123133,-0.00768738,-0
 .00448285,-0.00003597,0.00010407,0.00001520,0.00003572,-0.00000287,0.0
 0002247,-0.00002052,0.00000991,0.00003574,-0.00000145,-0.00001309,0.00
 001075,-0.00001407,0.00001490,0.00001037,0.00000138,0.00000257,-0.0000
 0786,-0.00000081,0.00001134,-0.00000391,-0.00000446,0.00000303,0.00000
 001,-0.00000110,0.00000635,0.00000496,0.00002260,0.00002579,0.00000500
 ,0.00001533,-0.00000038,0.00001369,-0.03844449,-0.00380261,0.00732673,
 0.00259799,0.00174135,0.00193902,-0.17621564,-0.11302951,0.06457118,0.
 00370096,0.00115837,-0.00096475,0.00324453,-0.00023206,0.00001317,0.20
 462075,0.00001728,0.00004480,0.00007412,0.00007188,-0.00007904,-0.0000
 0076,-0.00005432,0.00002173,-0.00001861,-0.00001281,-0.00004771,0.0000
 5481,-0.00005090,-0.00001781,-0.00009027,-0.00001945,0.00006428,-0.000
 01855,-0.00021071,-0.00009658,0.00002767,-0.00025680,-0.00069225,0.000
 63127,0.00016882,-0.00000286,0.00001349,-0.00000775,-0.00005873,0.0000
 5298,-0.00000313,0.00006029,0.00000444,-0.00001083,0.00000213,0.000000
 39,0.00000706,0.00000608,0.00000650,0.00006346,0.00010007,-0.00002880,
 0.00002381,-0.00013691,0.00000504,-0.00001456,0.00002634,-0.00001063,0
 .00000396,-0.00000157,-0.00000661,-0.00004705,0.00007595,0.00002252,-0
 .00001085,0.00001788,0.00000475,0.00006841,-0.00003548,0.00000128,0.00
 002957,0.00006329,-0.00005498,-0.00000048,-0.00000623,0.00000030,-0.00
 000129,0.00001142,0.00000474,0.00000263,0.00000370,0.00000984,0.000014
 67,0.00004081,0.00000034,0.00194324,0.00265914,0.00130622,-0.00000004,
 -0.00004909,-0.00001168,-0.00002546,0.00001326,-0.00001410,0.00000918,
 0.00000232,-0.00002221,0.00000516,-0.00000502,-0.00001225,0.00001230,-
 0.00000758,-0.00000601,0.00000023,-0.00000155,0.00000111,-0.00000037,-
 0.00001072,0.00000331,-0.00000026,-0.00000081,-0.00000131,0.00000077,-
 0.00000098,-0.00000282,-0.00001086,-0.00002137,-0.00000384,-0.00001028
 ,-0.00000009,-0.00000267,0.01843345,0.00811391,-0.00722670,-0.00033418
 ,-0.00072883,-0.00107901,-0.11943148,-0.14744073,0.05913090,-0.0203445
 5,-0.01642791,0.01077211,-0.00179564,-0.00064419,-0.00028381,0.1204694
 5,0.15790903,-0.00006898,0.00001321,0.00001630,-0.00009841,0.00007931,
 0.00005995,-0.00010075,0.00001779,-0.00005536,0.00008354,-0.00015295,-
 0.00010057,0.00017573,0.00000103,0.00008581,0.00003869,0.00007830,0.00
 003838,0.00003868,0.00006736,-0.00009403,-0.00001608,0.00011657,-0.000
 24163,-0.00004224,-0.00001693,-0.00000179,0.00001439,0.00003277,-0.000
 03855,0.00003236,-0.00006329,0.00001110,0.00000542,-0.00001306,-0.0000
 1561,-0.00000003,-0.00000065,-0.00000474,-0.00001762,-0.00007894,0.000
 05585,-0.00005431,0.00002326,-0.00004933,0.00001151,-0.00001147,0.0000
 0882,-0.00000026,0.00000712,0.00000642,0.00001957,0.00000538,0.0000149
 7,0.00002242,-0.00000978,0.00001468,0.00002517,0.00000576,-0.00000653,
 -0.00001593,-0.00000927,0.00000298,-0.00001452,-0.00000057,0.00000867,
 0.00000210,-0.00000825,-0.00001738,0.00001119,-0.00002452,-0.00001873,
 -0.00006694,-0.00001703,-0.00001982,0.00143883,0.00077031,0.00128585,-
 0.00002340,0.00001368,0.00000151,0.00002174,-0.00003513,0.00003590,-0.
 00000971,0.00000241,0.00001090,0.00001173,0.00000130,-0.00000956,-0.00
 001893,0.00001010,0.00000607,-0.00000090,0.00000185,-0.00000065,0.0000
 0166,0.00000922,-0.00000472,0.00000173,0.00000154,0.00000092,0.0000001
 0,0.00000102,0.00000258,0.00000180,0.00001051,0.00000590,0.00000550,0.
 00000148,0.00000576,-0.01042113,-0.00562724,0.00415394,-0.00139746,0.0
 0042756,-0.00009909,0.06782760,0.05735595,-0.08567227,-0.01123647,-0.0
 1015093,0.00556481,0.02277220,0.01907212,-0.00959703,-0.06849274,-0.05
 999280,0.08382168,0.00004251,-0.00000252,0.00004228,-0.00000005,-0.000
 10698,0.00000905,-0.00011248,0.00001342,-0.00006572,0.00002276,0.00008
 310,0.00001455,0.00000791,-0.00003722,-0.00005581,0.00000224,0.0000746
 4,0.00001167,0.00003957,0.00001135,-0.00006196,0.00001789,-0.00008673,
 0.00001077,0.00001210,-0.00002506,0.00000166,0.00000105,0.00001189,-0.
 00002064,-0.00004335,-0.00000420,0.00001326,0.00004867,-0.00000174,0.0
 0000803,-0.00000392,-0.00000354,-0.00000855,-0.00008502,-0.00001550,0.
 00005599,0.00010789,0.00000890,-0.00006071,-0.00003538,0.00000846,-0.0
 0000929,-0.00001139,-0.00001205,0.00001243,-0.00003166,-0.00001046,0.0
 0001986,-0.00001460,0.00000269,0.00004064,0.00015260,0.00001819,-0.000
 01322,-0.00005352,-0.00001539,-0.00002655,-0.00000029,-0.00000677,0.00
 004345,-0.00000025,0.00000474,0.00000559,0.00001008,0.00000242,0.00000
 197,0.00000455,-0.00001561,0.00000309,0.00061044,-0.00083084,-0.000563
 06,-0.00000925,0.00000479,-0.00000050,0.00000694,-0.00000805,0.0000075
 7,-0.00000740,0.00000545,0.00000399,0.00000464,-0.00000801,-0.00000204
 ,-0.00000602,0.00000665,0.00000376,0.00000105,0.00000185,-0.00000430,-
 0.00000037,0.00000292,-0.00000198,-0.00000199,0.00000180,-0.00000081,-
 0.00000102,0.00000269,0.00000168,0.00000722,0.00000193,0.00000076,0.00
 000415,-0.00000238,0.00000466,0.00128793,0.00036310,0.00053879,0.00009
 522,0.00032431,0.00030103,-0.00169730,-0.00176331,-0.00049824,-0.24744
 099,0.10384681,-0.04716618,0.00019360,0.00027349,0.00034687,0.00028644
 ,0.00045944,0.00016823,0.26704787,0.00002533,0.00001701,0.00002682,0.0
 0004777,-0.00003770,0.00002737,-0.00009709,-0.00000353,-0.00006283,0.0
 0000529,0.00001057,0.00005799,-0.00003837,-0.00001658,-0.00002279,-0.0
 0000270,0.00003059,0.00000914,-0.00015116,-0.00019980,0.00010110,0.000
 03908,-0.00046215,-0.00037127,0.00018807,0.00005910,0.00003555,-0.0000
 1058,-0.00004184,0.00004857,0.00005847,0.00004489,-0.00003281,-0.00007
 789,0.00000286,-0.00002260,0.00001497,0.00001918,0.00002580,0.00013536
 ,0.00016182,-0.00001738,-0.00003318,-0.00011997,0.00001022,0.00001568,
 0.00001874,0.00000409,0.00001633,0.00001274,-0.00001797,-0.00003563,0.
 00005723,0.00002520,0.00000317,0.00001223,-0.00001074,0.00007049,-0.00
 001649,0.00000333,-0.00000739,0.00001910,-0.00001871,0.00000617,0.0000
 1093,-0.00000632,0.00000068,-0.00000086,-0.00000697,0.00000088,0.00000
 892,0.00001787,-0.00003816,0.00000290,-0.00000291,0.00179160,0.0015721
 7,0.00173276,0.00002608,-0.00006433,-0.00000498,-0.00002138,0.00002039
 ,-0.00001769,0.00001556,-0.00000937,-0.00002095,-0.00000024,0.00000896
 ,-0.00000325,0.00001796,-0.00001513,-0.00001351,-0.00000022,-0.0000025
 7,0.00000599,0.00000124,-0.00001321,0.00000373,0.00000240,-0.00000225,
 -0.00000013,0.00000016,-0.00000422,-0.00000324,-0.00001811,-0.00002910
 ,-0.00000510,-0.00001369,-0.00000380,-0.00000931,0.00145059,-0.0082675
 0,-0.00415937,-0.00077392,-0.00043997,-0.00054702,0.02541471,-0.008953
 32,0.00921358,0.10137283,-0.09915492,0.02305098,-0.00008707,0.00088795
 ,-0.00042751,-0.00069135,0.00048711,0.00068266,-0.11417136,0.10730364,
 -0.00001839,0.00000604,-0.00001639,0.00000787,0.00005219,0.00001205,0.
 00003617,-0.00002866,0.00002290,-0.00003289,-0.00001464,0.00001607,-0.
 00003289,0.00000806,0.00001361,-0.00000996,-0.00003505,-0.00001111,-0.
 00000550,-0.00009336,0.00004810,0.00007680,-0.00015272,-0.00024605,0.0
 0006394,0.00001328,0.00000218,0.00000435,-0.00001029,0.00001164,0.0000
 0975,0.00001265,-0.00001944,-0.00001510,0.00000012,-0.00001073,0.00000
 602,0.00000383,0.00000722,0.00003090,0.00005022,0.00000644,0.00001203,
 -0.00003100,-0.00000581,-0.00000407,0.00000862,-0.00000057,0.00000393,
 0.00000249,-0.00000167,-0.00000752,0.00001363,0.00001161,-0.00000408,0
 .00000603,0.00000105,-0.00004117,-0.00000431,-0.00002139,0.00003280,0.
 00002473,0.00000260,0.00000569,0.00000656,-0.00002539,0.00000354,0.000
 00096,-0.00000316,-0.00000493,0.00000394,0.00000499,-0.00002206,-0.000
 00411,-0.00000585,0.00087366,0.00010204,0.00104084,0.00000958,-0.00001
 994,0.,-0.00000289,0.00000285,-0.00000350,0.00000336,-0.00000183,-0.00
 000572,-0.00000131,0.,-0.00000208,0.00000920,-0.00000751,-0.00000460,0
 .00000052,-0.00000073,0.00000148,0.00000102,-0.00000398,0.00000071,0.0
 0000049,-0.00000002,-0.00000060,-0.00000097,-0.00000098,-0.00000031,-0
 .00000398,-0.00000979,-0.00000267,-0.00000298,-0.00000285,-0.00000275,
 0.00098081,-0.00443337,-0.00070444,-0.00027162,0.00000464,-0.00024102,
 0.01260609,-0.00411982,0.00198779,-0.04828497,0.02430176,-0.05732968,-
 0.00002760,0.00068569,0.00007256,-0.00014665,0.00029958,0.00039562,0.0
 5227319,-0.02478324,0.05793359,0.00003038,0.00003307,0.00008229,0.0000
 0291,-0.00007563,-0.00002854,-0.00001498,0.00004225,0.00003857,-0.0000
 1988,-0.00006134,0.00005933,-0.00006126,-0.00002705,-0.00007077,-0.000
 01992,0.00009224,-0.00000986,-0.00000275,-0.00004990,0.00008390,0.0000
 5706,-0.00000695,-0.00004721,0.00002321,0.00001818,-0.00001417,-0.0000
 0232,-0.00001032,0.00001260,0.00000490,0.00000983,-0.00001644,-0.00001
 072,0.00000405,0.00001111,-0.00001040,-0.00000737,-0.00000436,0.000031
 20,0.00002633,-0.00007822,-0.00002300,-0.00000286,0.00007389,0.0000107
 1,-0.00000488,-0.00000556,0.00000589,0.00000443,-0.00000849,0.00000307
 ,-0.00000273,-0.00003397,-0.00000257,-0.00000236,-0.00003382,0.0000542
 4,-0.00001878,0.00003819,0.00003364,0.00008443,-0.00005318,-0.00000423
 ,-0.00000612,0.00000690,-0.00000072,0.00000948,0.00000126,0.00000240,0
 .00000373,0.00000726,-0.00002670,0.00001951,-0.00001260,-0.00000019,0.
 00059375,0.00040048,0.00000612,-0.00000660,0.00000105,-0.00000529,0.00
 000062,-0.00000621,0.00000563,-0.00000332,-0.00000738,-0.00000373,0.00
 000017,-0.00000107,0.00001170,-0.00000831,-0.00000616,0.00000032,-0.00
 000194,0.00000169,-0.00000014,-0.00000293,0.00000241,0.00000008,-0.000
 00065,0.00000067,0.00000286,0.00000055,-0.00000220,0.00000027,0.000006
 23,0.00000025,-0.00000332,0.00000559,0.00000063,0.00092574,-0.00098081
 ,0.00045110,-0.00022002,-0.00023852,-0.00020337,-0.00156396,0.00095297
 ,0.00029598,-0.04923686,0.00064786,-0.02391049,0.00099511,0.00007309,0
 .00030052,-0.00006553,0.00013268,-0.00048926,-0.00170140,0.00147791,-0
 .02799044,0.04763408,0.00000973,0.00005440,0.00003547,-0.00004170,-0.0
 0002874,-0.00001607,-0.00002741,0.00000915,0.00003372,-0.00004849,-0.0
 0009646,0.00004481,-0.00002035,-0.00002771,-0.00003846,0.00001839,0.00
 005983,0.00001372,0.00003202,0.00000235,0.00000533,0.00000172,0.000049
 56,0.00001093,-0.00001146,0.00000448,-0.00000555,-0.00000046,0.0000013
 4,-0.00000235,-0.00001173,0.,-0.00000092,0.00000781,0.00000215,0.00000
 386,-0.00000117,-0.00000410,-0.00000444,-0.00002621,-0.00000891,-0.000
 00020,0.00002806,0.00002957,0.00001498,-0.00000759,-0.00000278,-0.0000
 0491,-0.00000197,-0.00000208,0.00000223,-0.00000378,-0.00002233,-0.000
 01914,-0.00000466,-0.00000132,-0.00000480,0.00004855,-0.00000221,0.000
 02058,0.00006340,0.00009925,-0.00004873,-0.00000118,-0.00000504,-0.000
 00597,-0.00000260,0.00000863,0.00000976,-0.00000344,0.00000626,0.00000
 527,0.00002627,0.00000265,0.00000232,-0.00062978,-0.00053031,-0.000525
 55,0.00000968,0.00000471,0.00000002,-0.00000384,0.00001431,-0.00000859
 ,0.00000056,0.00000149,0.00000147,-0.00000463,0.00000115,0.00000621,0.
 00000125,-0.00000004,0.00000162,0.00000047,0.00000009,-0.00000002,0.00
 000010,0.00000093,0.00000025,-0.00000047,0.00000034,-0.00000013,-0.000
 00023,0.00000101,0.00000020,0.00000466,0.00000622,0.00000053,0.0000013
 4,0.00000009,-0.00000055,-0.00135262,0.00270197,0.00141439,0.00061492,
 -0.00018644,0.00041087,-0.00310523,0.00210459,-0.03441286,0.00176978,-
 0.04858232,0.02687884,0.00072490,-0.00548261,-0.00203912,-0.00004086,0
 .00134403,0.00061897,0.00015729,-0.00196434,0.01433552,-0.00131047,0.0
 5232385,-0.00001564,-0.00000005,-0.00003927,0.00000787,0.00004052,0.00
 001386,-0.00005807,-0.00002799,-0.00006010,0.00004377,0.00000151,-0.00
 003853,0.00008485,0.00000445,0.00007643,0.00004229,-0.00001997,0.00001
 388,-0.00010630,-0.00000664,-0.00004626,-0.00000820,-0.00000330,-0.000
 10250,0.00001100,0.00002474,0.00001498,-0.00001373,-0.00000894,0.00000
 664,0.00007262,-0.00000830,0.00000632,-0.00007616,-0.00000621,-0.00005
 041,0.00003581,0.00002877,0.00002970,0.00008988,0.00005146,0.00008430,
 -0.00007973,-0.00006738,-0.00008235,0.00002751,0.00000954,0.00002040,0
 .00000959,0.00001146,-0.00000356,0.00000049,0.00004839,0.00004728,0.00
 002355,0.00000534,0.00002695,-0.00004037,0.00000869,-0.00002887,-0.000
 05525,-0.00006466,0.00003914,-0.00001134,-0.00000242,0.00001617,-0.000
 00847,-0.00000887,0.00000501,-0.00000499,-0.00000884,-0.00000344,0.000
 02374,-0.00002600,0.00001248,-0.00016994,-0.00016244,-0.00009893,0.000
 01680,-0.00001249,0.00000145,-0.00000598,0.00000653,-0.00000847,0.0000
 0359,-0.00000383,0.00000183,0.00000094,0.00001371,0.00000572,-0.000012
 89,0.00000254,0.00000137,-0.00000180,0.00000046,0.00000356,0.00000106,
 -0.00000228,-0.00000221,0.00000346,-0.00000161,0.00000044,-0.00000416,
 -0.00000581,0.00000029,-0.00001762,-0.00002724,-0.00000166,-0.00000539
 ,-0.00000746,-0.00000798,0.00011700,0.00060554,0.00139327,0.00034974,0
 .00008903,0.00026435,-0.00183997,0.00194536,-0.01480916,-0.02341501,0.
 02397018,-0.30847816,-0.00021623,-0.00276827,0.00067618,-0.00011191,-0
 .00025253,0.00087389,0.00014088,0.00031779,-0.00464103,0.02701270,-0.0
 2412676,0.33460619,0.00002365,0.00002961,0.00005156,-0.00003126,-0.000
 01170,-0.00007613,-0.00005484,0.00007436,0.00031431,-0.00014195,-0.000
 10232,0.00018241,-0.00009714,-0.00003341,-0.00007569,-0.00001868,0.000
 05570,-0.00003261,-0.00003740,-0.00007678,0.00008450,0.00001115,-0.000
 08349,-0.00003748,0.00003625,0.00001980,0.00000263,-0.00000228,-0.0000
 2062,0.00002628,0.00001388,0.00002604,-0.00001397,-0.00002061,0.000003
 26,0.00000147,-0.00000070,0.00000134,0.00000433,0.00006234,0.00004011,
 -0.00005181,-0.00003251,-0.00003476,0.00004922,0.00000958,0.00000701,-
 0.00000211,0.00000646,0.00000446,-0.00000891,0.00002380,0.00002648,-0.
 00001184,-0.00000341,0.00000601,-0.00002648,-0.00017577,0.00005992,0.0
 0008848,0.00010268,0.00012482,0.00000834,-0.00000614,-0.00001110,-0.00
 003163,0.00000032,0.00000827,0.00000055,-0.00001017,0.00000479,0.00000
 240,-0.00000476,0.00000138,-0.00000492,0.00006755,0.00045419,0.0003542
 6,0.00000945,-0.00001685,-0.00000333,-0.00000673,0.00000943,-0.0000055
 8,0.00000459,-0.00000242,-0.00000856,-0.00000352,-0.00000015,-0.000001
 58,0.00001246,-0.00000870,-0.00000739,0.00000024,-0.00000220,0.0000022
 6,-0.00000006,-0.00000696,0.00000300,-0.00000002,-0.00000127,-0.000000
 08,0.00000081,-0.00000157,-0.00000205,-0.00000553,-0.00000830,-0.00000
 215,-0.00000441,0.00000103,-0.00000258,0.00161739,-0.00041043,-0.00033
 500,-0.00009367,-0.00008723,-0.00012013,-0.00044319,0.00196014,-0.0006
 9480,-0.19539447,-0.11431855,0.07028377,0.00007017,-0.00024082,-0.0002
 3437,0.00112613,0.00071656,-0.00014580,-0.01875764,-0.01592927,0.00988
 024,0.00315840,0.00314144,-0.00183998,0.20898959,0.00009865,0.00005532
 ,0.00013570,0.00000431,-0.00024855,-0.00000259,-0.00027748,-0.00002271
 ,0.00001540,-0.00010993,0.00020120,0.00015846,-0.00007180,-0.00016811,
 -0.00016027,-0.00002445,0.00020044,0.00001076,0.00000850,-0.00017652,0
 .00004043,-0.00002964,0.00001584,-0.00000410,0.00001822,0.00001525,0.0
 0000426,-0.00000798,-0.00001341,0.00002423,-0.00003668,0.00006227,-0.0
 0001845,0.00002815,0.00000539,0.00001913,-0.00000774,-0.00000243,-0.00
 000419,-0.00006161,0.00009691,0.00000950,0.00015478,-0.00001099,0.0000
 0157,-0.00004048,0.00002198,-0.00001974,-0.00000529,-0.00001125,-0.000
 00034,-0.00004861,-0.00002864,0.00000100,-0.00003319,0.00001198,0.0000
 1409,0.00031390,0.00006138,0.00000934,0.00001278,0.00007170,0.00000414
 ,0.00001536,-0.00000477,0.00002513,-0.00000171,0.00000901,0.00001358,0
 .00000557,0.00002737,0.00002898,0.00002397,-0.00001669,0.00000569,-0.0
 0055125,-0.00036990,-0.00051832,0.00000531,-0.00000316,-0.00000111,-0.
 00000595,0.00002691,-0.00000654,0.00000317,0.00000277,-0.00000551,-0.0
 0000639,-0.00000566,0.00000205,0.00001669,-0.00000797,-0.00000542,0.00
 000157,-0.00000098,-0.00000187,-0.00000124,-0.00000840,0.00000341,-0.0
 0000276,0.00000004,-0.00000139,0.00000011,0.00000220,-0.00000045,0.000
 00189,-0.00000971,-0.00000360,-0.00000250,-0.00000284,-0.00000017,-0.0
 0057447,0.00296019,0.00042937,0.00078727,0.00007658,0.00017061,-0.0245
 2952,-0.01980930,0.01126262,-0.11123417,-0.13051990,0.05358719,0.00046
 490,0.00123049,0.00008908,0.00104072,-0.00455352,-0.00321572,0.0114353
 8,0.00905391,-0.00618721,-0.00140909,-0.00188664,0.00044426,0.12463275
 ,0.14367295,0.00000599,0.00004717,0.00005438,-0.00001370,-0.00004588,-
 0.00005246,0.00018386,-0.00003378,0.00006615,-0.00003976,-0.00015559,-
 0.00001517,-0.00016770,0.00000163,-0.00008032,-0.00000171,0.00005476,-
 0.00002856,0.00010293,-0.00000477,0.00010346,-0.00000847,0.00000885,0.
 00001410,0.00000869,0.00000402,-0.00001850,0.00000777,-0.00000383,0.00
 000605,-0.00004970,0.00001779,-0.00001888,0.00004012,0.00000749,0.0000
 3776,-0.00002848,-0.00002729,-0.00002326,-0.00006662,-0.00003839,-0.00
 009957,0.00003263,0.00014074,0.00012559,-0.00000046,-0.00002383,-0.000
 00800,-0.00000389,-0.00000585,-0.00000136,0.00003815,-0.00010767,-0.00
 008594,-0.00001959,-0.00001370,-0.00005743,0.00004326,-0.00001909,0.00
 003684,0.00014776,0.00017680,-0.00015042,0.00000740,-0.00000900,-0.000
 00477,0.00000005,0.00001741,0.00000698,-0.00000373,0.00001247,0.000012
 62,0.00000219,0.00002694,-0.00001624,-0.00032938,0.00014646,0.00002373
 ,0.00000324,0.00000125,-0.00000059,-0.00000662,0.00000874,-0.00000500,
 0.00000312,0.00000017,-0.00000640,-0.00000796,-0.00000768,0.00000234,0
 .00001973,-0.00000853,-0.00000513,0.00000139,-0.00000113,-0.00000081,-
 0.00000134,0.00000277,0.00000300,-0.00000193,0.00000050,0.00000013,0.0
 0000431,0.00000359,-0.00000178,0.00001599,0.00003040,-0.00000015,0.000
 00157,0.00000822,0.00000149,0.00008775,0.00113195,0.00018526,0.0002131
 8,-0.00017384,-0.00021277,-0.01342518,-0.00972750,0.00549090,0.0720384
 9,0.05509618,-0.08210046,-0.00050136,0.00051950,0.00067271,0.00060621,
 -0.00328676,-0.00044187,-0.00552614,-0.00481195,0.00171290,0.02415099,
 0.01739324,-0.00973920,-0.07756303,-0.05635301,0.08461866\\-0.00000312
 ,0.00000138,0.00000075,-0.00000059,-0.00000179,0.00000242,0.00000115,0
 .00000009,0.00000204,0.00000041,0.00000013,-0.00000022,0.00000142,-0.0
 0000010,-0.00000096,0.00000003,0.00000041,-0.00000008,0.00000155,-0.00
 000756,-0.00000421,0.00000208,0.00000446,-0.00000221,-0.00000028,0.000
 00024,-0.00000086,-0.00000019,0.00000106,-0.00000147,-0.00000016,-0.00
 000206,0.00000193,0.00000279,-0.00000380,0.00000585,-0.00000804,-0.000
 00984,-0.00000619,-0.00000170,0.00000653,-0.00000050,-0.00000678,0.000
 00292,0.00000131,0.00000443,0.00000404,0.00000167,-0.00000013,-0.00000
 343,0.00000131,-0.00000083,-0.00000383,-0.00000146,-0.00000044,0.00000
 265,-0.00000082,0.00000603,0.00000030,0.00000195,0.00000112,0.00000041
 ,-0.00000078,0.00000137,0.00000044,-0.00000060,0.00000066,0.00000042,-
 0.00000043,-0.00000158,0.00000073,-0.00000060,-0.00000068,0.00000085,-
 0.00000020,-0.00000064,-0.00000526,0.00000576,-0.00000033,0.00000060,0
 .00000051,-0.00000088,0.00000020,0.00000023,-0.00000084,-0.00000021,0.
 00000056,-0.00000198,0.00000061,-0.00000027,0.00000251,-0.00000197,0.0
 0000312,-0.00000021,-0.00000118,0.00000070,-0.00000002,-0.00000167,0.0
 0000081,-0.00000077,-0.00000178,0.00000096,-0.00000032,-0.00000007,0.0
 0000081,0.00000254,0.00000048,0.00000254,-0.00000136,-0.00000023,0.000
 00062,0.00000082,0.00000460,-0.00000367,0.00000085,0.00000407,-0.00000
 538,-0.00000021,0.00000024,0.00000002,0.00000023,0.00000084,-0.0000008
 6,0.00000029,0.00000093,-0.00000083,-0.00000010,0.00000126,-0.00000083
 ,0.00000062,0.00000136,-0.00000093,0.00000026,0.00000118,-0.00000080,0
 .00000101,0.00000134,-0.00000075\\\@


 ALMOST ANYTHING IS EASIER TO GET INTO THAN OUT OF.

                         -- AGNES ALLEN'S LAW FROM
                PAUL DICKSON'S "THE OFFICIAL RULES"
 Job cpu time:       2 days 10 hours 48 minutes 16.6 seconds.
 Elapsed time:       0 days  3 hours 41 minutes  4.0 seconds.
 File lengths (MBytes):  RWF=   4244 Int=      0 D2E=      0 Chk=     57 Scr=      1
 Normal termination of Gaussian 16 at Tue Jun 15 16:51:55 2021.
