 Entering Gaussian System, Link 0=g16
 Input=prenyl-first_betaine-gs1-b3lyp_d3bj-juldz-gas.gjf
 Output=prenyl-first_betaine-gs1-b3lyp_d3bj-juldz-gas.out
 Initial command:
 /SFS/product/gaussian/g16.a03/x86_64/avx/g16/l1.exe "/scratch/kwaneu.2872112.bmbhpcps002/Gau-51004.inp" -scrdir="/scratch/kwaneu.2872112.bmbhpcps002/"
 Entering Link 1 = /SFS/product/gaussian/g16.a03/x86_64/avx/g16/l1.exe PID=     51005.
  
 Copyright (c) 1988,1990,1992,1993,1995,1998,2003,2009,2016,
            Gaussian, Inc.  All Rights Reserved.
  
 This is part of the Gaussian(R) 16 program.  It is based on
 the Gaussian(R) 09 system (copyright 2009, Gaussian, Inc.),
 the Gaussian(R) 03 system (copyright 2003, Gaussian, Inc.),
 the Gaussian(R) 98 system (copyright 1998, Gaussian, Inc.),
 the Gaussian(R) 94 system (copyright 1995, Gaussian, Inc.),
 the Gaussian 92(TM) system (copyright 1992, Gaussian, Inc.),
 the Gaussian 90(TM) system (copyright 1990, Gaussian, Inc.),
 the Gaussian 88(TM) system (copyright 1988, Gaussian, Inc.),
 the Gaussian 86(TM) system (copyright 1986, Carnegie Mellon
 University), and the Gaussian 82(TM) system (copyright 1983,
 Carnegie Mellon University). Gaussian is a federally registered
 trademark of Gaussian, Inc.
  
 This software contains proprietary and confidential information,
 including trade secrets, belonging to Gaussian, Inc.
  
 This software is provided under written license and may be
 used, copied, transmitted, or stored only in accord with that
 written license.
  
 The following legend is applicable only to US Government
 contracts under FAR:
  
                    RESTRICTED RIGHTS LEGEND
  
 Use, reproduction and disclosure by the US Government is
 subject to restrictions as set forth in subparagraphs (a)
 and (c) of the Commercial Computer Software - Restricted
 Rights clause in FAR 52.227-19.
  
 Gaussian, Inc.
 340 Quinnipiac St., Bldg. 40, Wallingford CT 06492
  
  
 ---------------------------------------------------------------
 Warning -- This program may not be used in any manner that
 competes with the business of Gaussian, Inc. or will provide
 assistance to any competitor of Gaussian, Inc.  The licensee
 of this program is prohibited from giving any competitor of
 Gaussian, Inc. access to this program.  By using this program,
 the user acknowledges that Gaussian, Inc. is engaged in the
 business of creating and licensing software in the field of
 computational chemistry and represents and warrants to the
 licensee that it is not a competitor of Gaussian, Inc. and that
 it will not use this program in any manner prohibited above.
 ---------------------------------------------------------------
  

 Cite this work as:
 Gaussian 16, Revision A.03,
 M. J. Frisch, G. W. Trucks, H. B. Schlegel, G. E. Scuseria, 
 M. A. Robb, J. R. Cheeseman, G. Scalmani, V. Barone, 
 G. A. Petersson, H. Nakatsuji, X. Li, M. Caricato, A. V. Marenich, 
 J. Bloino, B. G. Janesko, R. Gomperts, B. Mennucci, H. P. Hratchian, 
 J. V. Ortiz, A. F. Izmaylov, J. L. Sonnenberg, D. Williams-Young, 
 F. Ding, F. Lipparini, F. Egidi, J. Goings, B. Peng, A. Petrone, 
 T. Henderson, D. Ranasinghe, V. G. Zakrzewski, J. Gao, N. Rega, 
 G. Zheng, W. Liang, M. Hada, M. Ehara, K. Toyota, R. Fukuda, 
 J. Hasegawa, M. Ishida, T. Nakajima, Y. Honda, O. Kitao, H. Nakai, 
 T. Vreven, K. Throssell, J. A. Montgomery, Jr., J. E. Peralta, 
 F. Ogliaro, M. J. Bearpark, J. J. Heyd, E. N. Brothers, K. N. Kudin, 
 V. N. Staroverov, T. A. Keith, R. Kobayashi, J. Normand, 
 K. Raghavachari, A. P. Rendell, J. C. Burant, S. S. Iyengar, 
 J. Tomasi, M. Cossi, J. M. Millam, M. Klene, C. Adamo, R. Cammi, 
 J. W. Ochterski, R. L. Martin, K. Morokuma, O. Farkas, 
 J. B. Foresman, and D. J. Fox, Gaussian, Inc., Wallingford CT, 2016.
 
 ******************************************
 Gaussian 16:  ES64L-G16RevA.03 25-Dec-2016
                13-Jun-2021 
 ******************************************
 %mem=16GB
 %nprocshared=16
 Will use up to   16 processors via shared memory.
 ----------------------------------------------------------------------
 #p opt=(calcfc,maxstep=3) freq=noraman b3lyp jul-cc-pvdz pop=cm5 empir
 icaldispersion=gd3bj
 ----------------------------------------------------------------------
 1/8=3,10=4,18=20,19=15,26=3,38=1/1,3;
 2/9=110,12=2,17=6,18=5,40=1/2;
 3/5=16,7=50,11=2,25=1,30=1,71=2,74=-5,124=41,140=1/1,2,3;
 4//1;
 5/5=2,38=5/2;
 8/6=4,10=90,11=11/1;
 11/6=1,8=1,9=11,15=111,16=1/1,2,10;
 10/6=1,13=1/2;
 6/7=2,8=2,9=2,10=2,28=1,79=1/1;
 7/10=1,18=20,25=1/1,2,3,16;
 1/8=3,10=4,18=20,19=15,26=3/3(2);
 2/9=110/2;
 99//99;
 2/9=110/2;
 3/5=16,7=50,11=2,25=1,30=1,71=1,74=-5,124=41/1,2,3;
 4/5=5,16=3,69=1/1;
 5/5=2,38=5/2;
 7//1,2,3,16;
 1/8=3,18=20,19=15,26=3/3(-5);
 2/9=110/2;
 6/7=2,8=2,9=2,10=2,19=2,28=1,79=1/1;
 99/9=1/99;
 Leave Link    1 at Sun Jun 13 01:47:03 2021, MaxMem=  2147483648 cpu:               1.2 elap:               0.1
 (Enter /SFS/product/gaussian/g16.a03/x86_64/avx/g16/l101.exe)
 -----
 title
 -----
 Symbolic Z-matrix:
 Charge =  0 Multiplicity = 6
 C                    -1.70811   0.47627   2.02097 
 C                    -1.10281  -0.03735   0.86716 
 C                    -1.29428  -1.39056   0.56024 
 C                    -2.04206  -2.21536   1.40038 
 C                    -2.6249   -1.69854   2.56004 
 C                    -2.45875  -0.3456    2.86387 
 C                    -0.30032   0.8327   -0.11218 
 C                    -1.25517   1.5842   -1.15897 
 C                    -1.06022   3.09766  -0.97435 
 C                    -0.46792   3.28689   0.42469 
 C                     0.41594   2.01018   0.68359 
 C                     1.76399   2.37969   0.23932 
 C                     2.16623   2.46569  -1.14494 
 O                     0.62419   0.07006  -0.81689 
 Fe                    1.9355   -1.14003  -0.28437 
 Cl                    3.82545  -0.38907  -1.2953 
 C                     2.78224   2.6       1.27351 
 Cl                    1.49762  -3.219    -0.86315 
 Cl                    2.20957  -0.81971   1.91778 
 H                    -0.85774  -1.80444  -0.34402 
 H                    -2.16004  -3.26929   1.14685 
 H                    -3.20417  -2.34364   3.22167 
 H                    -2.91495   0.07631   3.75987 
 H                    -1.62213   1.52959   2.27993 
 H                    -0.93532   1.23252  -2.14465 
 C                    -2.70511   1.18927  -0.96297 
 H                    -0.38902   3.49577  -1.74414 
 H                    -2.00972   3.63769  -1.05931 
 H                     0.08046   4.23248   0.53735 
 H                    -1.25667   3.27902   1.18582 
 H                     0.45404   1.7689    1.74815 
 H                     2.3614    3.04453   2.18454 
 H                     3.07003   1.56272   1.56369 
 H                     3.66967   3.13427   0.92154 
 H                     2.89378   3.26637  -1.32735 
 H                     2.76404   1.5076   -1.27117 
 H                     1.36733   2.41807  -1.88229 
 O                    -2.97515   0.02607  -1.57184 
 O                    -3.51115   1.82597  -0.31416 
 C                    -4.25347  -0.58436  -1.24904 
 C                    -4.27824  -1.94698  -1.90683 
 H                    -4.32701  -0.64942  -0.15583 
 H                    -5.05462   0.07335  -1.61161 
 H                    -5.23389  -2.44271  -1.68472 
 H                    -4.17625  -1.86061  -2.99712 
 H                    -3.46264  -2.57566  -1.52623 
 
 ITRead=  0  0  0  0  0  0  0  0  0  0  0  0  0  0  0  0  0  0  0  0
 ITRead=  0  0  0  0  0  0  0  0  0  0  0  0  0  0  0  0  0  0  0  0
 ITRead=  0  0  0  0  0  0
 MicOpt= -1 -1 -1 -1 -1 -1 -1 -1 -1 -1 -1 -1 -1 -1 -1 -1 -1 -1 -1 -1
 MicOpt= -1 -1 -1 -1 -1 -1 -1 -1 -1 -1 -1 -1 -1 -1 -1 -1 -1 -1 -1 -1
 MicOpt= -1 -1 -1 -1 -1 -1
 NAtoms=     46 NQM=       46 NQMF=       0 NMMI=      0 NMMIF=      0
                NMic=       0 NMicF=      0.
                    Isotopes and Nuclear Properties:
 (Nuclear quadrupole moments (NQMom) in fm**2, nuclear magnetic moments (NMagM)
  in nuclear magnetons)

  Atom         1           2           3           4           5           6           7           8           9          10
 IAtWgt=          12          12          12          12          12          12          12          12          12          12
 AtmWgt=  12.0000000  12.0000000  12.0000000  12.0000000  12.0000000  12.0000000  12.0000000  12.0000000  12.0000000  12.0000000
 NucSpn=           0           0           0           0           0           0           0           0           0           0
 AtZEff=  -0.0000000  -0.0000000  -0.0000000  -0.0000000  -0.0000000  -0.0000000  -0.0000000  -0.0000000  -0.0000000  -0.0000000
 NQMom=    0.0000000   0.0000000   0.0000000   0.0000000   0.0000000   0.0000000   0.0000000   0.0000000   0.0000000   0.0000000
 NMagM=    0.0000000   0.0000000   0.0000000   0.0000000   0.0000000   0.0000000   0.0000000   0.0000000   0.0000000   0.0000000
 AtZNuc=   6.0000000   6.0000000   6.0000000   6.0000000   6.0000000   6.0000000   6.0000000   6.0000000   6.0000000   6.0000000

  Atom        11          12          13          14          15          16          17          18          19          20
 IAtWgt=          12          12          12          16          56          35          12          35          35           1
 AtmWgt=  12.0000000  12.0000000  12.0000000  15.9949146  55.9349393  34.9688527  12.0000000  34.9688527  34.9688527   1.0078250
 NucSpn=           0           0           0           0           0           3           0           3           3           1
 AtZEff=  -0.0000000  -0.0000000  -0.0000000  -0.0000000  -0.0000000  -0.0000000  -0.0000000  -0.0000000  -0.0000000  -0.0000000
 NQMom=    0.0000000   0.0000000   0.0000000   0.0000000   0.0000000  -8.1650000   0.0000000  -8.1650000  -8.1650000   0.0000000
 NMagM=    0.0000000   0.0000000   0.0000000   0.0000000   0.0000000   0.8218740   0.0000000   0.8218740   0.8218740   2.7928460
 AtZNuc=   6.0000000   6.0000000   6.0000000   8.0000000  26.0000000  17.0000000   6.0000000  17.0000000  17.0000000   1.0000000

  Atom        21          22          23          24          25          26          27          28          29          30
 IAtWgt=           1           1           1           1           1          12           1           1           1           1
 AtmWgt=   1.0078250   1.0078250   1.0078250   1.0078250   1.0078250  12.0000000   1.0078250   1.0078250   1.0078250   1.0078250
 NucSpn=           1           1           1           1           1           0           1           1           1           1
 AtZEff=  -0.0000000  -0.0000000  -0.0000000  -0.0000000  -0.0000000  -0.0000000  -0.0000000  -0.0000000  -0.0000000  -0.0000000
 NQMom=    0.0000000   0.0000000   0.0000000   0.0000000   0.0000000   0.0000000   0.0000000   0.0000000   0.0000000   0.0000000
 NMagM=    2.7928460   2.7928460   2.7928460   2.7928460   2.7928460   0.0000000   2.7928460   2.7928460   2.7928460   2.7928460
 AtZNuc=   1.0000000   1.0000000   1.0000000   1.0000000   1.0000000   6.0000000   1.0000000   1.0000000   1.0000000   1.0000000

  Atom        31          32          33          34          35          36          37          38          39          40
 IAtWgt=           1           1           1           1           1           1           1          16          16          12
 AtmWgt=   1.0078250   1.0078250   1.0078250   1.0078250   1.0078250   1.0078250   1.0078250  15.9949146  15.9949146  12.0000000
 NucSpn=           1           1           1           1           1           1           1           0           0           0
 AtZEff=  -0.0000000  -0.0000000  -0.0000000  -0.0000000  -0.0000000  -0.0000000  -0.0000000  -0.0000000  -0.0000000  -0.0000000
 NQMom=    0.0000000   0.0000000   0.0000000   0.0000000   0.0000000   0.0000000   0.0000000   0.0000000   0.0000000   0.0000000
 NMagM=    2.7928460   2.7928460   2.7928460   2.7928460   2.7928460   2.7928460   2.7928460   0.0000000   0.0000000   0.0000000
 AtZNuc=   1.0000000   1.0000000   1.0000000   1.0000000   1.0000000   1.0000000   1.0000000   8.0000000   8.0000000   6.0000000

  Atom        41          42          43          44          45          46
 IAtWgt=          12           1           1           1           1           1
 AtmWgt=  12.0000000   1.0078250   1.0078250   1.0078250   1.0078250   1.0078250
 NucSpn=           0           1           1           1           1           1
 AtZEff=  -0.0000000  -0.0000000  -0.0000000  -0.0000000  -0.0000000  -0.0000000
 NQMom=    0.0000000   0.0000000   0.0000000   0.0000000   0.0000000   0.0000000
 NMagM=    0.0000000   2.7928460   2.7928460   2.7928460   2.7928460   2.7928460
 AtZNuc=   6.0000000   1.0000000   1.0000000   1.0000000   1.0000000   1.0000000
 Leave Link  101 at Sun Jun 13 01:47:04 2021, MaxMem=  2147483648 cpu:               5.3 elap:               0.4
 (Enter /SFS/product/gaussian/g16.a03/x86_64/avx/g16/l103.exe)

 GradGradGradGradGradGradGradGradGradGradGradGradGradGradGradGradGradGrad
 Berny optimization.
 Initialization pass.
                           ----------------------------
                           !    Initial Parameters    !
                           ! (Angstroms and Degrees)  !
 --------------------------                            --------------------------
 ! Name  Definition              Value          Derivative Info.                !
 --------------------------------------------------------------------------------
 ! R1    R(1,2)                  1.4005         calculate D2E/DX2 analytically  !
 ! R2    R(1,6)                  1.3962         calculate D2E/DX2 analytically  !
 ! R3    R(1,24)                 1.0881         calculate D2E/DX2 analytically  !
 ! R4    R(2,3)                  1.4007         calculate D2E/DX2 analytically  !
 ! R5    R(2,7)                  1.5363         calculate D2E/DX2 analytically  !
 ! R6    R(3,4)                  1.3947         calculate D2E/DX2 analytically  !
 ! R7    R(3,20)                 1.0861         calculate D2E/DX2 analytically  !
 ! R8    R(4,5)                  1.397          calculate D2E/DX2 analytically  !
 ! R9    R(4,21)                 1.0904         calculate D2E/DX2 analytically  !
 ! R10   R(5,6)                  1.3966         calculate D2E/DX2 analytically  !
 ! R11   R(5,22)                 1.0906         calculate D2E/DX2 analytically  !
 ! R12   R(6,23)                 1.0904         calculate D2E/DX2 analytically  !
 ! R13   R(7,8)                  1.6038         calculate D2E/DX2 analytically  !
 ! R14   R(7,11)                 1.5915         calculate D2E/DX2 analytically  !
 ! R15   R(7,14)                 1.3903         calculate D2E/DX2 analytically  !
 ! R16   R(8,9)                  1.5371         calculate D2E/DX2 analytically  !
 ! R17   R(8,25)                 1.0943         calculate D2E/DX2 analytically  !
 ! R18   R(8,26)                 1.5155         calculate D2E/DX2 analytically  !
 ! R19   R(9,10)                 1.531          calculate D2E/DX2 analytically  !
 ! R20   R(9,27)                 1.0962         calculate D2E/DX2 analytically  !
 ! R21   R(9,28)                 1.0956         calculate D2E/DX2 analytically  !
 ! R22   R(10,11)                1.5742         calculate D2E/DX2 analytically  !
 ! R23   R(10,29)                1.0989         calculate D2E/DX2 analytically  !
 ! R24   R(10,30)                1.0961         calculate D2E/DX2 analytically  !
 ! R25   R(11,12)                1.4667         calculate D2E/DX2 analytically  !
 ! R26   R(11,31)                1.0922         calculate D2E/DX2 analytically  !
 ! R27   R(12,13)                1.4441         calculate D2E/DX2 analytically  !
 ! R28   R(12,17)                1.468          calculate D2E/DX2 analytically  !
 ! R29   R(13,35)                1.0971         calculate D2E/DX2 analytically  !
 ! R30   R(13,36)                1.1363         calculate D2E/DX2 analytically  !
 ! R31   R(13,37)                1.0882         calculate D2E/DX2 analytically  !
 ! R32   R(14,15)                1.8621         calculate D2E/DX2 analytically  !
 ! R33   R(15,16)                2.2711         calculate D2E/DX2 analytically  !
 ! R34   R(15,18)                2.202          calculate D2E/DX2 analytically  !
 ! R35   R(15,19)                2.2421         calculate D2E/DX2 analytically  !
 ! R36   R(17,32)                1.0976         calculate D2E/DX2 analytically  !
 ! R37   R(17,33)                1.1149         calculate D2E/DX2 analytically  !
 ! R38   R(17,34)                1.094          calculate D2E/DX2 analytically  !
 ! R39   R(26,38)                1.3404         calculate D2E/DX2 analytically  !
 ! R40   R(26,39)                1.2149         calculate D2E/DX2 analytically  !
 ! R41   R(38,40)                1.4529         calculate D2E/DX2 analytically  !
 ! R42   R(40,41)                1.5133         calculate D2E/DX2 analytically  !
 ! R43   R(40,42)                1.0976         calculate D2E/DX2 analytically  !
 ! R44   R(40,43)                1.0981         calculate D2E/DX2 analytically  !
 ! R45   R(41,44)                1.0992         calculate D2E/DX2 analytically  !
 ! R46   R(41,45)                1.0985         calculate D2E/DX2 analytically  !
 ! R47   R(41,46)                1.0979         calculate D2E/DX2 analytically  !
 ! A1    A(2,1,6)              120.9205         calculate D2E/DX2 analytically  !
 ! A2    A(2,1,24)             121.1264         calculate D2E/DX2 analytically  !
 ! A3    A(6,1,24)             117.9458         calculate D2E/DX2 analytically  !
 ! A4    A(1,2,3)              118.4064         calculate D2E/DX2 analytically  !
 ! A5    A(1,2,7)              122.9059         calculate D2E/DX2 analytically  !
 ! A6    A(3,2,7)              118.6105         calculate D2E/DX2 analytically  !
 ! A7    A(2,3,4)              120.8377         calculate D2E/DX2 analytically  !
 ! A8    A(2,3,20)             119.712          calculate D2E/DX2 analytically  !
 ! A9    A(4,3,20)             119.4502         calculate D2E/DX2 analytically  !
 ! A10   A(3,4,5)              120.3267         calculate D2E/DX2 analytically  !
 ! A11   A(3,4,21)             119.3109         calculate D2E/DX2 analytically  !
 ! A12   A(5,4,21)             120.3604         calculate D2E/DX2 analytically  !
 ! A13   A(4,5,6)              119.2981         calculate D2E/DX2 analytically  !
 ! A14   A(4,5,22)             120.4215         calculate D2E/DX2 analytically  !
 ! A15   A(6,5,22)             120.2805         calculate D2E/DX2 analytically  !
 ! A16   A(1,6,5)              120.1906         calculate D2E/DX2 analytically  !
 ! A17   A(1,6,23)             119.5546         calculate D2E/DX2 analytically  !
 ! A18   A(5,6,23)             120.2547         calculate D2E/DX2 analytically  !
 ! A19   A(2,7,8)              111.7435         calculate D2E/DX2 analytically  !
 ! A20   A(2,7,11)             109.5946         calculate D2E/DX2 analytically  !
 ! A21   A(2,7,14)             111.0894         calculate D2E/DX2 analytically  !
 ! A22   A(8,7,11)             104.337          calculate D2E/DX2 analytically  !
 ! A23   A(8,7,14)             108.7895         calculate D2E/DX2 analytically  !
 ! A24   A(11,7,14)            111.1014         calculate D2E/DX2 analytically  !
 ! A25   A(7,8,9)              107.9066         calculate D2E/DX2 analytically  !
 ! A26   A(7,8,25)             105.2654         calculate D2E/DX2 analytically  !
 ! A27   A(7,8,26)             111.2901         calculate D2E/DX2 analytically  !
 ! A28   A(9,8,25)             112.801          calculate D2E/DX2 analytically  !
 ! A29   A(9,8,26)             111.2475         calculate D2E/DX2 analytically  !
 ! A30   A(25,8,26)            108.2031         calculate D2E/DX2 analytically  !
 ! A31   A(8,9,10)             106.2912         calculate D2E/DX2 analytically  !
 ! A32   A(8,9,27)             110.5431         calculate D2E/DX2 analytically  !
 ! A33   A(8,9,28)             111.4747         calculate D2E/DX2 analytically  !
 ! A34   A(10,9,27)            111.0972         calculate D2E/DX2 analytically  !
 ! A35   A(10,9,28)            110.195          calculate D2E/DX2 analytically  !
 ! A36   A(27,9,28)            107.2888         calculate D2E/DX2 analytically  !
 ! A37   A(9,10,11)            105.501          calculate D2E/DX2 analytically  !
 ! A38   A(9,10,29)            113.1476         calculate D2E/DX2 analytically  !
 ! A39   A(9,10,30)            110.8094         calculate D2E/DX2 analytically  !
 ! A40   A(11,10,29)           113.6294         calculate D2E/DX2 analytically  !
 ! A41   A(11,10,30)           106.4982         calculate D2E/DX2 analytically  !
 ! A42   A(29,10,30)           107.1029         calculate D2E/DX2 analytically  !
 ! A43   A(7,11,10)            105.374          calculate D2E/DX2 analytically  !
 ! A44   A(7,11,12)            116.6543         calculate D2E/DX2 analytically  !
 ! A45   A(7,11,31)            109.8531         calculate D2E/DX2 analytically  !
 ! A46   A(10,11,12)           105.1831         calculate D2E/DX2 analytically  !
 ! A47   A(10,11,31)           111.0409         calculate D2E/DX2 analytically  !
 ! A48   A(12,11,31)           108.592          calculate D2E/DX2 analytically  !
 ! A49   A(11,12,13)           124.151          calculate D2E/DX2 analytically  !
 ! A50   A(11,12,17)           117.5134         calculate D2E/DX2 analytically  !
 ! A51   A(13,12,17)           118.2405         calculate D2E/DX2 analytically  !
 ! A52   A(12,13,35)           112.8021         calculate D2E/DX2 analytically  !
 ! A53   A(12,13,36)           101.7015         calculate D2E/DX2 analytically  !
 ! A54   A(12,13,37)           116.2583         calculate D2E/DX2 analytically  !
 ! A55   A(35,13,36)           104.3578         calculate D2E/DX2 analytically  !
 ! A56   A(35,13,37)           113.9614         calculate D2E/DX2 analytically  !
 ! A57   A(36,13,37)           105.9059         calculate D2E/DX2 analytically  !
 ! A58   A(7,14,15)            132.8269         calculate D2E/DX2 analytically  !
 ! A59   A(14,15,16)           104.1136         calculate D2E/DX2 analytically  !
 ! A60   A(14,15,18)           113.4743         calculate D2E/DX2 analytically  !
 ! A61   A(14,15,19)           105.9095         calculate D2E/DX2 analytically  !
 ! A62   A(16,15,18)           111.1411         calculate D2E/DX2 analytically  !
 ! A63   A(16,15,19)           106.752          calculate D2E/DX2 analytically  !
 ! A64   A(18,15,19)           114.6673         calculate D2E/DX2 analytically  !
 ! A65   A(12,17,32)           112.3074         calculate D2E/DX2 analytically  !
 ! A66   A(12,17,33)           102.8725         calculate D2E/DX2 analytically  !
 ! A67   A(12,17,34)           114.161          calculate D2E/DX2 analytically  !
 ! A68   A(32,17,33)           105.0555         calculate D2E/DX2 analytically  !
 ! A69   A(32,17,34)           112.351          calculate D2E/DX2 analytically  !
 ! A70   A(33,17,34)           109.191          calculate D2E/DX2 analytically  !
 ! A71   A(8,26,38)            111.109          calculate D2E/DX2 analytically  !
 ! A72   A(8,26,39)            124.5583         calculate D2E/DX2 analytically  !
 ! A73   A(38,26,39)           124.3129         calculate D2E/DX2 analytically  !
 ! A74   A(26,38,40)           116.163          calculate D2E/DX2 analytically  !
 ! A75   A(38,40,41)           107.2257         calculate D2E/DX2 analytically  !
 ! A76   A(38,40,42)           107.7664         calculate D2E/DX2 analytically  !
 ! A77   A(38,40,43)           108.4753         calculate D2E/DX2 analytically  !
 ! A78   A(41,40,42)           112.2382         calculate D2E/DX2 analytically  !
 ! A79   A(41,40,43)           112.5723         calculate D2E/DX2 analytically  !
 ! A80   A(42,40,43)           108.3899         calculate D2E/DX2 analytically  !
 ! A81   A(40,41,44)           109.4187         calculate D2E/DX2 analytically  !
 ! A82   A(40,41,45)           111.0462         calculate D2E/DX2 analytically  !
 ! A83   A(40,41,46)           110.657          calculate D2E/DX2 analytically  !
 ! A84   A(44,41,45)           108.4657         calculate D2E/DX2 analytically  !
 ! A85   A(44,41,46)           108.5162         calculate D2E/DX2 analytically  !
 ! A86   A(45,41,46)           108.6717         calculate D2E/DX2 analytically  !
 ! D1    D(6,1,2,3)              1.4944         calculate D2E/DX2 analytically  !
 ! D2    D(6,1,2,7)            178.2514         calculate D2E/DX2 analytically  !
 ! D3    D(24,1,2,3)          -177.4991         calculate D2E/DX2 analytically  !
 ! D4    D(24,1,2,7)            -0.742          calculate D2E/DX2 analytically  !
 ! D5    D(2,1,6,5)             -0.4608         calculate D2E/DX2 analytically  !
 ! D6    D(2,1,6,23)           179.6062         calculate D2E/DX2 analytically  !
 ! D7    D(24,1,6,5)           178.5638         calculate D2E/DX2 analytically  !
 ! D8    D(24,1,6,23)           -1.3691         calculate D2E/DX2 analytically  !
 ! D9    D(1,2,3,4)             -1.5691         calculate D2E/DX2 analytically  !
 ! D10   D(1,2,3,20)           178.2921         calculate D2E/DX2 analytically  !
 ! D11   D(7,2,3,4)           -178.4679         calculate D2E/DX2 analytically  !
 ! D12   D(7,2,3,20)             1.3934         calculate D2E/DX2 analytically  !
 ! D13   D(1,2,7,8)            -83.1733         calculate D2E/DX2 analytically  !
 ! D14   D(1,2,7,11)            31.9745         calculate D2E/DX2 analytically  !
 ! D15   D(1,2,7,14)           155.1269         calculate D2E/DX2 analytically  !
 ! D16   D(3,2,7,8)             93.5775         calculate D2E/DX2 analytically  !
 ! D17   D(3,2,7,11)          -151.2748         calculate D2E/DX2 analytically  !
 ! D18   D(3,2,7,14)           -28.1223         calculate D2E/DX2 analytically  !
 ! D19   D(2,3,4,5)              0.6123         calculate D2E/DX2 analytically  !
 ! D20   D(2,3,4,21)          -178.8889         calculate D2E/DX2 analytically  !
 ! D21   D(20,3,4,5)          -179.2493         calculate D2E/DX2 analytically  !
 ! D22   D(20,3,4,21)            1.2496         calculate D2E/DX2 analytically  !
 ! D23   D(3,4,5,6)              0.4527         calculate D2E/DX2 analytically  !
 ! D24   D(3,4,5,22)          -179.5763         calculate D2E/DX2 analytically  !
 ! D25   D(21,4,5,6)           179.9486         calculate D2E/DX2 analytically  !
 ! D26   D(21,4,5,22)           -0.0804         calculate D2E/DX2 analytically  !
 ! D27   D(4,5,6,1)             -0.5274         calculate D2E/DX2 analytically  !
 ! D28   D(4,5,6,23)           179.4051         calculate D2E/DX2 analytically  !
 ! D29   D(22,5,6,1)           179.5015         calculate D2E/DX2 analytically  !
 ! D30   D(22,5,6,23)           -0.566          calculate D2E/DX2 analytically  !
 ! D31   D(2,7,8,9)            119.365          calculate D2E/DX2 analytically  !
 ! D32   D(2,7,8,25)          -119.9485         calculate D2E/DX2 analytically  !
 ! D33   D(2,7,8,26)            -2.9555         calculate D2E/DX2 analytically  !
 ! D34   D(11,7,8,9)             1.0322         calculate D2E/DX2 analytically  !
 ! D35   D(11,7,8,25)          121.7187         calculate D2E/DX2 analytically  !
 ! D36   D(11,7,8,26)         -121.2883         calculate D2E/DX2 analytically  !
 ! D37   D(14,7,8,9)          -117.6183         calculate D2E/DX2 analytically  !
 ! D38   D(14,7,8,25)            3.0682         calculate D2E/DX2 analytically  !
 ! D39   D(14,7,8,26)          120.0612         calculate D2E/DX2 analytically  !
 ! D40   D(2,7,11,10)         -101.5545         calculate D2E/DX2 analytically  !
 ! D41   D(2,7,11,12)          142.2179         calculate D2E/DX2 analytically  !
 ! D42   D(2,7,11,31)           18.1262         calculate D2E/DX2 analytically  !
 ! D43   D(8,7,11,10)           18.2371         calculate D2E/DX2 analytically  !
 ! D44   D(8,7,11,12)          -97.9905         calculate D2E/DX2 analytically  !
 ! D45   D(8,7,11,31)          137.9178         calculate D2E/DX2 analytically  !
 ! D46   D(14,7,11,10)         135.3001         calculate D2E/DX2 analytically  !
 ! D47   D(14,7,11,12)          19.0725         calculate D2E/DX2 analytically  !
 ! D48   D(14,7,11,31)        -105.0192         calculate D2E/DX2 analytically  !
 ! D49   D(2,7,14,15)          -51.38           calculate D2E/DX2 analytically  !
 ! D50   D(8,7,14,15)         -174.7886         calculate D2E/DX2 analytically  !
 ! D51   D(11,7,14,15)          70.9026         calculate D2E/DX2 analytically  !
 ! D52   D(7,8,9,10)           -20.5751         calculate D2E/DX2 analytically  !
 ! D53   D(7,8,9,27)           100.0884         calculate D2E/DX2 analytically  !
 ! D54   D(7,8,9,28)          -140.6717         calculate D2E/DX2 analytically  !
 ! D55   D(25,8,9,10)         -136.4228         calculate D2E/DX2 analytically  !
 ! D56   D(25,8,9,27)          -15.7594         calculate D2E/DX2 analytically  !
 ! D57   D(25,8,9,28)          103.4806         calculate D2E/DX2 analytically  !
 ! D58   D(26,8,9,10)          101.7716         calculate D2E/DX2 analytically  !
 ! D59   D(26,8,9,27)         -137.5649         calculate D2E/DX2 analytically  !
 ! D60   D(26,8,9,28)          -18.3249         calculate D2E/DX2 analytically  !
 ! D61   D(7,8,26,38)          -82.0004         calculate D2E/DX2 analytically  !
 ! D62   D(7,8,26,39)           96.4373         calculate D2E/DX2 analytically  !
 ! D63   D(9,8,26,38)          157.6301         calculate D2E/DX2 analytically  !
 ! D64   D(9,8,26,39)          -23.9321         calculate D2E/DX2 analytically  !
 ! D65   D(25,8,26,38)          33.1887         calculate D2E/DX2 analytically  !
 ! D66   D(25,8,26,39)        -148.3736         calculate D2E/DX2 analytically  !
 ! D67   D(8,9,10,11)           32.2151         calculate D2E/DX2 analytically  !
 ! D68   D(8,9,10,29)          157.0305         calculate D2E/DX2 analytically  !
 ! D69   D(8,9,10,30)          -82.6622         calculate D2E/DX2 analytically  !
 ! D70   D(27,9,10,11)         -88.0905         calculate D2E/DX2 analytically  !
 ! D71   D(27,9,10,29)          36.725          calculate D2E/DX2 analytically  !
 ! D72   D(27,9,10,30)         157.0322         calculate D2E/DX2 analytically  !
 ! D73   D(28,9,10,11)         153.1381         calculate D2E/DX2 analytically  !
 ! D74   D(28,9,10,29)         -82.0465         calculate D2E/DX2 analytically  !
 ! D75   D(28,9,10,30)          38.2608         calculate D2E/DX2 analytically  !
 ! D76   D(9,10,11,7)          -31.3673         calculate D2E/DX2 analytically  !
 ! D77   D(9,10,11,12)          92.4606         calculate D2E/DX2 analytically  !
 ! D78   D(9,10,11,31)        -150.2584         calculate D2E/DX2 analytically  !
 ! D79   D(29,10,11,7)        -155.8814         calculate D2E/DX2 analytically  !
 ! D80   D(29,10,11,12)        -32.0535         calculate D2E/DX2 analytically  !
 ! D81   D(29,10,11,31)         85.2274         calculate D2E/DX2 analytically  !
 ! D82   D(30,10,11,7)          86.4494         calculate D2E/DX2 analytically  !
 ! D83   D(30,10,11,12)       -149.7227         calculate D2E/DX2 analytically  !
 ! D84   D(30,10,11,31)        -32.4417         calculate D2E/DX2 analytically  !
 ! D85   D(7,11,12,13)          40.5819         calculate D2E/DX2 analytically  !
 ! D86   D(7,11,12,17)        -135.8            calculate D2E/DX2 analytically  !
 ! D87   D(10,11,12,13)        -75.7512         calculate D2E/DX2 analytically  !
 ! D88   D(10,11,12,17)        107.8668         calculate D2E/DX2 analytically  !
 ! D89   D(31,11,12,13)        165.3155         calculate D2E/DX2 analytically  !
 ! D90   D(31,11,12,17)        -11.0664         calculate D2E/DX2 analytically  !
 ! D91   D(11,12,13,35)        145.1637         calculate D2E/DX2 analytically  !
 ! D92   D(11,12,13,36)       -103.6266         calculate D2E/DX2 analytically  !
 ! D93   D(11,12,13,37)         10.8457         calculate D2E/DX2 analytically  !
 ! D94   D(17,12,13,35)        -38.4788         calculate D2E/DX2 analytically  !
 ! D95   D(17,12,13,36)         72.7309         calculate D2E/DX2 analytically  !
 ! D96   D(17,12,13,37)       -172.7967         calculate D2E/DX2 analytically  !
 ! D97   D(11,12,17,32)        -34.3849         calculate D2E/DX2 analytically  !
 ! D98   D(11,12,17,33)         78.0581         calculate D2E/DX2 analytically  !
 ! D99   D(11,12,17,34)       -163.7722         calculate D2E/DX2 analytically  !
 ! D100  D(13,12,17,32)        149.0135         calculate D2E/DX2 analytically  !
 ! D101  D(13,12,17,33)        -98.5434         calculate D2E/DX2 analytically  !
 ! D102  D(13,12,17,34)         19.6262         calculate D2E/DX2 analytically  !
 ! D103  D(7,14,15,16)        -127.3845         calculate D2E/DX2 analytically  !
 ! D104  D(7,14,15,18)         111.6422         calculate D2E/DX2 analytically  !
 ! D105  D(7,14,15,19)         -15.007          calculate D2E/DX2 analytically  !
 ! D106  D(8,26,38,40)         168.7434         calculate D2E/DX2 analytically  !
 ! D107  D(39,26,38,40)         -9.699          calculate D2E/DX2 analytically  !
 ! D108  D(26,38,40,41)       -173.3817         calculate D2E/DX2 analytically  !
 ! D109  D(26,38,40,42)        -52.3563         calculate D2E/DX2 analytically  !
 ! D110  D(26,38,40,43)         64.7949         calculate D2E/DX2 analytically  !
 ! D111  D(38,40,41,44)        179.9935         calculate D2E/DX2 analytically  !
 ! D112  D(38,40,41,45)        -60.3042         calculate D2E/DX2 analytically  !
 ! D113  D(38,40,41,46)         60.4708         calculate D2E/DX2 analytically  !
 ! D114  D(42,40,41,44)         61.8354         calculate D2E/DX2 analytically  !
 ! D115  D(42,40,41,45)       -178.4623         calculate D2E/DX2 analytically  !
 ! D116  D(42,40,41,46)        -57.6873         calculate D2E/DX2 analytically  !
 ! D117  D(43,40,41,44)        -60.7852         calculate D2E/DX2 analytically  !
 ! D118  D(43,40,41,45)         58.9171         calculate D2E/DX2 analytically  !
 ! D119  D(43,40,41,46)        179.692          calculate D2E/DX2 analytically  !
 --------------------------------------------------------------------------------
 Trust Radius=3.00D-02 FncErr=1.00D-07 GrdErr=1.00D-06 EigMax=2.50D+02 EigMin=1.00D-04
 Number of steps in this run=    262 maximum allowed number of steps=    276.
 GradGradGradGradGradGradGradGradGradGradGradGradGradGradGradGradGradGrad

 Leave Link  103 at Sun Jun 13 01:47:04 2021, MaxMem=  2147483648 cpu:               0.3 elap:               0.0
 (Enter /SFS/product/gaussian/g16.a03/x86_64/avx/g16/l202.exe)
                          Input orientation:                          
 ---------------------------------------------------------------------
 Center     Atomic      Atomic             Coordinates (Angstroms)
 Number     Number       Type             X           Y           Z
 ---------------------------------------------------------------------
      1          6           0       -1.708108    0.476266    2.020970
      2          6           0       -1.102805   -0.037346    0.867164
      3          6           0       -1.294284   -1.390557    0.560243
      4          6           0       -2.042057   -2.215358    1.400379
      5          6           0       -2.624901   -1.698537    2.560042
      6          6           0       -2.458749   -0.345598    2.863871
      7          6           0       -0.300321    0.832697   -0.112179
      8          6           0       -1.255170    1.584196   -1.158966
      9          6           0       -1.060224    3.097661   -0.974353
     10          6           0       -0.467920    3.286892    0.424693
     11          6           0        0.415942    2.010182    0.683587
     12          6           0        1.763989    2.379692    0.239322
     13          6           0        2.166228    2.465691   -1.144940
     14          8           0        0.624194    0.070058   -0.816894
     15         26           0        1.935499   -1.140033   -0.284365
     16         17           0        3.825454   -0.389070   -1.295299
     17          6           0        2.782243    2.600004    1.273513
     18         17           0        1.497624   -3.219002   -0.863154
     19         17           0        2.209568   -0.819706    1.917783
     20          1           0       -0.857741   -1.804438   -0.344023
     21          1           0       -2.160041   -3.269294    1.146854
     22          1           0       -3.204171   -2.343635    3.221669
     23          1           0       -2.914947    0.076308    3.759873
     24          1           0       -1.622131    1.529591    2.279926
     25          1           0       -0.935315    1.232523   -2.144646
     26          6           0       -2.705111    1.189267   -0.962971
     27          1           0       -0.389024    3.495765   -1.744138
     28          1           0       -2.009720    3.637685   -1.059313
     29          1           0        0.080462    4.232476    0.537346
     30          1           0       -1.256666    3.279018    1.185824
     31          1           0        0.454042    1.768897    1.748153
     32          1           0        2.361396    3.044533    2.184536
     33          1           0        3.070027    1.562717    1.563692
     34          1           0        3.669668    3.134274    0.921543
     35          1           0        2.893778    3.266369   -1.327351
     36          1           0        2.764043    1.507604   -1.271171
     37          1           0        1.367334    2.418068   -1.882287
     38          8           0       -2.975147    0.026070   -1.571843
     39          8           0       -3.511146    1.825971   -0.314159
     40          6           0       -4.253474   -0.584357   -1.249037
     41          6           0       -4.278241   -1.946984   -1.906825
     42          1           0       -4.327007   -0.649421   -0.155833
     43          1           0       -5.054615    0.073350   -1.611612
     44          1           0       -5.233891   -2.442706   -1.684718
     45          1           0       -4.176246   -1.860610   -2.997116
     46          1           0       -3.462637   -2.575655   -1.526225
 ---------------------------------------------------------------------
                    Distance matrix (angstroms):
                    1          2          3          4          5
     1  C    0.000000
     2  C    1.400520   0.000000
     3  C    2.406242   1.400730   0.000000
     4  C    2.782354   2.431100   1.394736   0.000000
     5  C    2.420925   2.818185   2.421691   1.397007   0.000000
     6  C    1.396211   2.433196   2.784712   2.410694   1.396554
     7  C    2.580549   1.536251   2.526454   3.822580   4.353342
     8  C    3.397743   2.599580   3.436039   4.648231   5.146214
     9  C    4.032794   3.636106   4.749091   5.901823   6.159844
    10  C    3.462049   3.413124   4.751819   5.805568   5.836676
    11  C    2.941612   2.555908   3.808558   4.940722   5.149991
    12  C    4.341976   3.801942   4.865265   6.078530   6.424955
    13  C    5.384355   4.582612   5.454671   6.789737   7.350007
    14  O    3.695688   2.414563   2.776772   4.153110   5.008817
    15  Fe   4.604657   3.431214   3.347779   4.451476   5.403686
    16  Cl   6.508975   5.393301   5.536942   6.710417   7.627938
    17  C    5.023167   4.713208   5.749035   6.817454   7.026366
    18  Cl   5.678899   4.458606   3.628226   4.319748   5.570036
    19  Cl   4.127757   3.561980   3.800758   4.504649   4.955495
    20  H    3.393807   2.156303   1.086077   2.148115   3.401127
    21  H    3.872666   3.411959   2.150186   1.090402   2.163440
    22  H    3.410531   3.908760   3.411629   2.164269   1.090622
    23  H    2.154115   3.415339   3.875032   3.403069   2.161896
    24  H    1.088092   2.172760   3.404711   3.869701   3.391876
    25  H    4.303660   3.272861   3.784948   5.067540   5.794817
    26  C    3.225878   2.724217   3.311511   4.197206   4.556036
    27  H    5.003338   4.450984   5.477756   6.725878   7.106749
    28  H    4.424216   4.247312   5.330856   6.348956   6.477148
    29  H    4.416926   4.443004   5.788692   6.842841   6.825482
    30  H    2.959170   3.335189   4.711443   5.554371   5.341966
    31  H    2.533815   2.542131   3.801306   4.714419   4.707670
    32  H    4.814936   4.820180   5.972633   6.904473   6.892088
    33  H    4.921387   4.523039   5.364322   6.358768   6.637823
    34  H    6.098706   5.730500   6.726474   7.840386   8.103230
    35  H    6.338240   5.630551   6.541394   7.864624   8.379614
    36  H    5.648184   4.681011   5.312573   6.640499   7.348350
    37  H    5.335200   4.437356   5.249361   6.623328   7.253872
    38  O    3.836192   3.075458   3.062339   3.837807   4.491037
    39  O    3.244299   3.266126   4.003137   4.629277   4.633424
    40  C    4.277471   3.834611   3.560935   3.817058   4.289840
    41  C    5.282547   4.628728   3.911526   4.001268   4.769503
    42  H    3.586680   3.437534   3.203039   3.177255   3.372504
    43  H    4.955512   4.666196   4.582583   4.835885   5.142547
    44  H    5.889284   5.418831   4.654822   4.444920   5.037718
    45  H    6.060848   5.263363   4.602332   4.900875   5.771910
    46  H    4.997518   4.211903   3.234124   3.273052   4.262478
                    6          7          8          9         10
     6  C    0.000000
     7  C    3.860578   0.000000
     8  C    4.621247   1.603824   0.000000
     9  C    5.342646   2.539854   1.537095   0.000000
    10  C    4.807075   2.517815   2.454977   1.531000   0.000000
    11  C    4.308966   1.591461   2.523704   2.471931   1.574238
    12  C    5.669831   2.603483   3.421015   3.156686   2.416359
    13  C    6.735304   3.133230   3.533156   3.292184   3.174406
    14  O    4.819267   1.390313   2.437547   3.468204   3.616942
    15  Fe   5.463692   2.986671   4.285641   5.235312   5.086929
    16  Cl   7.536033   4.462567   5.452074   6.010836   5.907972
    17  C    6.218827   3.813885   4.821776   4.479410   3.428683
    18  Cl   6.148175   4.495869   5.544014   6.815804   6.917266
    19  Cl   4.786757   3.626393   5.220109   5.865301   5.124686
    20  H    3.870662   2.705356   3.507837   4.946604   5.163771
    21  H    3.403729   4.676543   5.449033   6.800532   6.809432
    22  H    2.162366   5.443893   6.198098   7.197973   6.856601
    23  H    1.090386   4.732988   5.405882   5.914513   5.236336
    24  H    2.134773   2.820463   3.458847   3.655806   2.803961
    25  H    5.467775   2.166564   1.094325   2.205431   3.322709
    26  C    4.130524   2.575656   1.515491   2.519474   3.366105
    27  H    6.346147   3.124594   2.178699   1.096159   2.180294
    28  H    5.608881   3.418635   2.189999   1.095622   2.168519
    29  H    5.728793   3.482151   3.416837   2.207760   1.098882
    30  H    4.171173   2.929828   2.893175   2.176659   1.096131
    31  H    3.768324   2.215033   3.377404   3.386835   2.214920
    32  H    5.931971   4.153535   5.137231   4.657133   3.340780
    33  H    5.991619   3.834152   5.110837   5.084948   4.097215
    34  H    7.310242   4.703897   5.566443   5.095845   4.170106
    35  H    7.698194   4.195435   4.480159   3.973311   3.790922
    36  H    6.914513   3.345010   4.021508   4.152277   4.060469
    37  H    6.693488   2.903060   2.845358   2.679408   3.073299
    38  O    4.481112   3.152136   2.357232   3.668596   4.572232
    39  O    3.990379   3.367014   2.421070   2.839026   3.455636
    40  C    4.493780   4.350621   3.701427   4.881552   5.667306
    41  C    5.351124   5.174092   4.708236   6.055872   6.880987
    42  H    3.563890   4.291011   3.928295   5.038102   5.542935
    43  H    5.190760   5.042640   4.113797   5.050516   5.959124
    44  H    5.726162   6.127092   5.685295   6.972789   7.745475
    45  H    6.292553   5.531687   4.876286   6.195613   7.208137
    46  H    5.025325   4.859695   4.723574   6.185682   6.866139
                   11         12         13         14         15
    11  C    0.000000
    12  C    1.466676   0.000000
    13  C    2.571867   1.444082   0.000000
    14  O    2.461482   2.783727   2.867846   0.000000
    15  Fe   3.629027   3.562601   3.714172   1.862103   0.000000
    16  Cl   4.614886   3.777664   3.305344   3.269210   2.271093
    17  C    2.509040   1.467968   2.499286   3.927799   4.139062
    18  Cl   5.559389   5.712423   5.730809   3.403371   2.202009
    19  Cl   3.570518   3.640319   4.491768   3.283831   2.242137
    20  H    4.150852   4.971992   5.293379   2.435872   2.871791
    21  H    5.892637   6.937771   7.540489   4.770696   4.832762
    22  H    6.205063   7.475749   8.428409   6.065664   6.336966
    23  H    4.929323   6.292241   7.455513   5.785530   6.431343
    24  H    2.633060   4.043828   5.192076   4.094693   5.134122
    25  H    3.229482   3.779622   3.484205   2.355062   4.163081
    26  C    3.622986   4.778648   5.039079   3.515429   5.236545
    27  H    2.957833   3.132922   2.819469   3.690780   5.387482
    28  H    3.401515   4.184481   4.338138   4.441197   6.244348
    29  H    2.252226   2.521089   3.209678   4.410820   5.742841
    30  H    2.158658   3.290746   4.220209   4.224445   5.646183
    31  H    1.092232   2.089402   3.433233   3.081310   3.845480
    32  H    2.665993   2.140740   3.385049   4.568802   4.877238
    33  H    2.831780   2.031536   2.994813   3.725227   3.465159
    34  H    3.450643   2.160193   2.641531   4.656876   4.767731
    35  H    3.429511   2.125343   1.097127   3.953224   4.628444
    36  H    3.096327   2.010531   1.136331   2.617606   2.944529
    37  H    2.766808   2.158711   1.088200   2.683369   3.941605
    38  O    4.530248   5.592787   5.706815   3.677926   5.208823
    39  O    4.056039   5.332916   5.773388   4.520731   6.201936
    40  C    5.680679   6.871001   7.108179   4.940309   6.288303
    41  C    6.663689   7.735284   7.847506   5.412049   6.472566
    42  H    5.502152   6.814096   7.269412   5.046686   6.283009
    43  H    6.240693   7.432263   7.621132   5.734149   7.217727
    44  H    7.573486   8.713655   8.896375   6.433060   7.420114
    45  H    7.044061   7.983801   7.897747   5.614719   6.725450
    46  H    6.399730   7.415540   7.566021   4.919871   5.722159
                   16         17         18         19         20
    16  Cl   0.000000
    17  C    4.076965   0.000000
    18  Cl   3.689723   6.330594   0.000000
    19  Cl   3.622214   3.526678   3.741269   0.000000
    20  H    4.984025   5.938435   2.796110   3.936223   0.000000
    21  H    7.077143   7.674039   4.173868   5.068362   2.462621
    22  H    8.581314   8.004501   6.289588   5.773305   4.302398
    23  H    8.438267   6.708875   7.190426   5.518767   4.960974
    24  H    6.792619   4.642969   6.493147   4.509131   4.311050
    25  H    5.100576   5.232022   5.232350   5.532202   3.531486
    26  C    6.726802   6.091231   6.091451   6.040595   3.571854
    27  H    5.749367   4.468282   7.030197   6.227811   5.502015
    28  H    7.093638   5.429712   7.704161   6.821571   5.608511
    29  H    6.224326   3.241377   7.713253   5.653604   6.172630
    30  H    6.740830   4.096527   7.349060   5.417571   5.323636
    31  H    5.028503   2.517249   5.726004   3.132333   4.343581
    32  H    5.103170   1.097580   7.019002   3.876410   6.345784
    33  H    3.543158   1.114894   5.588101   2.557677   5.514025
    34  H    4.165646   1.094007   6.947448   4.331090   6.818355
    35  H    3.772437   2.687187   6.650170   5.262608   6.383879
    36  H    2.173602   2.769311   4.910305   3.986633   4.994652
    37  H    3.777159   3.463256   5.729936   5.062911   5.014656
    38  O    6.818870   6.918723   5.571213   6.306671   3.056421
    39  O    7.726237   6.536557   7.130282   6.686385   4.496812
    40  C    8.081420   8.124329   6.337617   7.201045   3.720034
    41  C    8.274716   8.979982   6.005655   7.615120   3.763308
    42  H    8.235823   7.946271   6.405418   6.859715   3.661323
    43  H    8.897725   8.724922   7.370998   8.125425   4.769342
    44  H    9.297354   9.921616   6.825752   8.427172   4.621205
    45  H    8.311968   9.303543   6.212232   8.125167   4.249063
    46  H    7.612539   8.580472   5.045567   6.864289   2.962745
                   21         22         23         24         25
    21  H    0.000000
    22  H    2.500382   0.000000
    23  H    4.311705   2.495884   0.000000
    24  H    4.960090   4.288544   2.444105   0.000000
    25  H    5.709666   6.836223   6.333966   4.487405   0.000000
    26  C    4.962583   5.499243   4.856744   3.435847   2.128475
    27  H    7.567058   8.165959   6.954647   4.645372   2.362436
    28  H    7.252319   7.451826   6.060313   3.967972   2.849052
    29  H    7.852892   7.825576   6.052346   3.638818   4.150253
    30  H    6.610446   6.289012   4.430911   2.095500   3.922173
    31  H    5.707746   5.697955   4.273402   2.156512   4.167960
    32  H    7.834832   7.815596   6.255545   4.262937   5.735286
    33  H    7.132720   7.574565   6.546185   4.746624   5.468415
    34  H    8.662676   9.085578   7.795154   5.694150   5.850132
    35  H    8.624249   9.452550   8.354497   6.035087   4.412080
    36  H    7.274077   8.404596   7.720812   5.643518   3.811021
    37  H    7.346030   8.344030   7.460277   5.200991   2.603179
    38  O    4.349153   5.352169   5.332293   4.350558   2.438144
    39  O    5.470079   5.475576   4.473758   3.222654   3.215240
    40  C    4.163129   4.917653   5.226597   4.883270   3.887589
    41  C    3.944646   5.254751   6.169582   6.055607   4.619630
    42  H    3.640944   3.941908   4.225322   4.242331   4.358975
    43  H    5.211618   5.711967   5.781958   5.389495   4.312359
    44  H    4.260235   5.310575   6.431680   6.674006   5.674205
    45  H    4.818917   6.312807   7.141388   6.772307   4.560462
    46  H    3.053399   4.760581   5.939335   5.892987   4.612160
                   26         27         28         29         30
    26  C    0.000000
    27  H    3.360716   0.000000
    28  H    2.547077   1.765158   0.000000
    29  H    4.389930   2.443016   2.696657   0.000000
    30  H    3.329020   3.063406   2.395073   1.765649   0.000000
    31  H    4.203143   3.986092   4.176644   2.770350   2.350149
    32  H    6.246463   4.816939   5.475495   3.054031   3.760689
    33  H    6.314722   5.161729   6.081897   4.137451   4.669983
    34  H    6.926200   4.869241   6.035947   3.773070   4.935541
    35  H    5.982866   3.317096   4.924836   3.510727   4.852050
    36  H    5.487073   3.757434   5.231725   4.230516   5.033968
    37  H    4.352000   2.065263   3.683646   3.286752   4.127943
    38  O    1.340400   4.330878   3.773394   5.610640   4.597779
    39  O    1.214924   3.818468   2.468166   4.406356   3.073105
    40  C    2.371709   5.641498   4.784983   6.721313   5.462149
    41  C    3.633410   6.691487   6.087117   7.947200   6.782735
    42  H    2.581238   5.934053   4.956347   6.613562   5.163300
    43  H    2.680704   5.787765   4.720265   6.948767   5.703190
    44  H    4.484069   7.664314   6.910685   8.816914   7.536342
    45  H    3.950156   6.678604   6.219338   8.230290   7.241320
    46  H    3.881461   6.808577   6.398013   7.947485   6.818997
                   31         32         33         34         35
    31  H    0.000000
    32  H    2.335739   0.000000
    33  H    2.630573   1.755957   0.000000
    34  H    3.589957   1.820654   1.800477   0.000000
    35  H    4.201602   3.558931   3.360301   2.382641   0.000000
    36  H    3.810603   3.803444   2.851861   2.876492   1.764438
    37  H    3.799424   4.233163   3.937710   3.697993   1.832375
    38  O    5.081255   7.190285   6.981188   7.747998   6.708472
    39  O    4.469799   6.497316   6.848902   7.402885   6.642617
    40  C    6.056539   8.289437   8.133575   9.017528   8.118955
    41  C    7.039967   9.259549   8.852092   9.848254   8.885533
    42  H    5.686111   7.991080   7.909895   8.912009   8.297325
    43  H    6.671447   8.845105   8.849326   9.586409   8.570480
    44  H    7.866053  10.137520   9.775001  10.824448   9.938825
    45  H    7.558470   9.677330   9.221096  10.092726   8.891528
    46  H    6.703511   8.903686   8.327629   9.458575   8.635555
                   36         37         38         39         40
    36  H    0.000000
    37  H    1.775726   0.000000
    38  O    5.934951   4.967411   0.000000
    39  O    6.355724   5.158408   2.260245   0.000000
    40  C    7.322727   6.403830   1.452909   2.689745   0.000000
    41  C    7.869689   7.136301   2.388139   4.166558   1.513291
    42  H    7.495314   6.694449   2.070965   2.611180   1.097604
    43  H    7.956406   6.841959   2.080386   2.671584   1.098119
    44  H    8.929889   8.200142   3.348062   4.802904   2.145809
    45  H    7.905148   7.090924   2.652094   4.607765   2.165771
    46  H    7.450477   6.956484   2.647395   4.565717   2.160445
                   41         42         43         44         45
    41  C    0.000000
    42  H    2.179913   0.000000
    43  H    2.184412   1.780759   0.000000
    44  H    1.099245   2.525034   2.523494   0.000000
    45  H    1.098453   3.092345   2.536012   1.783210   0.000000
    46  H    1.097859   2.517039   3.091749   1.783294   1.784390
                   46
    46  H    0.000000
 Stoichiometry    C17H22Cl3FeO3(6)
 Framework group  C1[X(C17H22Cl3FeO3)]
 Deg. of freedom   132
 Full point group                 C1      NOp   1
 Largest Abelian subgroup         C1      NOp   1
 Largest concise Abelian subgroup C1      NOp   1
                         Standard orientation:                         
 ---------------------------------------------------------------------
 Center     Atomic      Atomic             Coordinates (Angstroms)
 Number     Number       Type             X           Y           Z
 ---------------------------------------------------------------------
      1          6           0       -1.708108    0.476266    2.020970
      2          6           0       -1.102805   -0.037346    0.867164
      3          6           0       -1.294284   -1.390557    0.560243
      4          6           0       -2.042057   -2.215358    1.400379
      5          6           0       -2.624901   -1.698537    2.560042
      6          6           0       -2.458749   -0.345598    2.863871
      7          6           0       -0.300321    0.832697   -0.112179
      8          6           0       -1.255170    1.584196   -1.158966
      9          6           0       -1.060224    3.097661   -0.974353
     10          6           0       -0.467920    3.286892    0.424693
     11          6           0        0.415942    2.010182    0.683587
     12          6           0        1.763989    2.379692    0.239322
     13          6           0        2.166228    2.465691   -1.144940
     14          8           0        0.624194    0.070058   -0.816894
     15         26           0        1.935499   -1.140033   -0.284365
     16         17           0        3.825454   -0.389070   -1.295299
     17          6           0        2.782243    2.600004    1.273513
     18         17           0        1.497624   -3.219002   -0.863154
     19         17           0        2.209568   -0.819706    1.917783
     20          1           0       -0.857741   -1.804438   -0.344023
     21          1           0       -2.160041   -3.269294    1.146854
     22          1           0       -3.204171   -2.343635    3.221669
     23          1           0       -2.914947    0.076308    3.759873
     24          1           0       -1.622131    1.529591    2.279926
     25          1           0       -0.935315    1.232523   -2.144646
     26          6           0       -2.705111    1.189267   -0.962971
     27          1           0       -0.389024    3.495765   -1.744138
     28          1           0       -2.009720    3.637685   -1.059313
     29          1           0        0.080462    4.232476    0.537346
     30          1           0       -1.256666    3.279018    1.185824
     31          1           0        0.454042    1.768897    1.748153
     32          1           0        2.361396    3.044533    2.184536
     33          1           0        3.070027    1.562717    1.563692
     34          1           0        3.669668    3.134274    0.921543
     35          1           0        2.893778    3.266369   -1.327351
     36          1           0        2.764043    1.507604   -1.271171
     37          1           0        1.367334    2.418068   -1.882287
     38          8           0       -2.975147    0.026070   -1.571843
     39          8           0       -3.511146    1.825971   -0.314159
     40          6           0       -4.253474   -0.584357   -1.249037
     41          6           0       -4.278241   -1.946984   -1.906825
     42          1           0       -4.327007   -0.649421   -0.155833
     43          1           0       -5.054615    0.073350   -1.611612
     44          1           0       -5.233891   -2.442706   -1.684718
     45          1           0       -4.176246   -1.860610   -2.997116
     46          1           0       -3.462637   -2.575655   -1.526225
 ---------------------------------------------------------------------
 Rotational constants (GHZ):           0.2359291           0.1540922           0.1291014
 Leave Link  202 at Sun Jun 13 01:47:04 2021, MaxMem=  2147483648 cpu:               0.2 elap:               0.0
 (Enter /SFS/product/gaussian/g16.a03/x86_64/avx/g16/l301.exe)
 Standard basis: Jul-CC-pVDZ (5D, 7F)
 Ernie: Thresh=  0.10000D-02 Tol=  0.10000D-05 Strict=F.
 Ernie:  134 primitive shells out of 958 were deleted.
 There are   766 symmetry adapted cartesian basis functions of A   symmetry.
 There are   710 symmetry adapted basis functions of A   symmetry.
   710 basis functions,  1571 primitive gaussians,   766 cartesian basis functions
   115 alpha electrons      110 beta electrons
       nuclear repulsion energy      3371.5247251693 Hartrees.
 IExCor=  402 DFT=T Ex+Corr=B3LYP ExCW=0 ScaHFX=  0.200000
 ScaDFX=  0.800000  0.720000  1.000000  0.810000 ScalE2=  1.000000  1.000000
 IRadAn=      5 IRanWt=     -1 IRanGd=            0 ICorTp=0 IEmpDi=141
 NAtoms=   46 NActive=   46 NUniq=   46 SFac= 1.00D+00 NAtFMM=   60 NAOKFM=F Big=F
 Integral buffers will be    131072 words long.
 Raffenetti 2 integral format.
 Two-electron integral symmetry is turned on.
 R6Disp:  Grimme-D3(BJ) Dispersion energy=       -0.1256364700 Hartrees.
 Nuclear repulsion after empirical dispersion term =     3371.3990886993 Hartrees.
 Leave Link  301 at Sun Jun 13 01:47:04 2021, MaxMem=  2147483648 cpu:               1.0 elap:               0.1
 (Enter /SFS/product/gaussian/g16.a03/x86_64/avx/g16/l302.exe)
 NPDir=0 NMtPBC=     1 NCelOv=     1 NCel=       1 NClECP=     1 NCelD=      1
         NCelK=      1 NCelE2=     1 NClLst=     1 CellRange=     0.0.
 One-electron integrals computed using PRISM.
 One-electron integral symmetry used in STVInt
 NBasis=   710 RedAO= T EigKep=  1.28D-06  NBF=   710
 NBsUse=   710 1.00D-06 EigRej= -1.00D+00 NBFU=   710
 Precomputing XC quadrature grid using
 IXCGrd= 4 IRadAn=           5 IRanWt=          -1 IRanGd=           0 AccXCQ= 0.00D+00.
 Generated NRdTot=       0 NPtTot=           0 NUsed=           0 NTot=          32
 NSgBfM=   764   764   764   764   764 MxSgAt=    46 MxSgA2=    46.
 Leave Link  302 at Sun Jun 13 01:47:05 2021, MaxMem=  2147483648 cpu:              19.3 elap:               1.2
 (Enter /SFS/product/gaussian/g16.a03/x86_64/avx/g16/l303.exe)
 DipDrv:  MaxL=1.
 Leave Link  303 at Sun Jun 13 01:47:06 2021, MaxMem=  2147483648 cpu:               3.9 elap:               0.3
 (Enter /SFS/product/gaussian/g16.a03/x86_64/avx/g16/l401.exe)
 ExpMin= 1.40D-02 ExpMax= 4.32D+06 ExpMxC= 4.91D+03 IAcc=3 IRadAn=         5 AccDes= 0.00D+00
 Harris functional with IExCor=  402 and IRadAn=       5 diagonalized for initial guess.
 HarFok:  IExCor=  402 AccDes= 0.00D+00 IRadAn=         5 IDoV= 1 UseB2=F ITyADJ=14
 ICtDFT=  3500011 ScaDFX=  1.000000  1.000000  1.000000  1.000000
 FoFCou: FMM=F IPFlag=           0 FMFlag=      100000 FMFlg1=           0
         NFxFlg=           0 DoJE=T BraDBF=F KetDBF=T FulRan=T
         wScrn=  0.000000 ICntrl=       500 IOpCl=  0 I1Cent=   200000004 NGrid=           0
         NMat0=    1 NMatS0=      1 NMatT0=    0 NMatD0=    1 NMtDS0=    0 NMtDT0=    0
 Petite list used in FoFCou.
 Harris En= -3531.19873099230    
 JPrj=0 DoOrth=F DoCkMO=F.
 Initial guess <Sx>= 0.0000 <Sy>= 0.0000 <Sz>= 2.5000 <S**2>= 8.7500 S= 2.5000
 Leave Link  401 at Sun Jun 13 01:47:13 2021, MaxMem=  2147483648 cpu:             119.6 elap:               7.5
 (Enter /SFS/product/gaussian/g16.a03/x86_64/avx/g16/l502.exe)
 Integral symmetry usage will be decided dynamically.
 UHF open shell SCF:
 Using DIIS extrapolation, IDIIS=  1040.
 NGot=  2147483648 LenX=  2146290678 LenY=  2145703156
 Requested convergence on RMS density matrix=1.00D-08 within 128 cycles.
 Requested convergence on MAX density matrix=1.00D-06.
 Requested convergence on             energy=1.00D-06.
 No special actions if energy rises.
 Fock matrices will be formed incrementally for  20 cycles.

 Cycle   1  Pass 1  IDiag  1:
 FoFJK:  IHMeth= 1 ICntrl=       0 DoSepK=F KAlg= 0 I1Cent=           0 FoldK=F
 IRaf= 930000000 NMat=       1 IRICut=       1 DoRegI=T DoRafI=F ISym2E= 0 IDoP0=0 IntGTp=1.
 FoFCou: FMM=F IPFlag=           0 FMFlag=      100000 FMFlg1=           0
         NFxFlg=           0 DoJE=F BraDBF=F KetDBF=F FulRan=T
         wScrn=  0.000000 ICntrl=         0 IOpCl=  1 I1Cent=           0 NGrid=           0
         NMat0=    1 NMatS0=      1 NMatT0=    0 NMatD0=    1 NMtDS0=    0 NMtDT0=    0
 Symmetry not used in FoFCou.
 E= -3530.42393654400    
 DIIS: error= 1.90D-02 at cycle   1 NSaved=   1.
 NSaved= 1 IEnMin= 1 EnMin= -3530.42393654400     IErMin= 1 ErrMin= 1.90D-02
 ErrMax= 1.90D-02  0.00D+00 EMaxC= 1.00D-01 BMatC= 4.90D+00 BMatP= 4.90D+00
 IDIUse=3 WtCom= 8.10D-01 WtEn= 1.90D-01
 Coeff-Com:  0.100D+01
 Coeff-En:   0.100D+01
 Coeff:      0.100D+01
 Gap=     0.027 Goal=   None    Shift=    0.000
 Gap=    -0.102 Goal=   None    Shift=    0.000
 GapD=   -0.102 DampG=0.250 DampE=0.250 DampFc=0.1250 IDamp=-1.
 Damping current iteration by 1.25D-01
 RMSDP=2.86D-02 MaxDP=6.11D+00              OVMax= 8.24D-01

 Cycle   2  Pass 1  IDiag  1:
 RMSU=  2.44D-03    CP:  9.61D-01
 E= -3530.77397225505     Delta-E=       -0.350035711049 Rises=F Damp=T
 DIIS: error= 8.18D-03 at cycle   2 NSaved=   2.
 NSaved= 2 IEnMin= 2 EnMin= -3530.77397225505     IErMin= 2 ErrMin= 8.18D-03
 ErrMax= 8.18D-03  0.00D+00 EMaxC= 1.00D-01 BMatC= 1.26D+00 BMatP= 4.90D+00
 IDIUse=3 WtCom= 9.18D-01 WtEn= 8.18D-02
 Coeff-Com: -0.451D+00 0.145D+01
 Coeff-En:   0.000D+00 0.100D+01
 Coeff:     -0.414D+00 0.141D+01
 Gap=     0.318 Goal=   None    Shift=    0.000
 Gap=     0.055 Goal=   None    Shift=    0.000
 RMSDP=2.37D-02 MaxDP=6.63D+00 DE=-3.50D-01 OVMax= 9.64D-01

 Cycle   3  Pass 1  IDiag  1:
 RMSU=  8.35D-03    CP:  6.32D-01  2.74D+00
 E= -3530.35247060098     Delta-E=        0.421501654072 Rises=F Damp=F
 DIIS: error= 2.72D-02 at cycle   3 NSaved=   3.
 NSaved= 3 IEnMin= 2 EnMin= -3530.77397225505     IErMin= 2 ErrMin= 8.18D-03
 ErrMax= 2.72D-02  0.00D+00 EMaxC= 1.00D-01 BMatC= 5.13D+00 BMatP= 1.26D+00
 IDIUse=2 WtCom= 0.00D+00 WtEn= 1.00D+00
 Coeff-En:   0.000D+00 0.691D+00 0.309D+00
 Coeff:      0.000D+00 0.691D+00 0.309D+00
 Gap=    -0.214 Goal=   None    Shift=    0.000
 Gap=     0.290 Goal=   None    Shift=    0.000
 RMSDP=8.31D-03 MaxDP=7.19D-01 DE= 4.22D-01 OVMax= 7.41D-01

 Cycle   4  Pass 1  IDiag  1:
 RMSU=  5.79D-03    CP:  6.50D-01  3.00D+00  3.49D-01
 E= -3521.43938950008     Delta-E=        8.913081100901 Rises=F Damp=F
 DIIS: error= 8.64D-02 at cycle   4 NSaved=   4.
 NSaved= 4 IEnMin= 2 EnMin= -3530.77397225505     IErMin= 2 ErrMin= 8.18D-03
 ErrMax= 8.64D-02  0.00D+00 EMaxC= 1.00D-01 BMatC= 4.99D+01 BMatP= 1.26D+00
 IDIUse=2 WtCom= 0.00D+00 WtEn= 1.00D+00
 EnCoef did   100 forward-backward iterations
 Coeff-En:   0.312D+00 0.346D-01 0.479D+00 0.174D+00
 Coeff:      0.312D+00 0.346D-01 0.479D+00 0.174D+00
 Gap=     0.153 Goal=   None    Shift=    0.000
 Gap=     0.008 Goal=   None    Shift=    0.000
 RMSDP=5.86D-03 MaxDP=6.03D-01 DE= 8.91D+00 OVMax= 9.55D-01

 Cycle   5  Pass 1  IDiag  1:
 RMSU=  3.98D-03    CP:  6.73D-01  2.70D+00  5.65D-01  5.26D-01
 E= -3530.18529567520     Delta-E=       -8.745906175121 Rises=F Damp=F
 DIIS: error= 6.01D-02 at cycle   5 NSaved=   5.
 NSaved= 5 IEnMin= 2 EnMin= -3530.77397225505     IErMin= 2 ErrMin= 8.18D-03
 ErrMax= 6.01D-02  0.00D+00 EMaxC= 1.00D-01 BMatC= 8.88D+00 BMatP= 1.26D+00
 IDIUse=2 WtCom= 0.00D+00 WtEn= 1.00D+00
 EnCoef did     3 forward-backward iterations
 Coeff-En:   0.426D-02 0.000D+00 0.518D+00 0.000D+00 0.477D+00
 Coeff:      0.426D-02 0.000D+00 0.518D+00 0.000D+00 0.477D+00
 Gap=     0.087 Goal=   None    Shift=    0.000
 Gap=     0.135 Goal=   None    Shift=    0.000
 RMSDP=4.52D-03 MaxDP=4.90D-01 DE=-8.75D+00 OVMax= 3.73D-01

 Cycle   6  Pass 1  IDiag  1:
 RMSU=  3.65D-03    CP:  6.70D-01  2.13D+00  5.08D-01  3.29D-01  5.23D-01
 E= -3531.37242960227     Delta-E=       -1.187133927065 Rises=F Damp=F
 DIIS: error= 6.37D-03 at cycle   6 NSaved=   6.
 NSaved= 6 IEnMin= 6 EnMin= -3531.37242960227     IErMin= 6 ErrMin= 6.37D-03
 ErrMax= 6.37D-03  0.00D+00 EMaxC= 1.00D-01 BMatC= 6.52D-01 BMatP= 1.26D+00
 IDIUse=3 WtCom= 9.36D-01 WtEn= 6.37D-02
 Coeff-Com: -0.434D+00 0.777D+00 0.270D+00-0.247D-02 0.761D-01 0.314D+00
 Coeff-En:   0.000D+00 0.000D+00 0.000D+00 0.000D+00 0.112D+00 0.888D+00
 Coeff:     -0.406D+00 0.727D+00 0.253D+00-0.231D-02 0.784D-01 0.350D+00
 Gap=     0.118 Goal=   None    Shift=    0.000
 Gap=     0.168 Goal=   None    Shift=    0.000
 RMSDP=3.51D-03 MaxDP=4.25D-01 DE=-1.19D+00 OVMax= 1.66D-01

 Cycle   7  Pass 1  IDiag  1:
 RMSU=  1.59D-03    CP:  6.63D-01  2.37D+00  6.34D-01  4.17D-01  7.31D-01
                    CP:  2.67D-01
 E= -3531.42210834322     Delta-E=       -0.049678740955 Rises=F Damp=F
 DIIS: error= 9.56D-03 at cycle   7 NSaved=   7.
 NSaved= 7 IEnMin= 7 EnMin= -3531.42210834322     IErMin= 6 ErrMin= 6.37D-03
 ErrMax= 9.56D-03  0.00D+00 EMaxC= 1.00D-01 BMatC= 4.42D-01 BMatP= 6.52D-01
 IDIUse=3 WtCom= 9.36D-01 WtEn= 6.37D-02
 Coeff-Com: -0.199D+00 0.291D+00 0.906D-01 0.735D-02-0.865D-01 0.317D+00
 Coeff-Com:  0.580D+00
 Coeff-En:   0.000D+00 0.000D+00 0.000D+00 0.000D+00 0.000D+00 0.412D+00
 Coeff-En:   0.588D+00
 Coeff:     -0.187D+00 0.272D+00 0.849D-01 0.688D-02-0.810D-01 0.323D+00
 Coeff:      0.581D+00
 Gap=     0.077 Goal=   None    Shift=    0.000
 Gap=     0.157 Goal=   None    Shift=    0.000
 RMSDP=1.49D-03 MaxDP=1.42D-01 DE=-4.97D-02 OVMax= 1.12D-01

 Cycle   8  Pass 1  IDiag  1:
 RMSU=  9.34D-04    CP:  6.62D-01  2.28D+00  6.14D-01  3.74D-01  6.24D-01
                    CP:  5.42D-01  9.06D-01
 E= -3531.51495346343     Delta-E=       -0.092845120205 Rises=F Damp=F
 DIIS: error= 1.53D-03 at cycle   8 NSaved=   8.
 NSaved= 8 IEnMin= 8 EnMin= -3531.51495346343     IErMin= 8 ErrMin= 1.53D-03
 ErrMax= 1.53D-03  0.00D+00 EMaxC= 1.00D-01 BMatC= 3.66D-02 BMatP= 4.42D-01
 IDIUse=3 WtCom= 9.85D-01 WtEn= 1.53D-02
 Coeff-Com: -0.107D+00 0.147D+00 0.320D-01 0.721D-02-0.559D-01 0.169D+00
 Coeff-Com:  0.355D+00 0.453D+00
 Coeff-En:   0.000D+00 0.000D+00 0.000D+00 0.000D+00 0.000D+00 0.000D+00
 Coeff-En:   0.000D+00 0.100D+01
 Coeff:     -0.105D+00 0.144D+00 0.315D-01 0.710D-02-0.551D-01 0.166D+00
 Coeff:      0.350D+00 0.461D+00
 Gap=     0.093 Goal=   None    Shift=    0.000
 Gap=     0.111 Goal=   None    Shift=    0.000
 RMSDP=5.27D-04 MaxDP=8.45D-02 DE=-9.28D-02 OVMax= 2.20D-02

 Cycle   9  Pass 1  IDiag  1:
 RMSU=  4.20D-04    CP:  6.60D-01  2.26D+00  6.03D-01  3.74D-01  6.02D-01
                    CP:  5.92D-01  9.44D-01  9.14D-01
 E= -3531.52106695563     Delta-E=       -0.006113492203 Rises=F Damp=F
 DIIS: error= 1.19D-03 at cycle   9 NSaved=   9.
 NSaved= 9 IEnMin= 9 EnMin= -3531.52106695563     IErMin= 9 ErrMin= 1.19D-03
 ErrMax= 1.19D-03  0.00D+00 EMaxC= 1.00D-01 BMatC= 1.24D-02 BMatP= 3.66D-02
 IDIUse=3 WtCom= 9.88D-01 WtEn= 1.19D-02
 Coeff-Com: -0.316D-01 0.403D-01-0.901D-02 0.305D-02 0.550D-02-0.814D-02
 Coeff-Com:  0.596D-02 0.231D+00 0.763D+00
 Coeff-En:   0.000D+00 0.000D+00 0.000D+00 0.000D+00 0.000D+00 0.000D+00
 Coeff-En:   0.000D+00 0.000D+00 0.100D+01
 Coeff:     -0.312D-01 0.398D-01-0.890D-02 0.302D-02 0.544D-02-0.805D-02
 Coeff:      0.589D-02 0.228D+00 0.766D+00
 Gap=     0.106 Goal=   None    Shift=    0.000
 Gap=     0.106 Goal=   None    Shift=    0.000
 RMSDP=3.14D-04 MaxDP=7.99D-02 DE=-6.11D-03 OVMax= 1.47D-02

 Cycle  10  Pass 1  IDiag  1:
 RMSU=  2.97D-04    CP:  6.60D-01  2.26D+00  5.98D-01  3.79D-01  6.07D-01
                    CP:  5.94D-01  9.54D-01  9.67D-01  1.11D+00
 E= -3531.52286281896     Delta-E=       -0.001795863328 Rises=F Damp=F
 DIIS: error= 7.43D-04 at cycle  10 NSaved=  10.
 NSaved=10 IEnMin=10 EnMin= -3531.52286281896     IErMin=10 ErrMin= 7.43D-04
 ErrMax= 7.43D-04  0.00D+00 EMaxC= 1.00D-01 BMatC= 4.58D-03 BMatP= 1.24D-02
 IDIUse=3 WtCom= 9.93D-01 WtEn= 7.43D-03
 Coeff-Com:  0.314D-02-0.628D-02-0.164D-01 0.926D-03 0.197D-01-0.480D-01
 Coeff-Com: -0.698D-01-0.212D-02 0.472D+00 0.647D+00
 Coeff-En:   0.000D+00 0.000D+00 0.000D+00 0.000D+00 0.000D+00 0.000D+00
 Coeff-En:   0.000D+00 0.000D+00 0.000D+00 0.100D+01
 Coeff:      0.312D-02-0.624D-02-0.163D-01 0.919D-03 0.196D-01-0.476D-01
 Coeff:     -0.692D-01-0.211D-02 0.468D+00 0.650D+00
 Gap=     0.104 Goal=   None    Shift=    0.000
 Gap=     0.103 Goal=   None    Shift=    0.000
 RMSDP=1.99D-04 MaxDP=2.17D-02 DE=-1.80D-03 OVMax= 9.46D-03

 Cycle  11  Pass 1  IDiag  1:
 RMSU=  1.49D-04    CP:  6.61D-01  2.28D+00  5.93D-01  3.81D-01  6.06D-01
                    CP:  6.00D-01  9.57D-01  1.07D+00  1.26D+00  9.49D-01
 E= -3531.52346129217     Delta-E=       -0.000598473213 Rises=F Damp=F
 DIIS: error= 3.06D-04 at cycle  11 NSaved=  11.
 NSaved=11 IEnMin=11 EnMin= -3531.52346129217     IErMin=11 ErrMin= 3.06D-04
 ErrMax= 3.06D-04  0.00D+00 EMaxC= 1.00D-01 BMatC= 1.07D-03 BMatP= 4.58D-03
 IDIUse=3 WtCom= 9.97D-01 WtEn= 3.06D-03
 Coeff-Com:  0.547D-02-0.669D-02-0.564D-02 0.166D-03 0.336D-02-0.114D-01
 Coeff-Com:  0.925D-02-0.494D-01 0.848D-02 0.410D+00 0.637D+00
 Coeff-En:   0.000D+00 0.000D+00 0.000D+00 0.000D+00 0.000D+00 0.000D+00
 Coeff-En:   0.000D+00 0.000D+00 0.000D+00 0.147D+00 0.853D+00
 Coeff:      0.545D-02-0.667D-02-0.563D-02 0.165D-03 0.335D-02-0.114D-01
 Coeff:      0.922D-02-0.492D-01 0.846D-02 0.409D+00 0.637D+00
 Gap=     0.104 Goal=   None    Shift=    0.000
 Gap=     0.103 Goal=   None    Shift=    0.000
 RMSDP=1.05D-04 MaxDP=1.45D-02 DE=-5.98D-04 OVMax= 6.26D-03

 Cycle  12  Pass 1  IDiag  1:
 RMSU=  7.19D-05    CP:  6.60D-01  2.27D+00  5.92D-01  3.83D-01  6.08D-01
                    CP:  5.93D-01  9.62D-01  1.04D+00  1.33D+00  1.02D+00
                    CP:  6.93D-01
 E= -3531.52371483829     Delta-E=       -0.000253546123 Rises=F Damp=F
 DIIS: error= 9.11D-05 at cycle  12 NSaved=  12.
 NSaved=12 IEnMin=12 EnMin= -3531.52371483829     IErMin=12 ErrMin= 9.11D-05
 ErrMax= 9.11D-05  0.00D+00 EMaxC= 1.00D-01 BMatC= 1.37D-04 BMatP= 1.07D-03
 IDIUse=1 WtCom= 1.00D+00 WtEn= 0.00D+00
 Coeff-Com:  0.152D-02-0.109D-02-0.100D-02 0.752D-04-0.142D-02 0.115D-02
 Coeff-Com:  0.215D-01-0.247D-01-0.581D-01 0.157D+00 0.385D+00 0.521D+00
 Coeff:      0.152D-02-0.109D-02-0.100D-02 0.752D-04-0.142D-02 0.115D-02
 Coeff:      0.215D-01-0.247D-01-0.581D-01 0.157D+00 0.385D+00 0.521D+00
 Gap=     0.105 Goal=   None    Shift=    0.000
 Gap=     0.104 Goal=   None    Shift=    0.000
 RMSDP=4.45D-05 MaxDP=8.44D-03 DE=-2.54D-04 OVMax= 1.79D-03

 Cycle  13  Pass 1  IDiag  1:
 RMSU=  2.66D-05    CP:  6.61D-01  2.27D+00  5.93D-01  3.84D-01  6.10D-01
                    CP:  5.90D-01  9.62D-01  1.03D+00  1.30D+00  1.05D+00
                    CP:  7.74D-01  7.72D-01
 E= -3531.52375157556     Delta-E=       -0.000036737270 Rises=F Damp=F
 DIIS: error= 1.90D-05 at cycle  13 NSaved=  13.
 NSaved=13 IEnMin=13 EnMin= -3531.52375157556     IErMin=13 ErrMin= 1.90D-05
 ErrMax= 1.90D-05  0.00D+00 EMaxC= 1.00D-01 BMatC= 7.03D-06 BMatP= 1.37D-04
 IDIUse=1 WtCom= 1.00D+00 WtEn= 0.00D+00
 Coeff-Com:  0.855D-03-0.103D-02-0.212D-03 0.528D-05-0.586D-03 0.120D-02
 Coeff-Com:  0.673D-02-0.451D-02-0.218D-01 0.260D-01 0.867D-01 0.216D+00
 Coeff-Com:  0.690D+00
 Coeff:      0.855D-03-0.103D-02-0.212D-03 0.528D-05-0.586D-03 0.120D-02
 Coeff:      0.673D-02-0.451D-02-0.218D-01 0.260D-01 0.867D-01 0.216D+00
 Coeff:      0.690D+00
 Gap=     0.105 Goal=   None    Shift=    0.000
 Gap=     0.103 Goal=   None    Shift=    0.000
 RMSDP=1.30D-05 MaxDP=2.44D-03 DE=-3.67D-05 OVMax= 6.30D-04

 Cycle  14  Pass 1  IDiag  1:
 RMSU=  1.07D-05    CP:  6.61D-01  2.27D+00  5.93D-01  3.84D-01  6.10D-01
                    CP:  5.90D-01  9.62D-01  1.03D+00  1.30D+00  1.07D+00
                    CP:  7.86D-01  7.98D-01  9.45D-01
 E= -3531.52375398157     Delta-E=       -0.000002406004 Rises=F Damp=F
 DIIS: error= 9.75D-06 at cycle  14 NSaved=  14.
 NSaved=14 IEnMin=14 EnMin= -3531.52375398157     IErMin=14 ErrMin= 9.75D-06
 ErrMax= 9.75D-06  0.00D+00 EMaxC= 1.00D-01 BMatC= 2.21D-06 BMatP= 7.03D-06
 IDIUse=1 WtCom= 1.00D+00 WtEn= 0.00D+00
 Coeff-Com: -0.316D-04-0.453D-04 0.199D-03-0.258D-04 0.883D-04 0.114D-03
 Coeff-Com: -0.283D-02 0.485D-02 0.614D-02-0.274D-01-0.649D-01-0.281D-01
 Coeff-Com:  0.354D+00 0.758D+00
 Coeff:     -0.316D-04-0.453D-04 0.199D-03-0.258D-04 0.883D-04 0.114D-03
 Coeff:     -0.283D-02 0.485D-02 0.614D-02-0.274D-01-0.649D-01-0.281D-01
 Coeff:      0.354D+00 0.758D+00
 Gap=     0.105 Goal=   None    Shift=    0.000
 Gap=     0.103 Goal=   None    Shift=    0.000
 RMSDP=7.25D-06 MaxDP=7.62D-04 DE=-2.41D-06 OVMax= 5.01D-04

 Cycle  15  Pass 1  IDiag  1:
 RMSU=  4.90D-06    CP:  6.61D-01  2.27D+00  5.93D-01  3.83D-01  6.10D-01
                    CP:  5.90D-01  9.62D-01  1.03D+00  1.30D+00  1.07D+00
                    CP:  7.87D-01  8.35D-01  1.09D+00  1.05D+00
 E= -3531.52375490517     Delta-E=       -0.000000923605 Rises=F Damp=F
 DIIS: error= 6.49D-06 at cycle  15 NSaved=  15.
 NSaved=15 IEnMin=15 EnMin= -3531.52375490517     IErMin=15 ErrMin= 6.49D-06
 ErrMax= 6.49D-06  0.00D+00 EMaxC= 1.00D-01 BMatC= 5.52D-07 BMatP= 2.21D-06
 IDIUse=1 WtCom= 1.00D+00 WtEn= 0.00D+00
 Coeff-Com: -0.161D-04 0.799D-05 0.756D-04-0.185D-04 0.203D-03-0.459D-03
 Coeff-Com: -0.297D-02 0.289D-02 0.804D-02-0.138D-01-0.441D-01-0.522D-01
 Coeff-Com:  0.124D-01 0.315D+00 0.775D+00
 Coeff:     -0.161D-04 0.799D-05 0.756D-04-0.185D-04 0.203D-03-0.459D-03
 Coeff:     -0.297D-02 0.289D-02 0.804D-02-0.138D-01-0.441D-01-0.522D-01
 Coeff:      0.124D-01 0.315D+00 0.775D+00
 Gap=     0.105 Goal=   None    Shift=    0.000
 Gap=     0.103 Goal=   None    Shift=    0.000
 RMSDP=3.74D-06 MaxDP=4.15D-04 DE=-9.24D-07 OVMax= 2.88D-04

 Cycle  16  Pass 1  IDiag  1:
 RMSU=  2.31D-06    CP:  6.61D-01  2.27D+00  5.93D-01  3.83D-01  6.10D-01
                    CP:  5.90D-01  9.62D-01  1.03D+00  1.30D+00  1.07D+00
                    CP:  7.86D-01  8.50D-01  1.16D+00  1.17D+00  1.05D+00
 E= -3531.52375508128     Delta-E=       -0.000000176108 Rises=F Damp=F
 DIIS: error= 2.61D-06 at cycle  16 NSaved=  16.
 NSaved=16 IEnMin=16 EnMin= -3531.52375508128     IErMin=16 ErrMin= 2.61D-06
 ErrMax= 2.61D-06  0.00D+00 EMaxC= 1.00D-01 BMatC= 1.45D-07 BMatP= 5.52D-07
 IDIUse=1 WtCom= 1.00D+00 WtEn= 0.00D+00
 Coeff-Com: -0.539D-04 0.127D-03 0.345D-04-0.628D-05 0.682D-04-0.286D-03
 Coeff-Com: -0.104D-02 0.706D-03 0.340D-02-0.154D-02-0.110D-01-0.231D-01
 Coeff-Com: -0.743D-01 0.157D-01 0.464D+00 0.628D+00
 Coeff:     -0.539D-04 0.127D-03 0.345D-04-0.628D-05 0.682D-04-0.286D-03
 Coeff:     -0.104D-02 0.706D-03 0.340D-02-0.154D-02-0.110D-01-0.231D-01
 Coeff:     -0.743D-01 0.157D-01 0.464D+00 0.628D+00
 Gap=     0.105 Goal=   None    Shift=    0.000
 Gap=     0.103 Goal=   None    Shift=    0.000
 RMSDP=1.89D-06 MaxDP=3.20D-04 DE=-1.76D-07 OVMax= 8.13D-05

 Cycle  17  Pass 1  IDiag  1:
 RMSU=  1.18D-06    CP:  6.61D-01  2.27D+00  5.93D-01  3.83D-01  6.10D-01
                    CP:  5.90D-01  9.62D-01  1.03D+00  1.30D+00  1.07D+00
                    CP:  7.89D-01  8.55D-01  1.17D+00  1.22D+00  1.18D+00
                    CP:  7.76D-01
 E= -3531.52375512425     Delta-E=       -0.000000042974 Rises=F Damp=F
 DIIS: error= 1.00D-06 at cycle  17 NSaved=  17.
 NSaved=17 IEnMin=17 EnMin= -3531.52375512425     IErMin=17 ErrMin= 1.00D-06
 ErrMax= 1.00D-06  0.00D+00 EMaxC= 1.00D-01 BMatC= 1.42D-08 BMatP= 1.45D-07
 IDIUse=1 WtCom= 1.00D+00 WtEn= 0.00D+00
 Coeff-Com:  0.950D-05 0.135D-04-0.588D-05-0.104D-05 0.175D-04-0.107D-03
 Coeff-Com: -0.141D-03-0.158D-03 0.476D-03 0.147D-02 0.156D-02-0.256D-02
 Coeff-Com: -0.377D-01-0.428D-01 0.101D+00 0.317D+00 0.661D+00
 Coeff:      0.950D-05 0.135D-04-0.588D-05-0.104D-05 0.175D-04-0.107D-03
 Coeff:     -0.141D-03-0.158D-03 0.476D-03 0.147D-02 0.156D-02-0.256D-02
 Coeff:     -0.377D-01-0.428D-01 0.101D+00 0.317D+00 0.661D+00
 Gap=     0.105 Goal=   None    Shift=    0.000
 Gap=     0.103 Goal=   None    Shift=    0.000
 RMSDP=6.87D-07 MaxDP=1.74D-04 DE=-4.30D-08 OVMax= 3.37D-05

 Cycle  18  Pass 1  IDiag  1:
 RMSU=  3.52D-07    CP:  6.61D-01  2.27D+00  5.93D-01  3.83D-01  6.10D-01
                    CP:  5.90D-01  9.62D-01  1.03D+00  1.30D+00  1.07D+00
                    CP:  7.88D-01  8.55D-01  1.17D+00  1.24D+00  1.21D+00
                    CP:  8.62D-01  8.03D-01
 E= -3531.52375512926     Delta-E=       -0.000000005003 Rises=F Damp=F
 DIIS: error= 2.95D-07 at cycle  18 NSaved=  18.
 NSaved=18 IEnMin=18 EnMin= -3531.52375512926     IErMin=18 ErrMin= 2.95D-07
 ErrMax= 2.95D-07  0.00D+00 EMaxC= 1.00D-01 BMatC= 1.96D-09 BMatP= 1.42D-08
 IDIUse=1 WtCom= 1.00D+00 WtEn= 0.00D+00
 Coeff-Com:  0.125D-04-0.108D-04-0.665D-05 0.286D-06 0.166D-05-0.201D-04
 Coeff-Com:  0.558D-04-0.194D-03-0.206D-03 0.868D-03 0.226D-02 0.166D-02
 Coeff-Com: -0.868D-02-0.239D-01-0.743D-02 0.767D-01 0.325D+00 0.634D+00
 Coeff:      0.125D-04-0.108D-04-0.665D-05 0.286D-06 0.166D-05-0.201D-04
 Coeff:      0.558D-04-0.194D-03-0.206D-03 0.868D-03 0.226D-02 0.166D-02
 Coeff:     -0.868D-02-0.239D-01-0.743D-02 0.767D-01 0.325D+00 0.634D+00
 Gap=     0.105 Goal=   None    Shift=    0.000
 Gap=     0.103 Goal=   None    Shift=    0.000
 RMSDP=2.37D-07 MaxDP=8.36D-05 DE=-5.00D-09 OVMax= 1.24D-05

 Cycle  19  Pass 1  IDiag  1:
 RMSU=  1.50D-07    CP:  6.61D-01  2.27D+00  5.93D-01  3.83D-01  6.10D-01
                    CP:  5.90D-01  9.62D-01  1.03D+00  1.30D+00  1.07D+00
                    CP:  7.89D-01  8.55D-01  1.17D+00  1.24D+00  1.22D+00
                    CP:  8.71D-01  8.67D-01  8.86D-01
 E= -3531.52375512990     Delta-E=       -0.000000000640 Rises=F Damp=F
 DIIS: error= 1.72D-07 at cycle  19 NSaved=  19.
 NSaved=19 IEnMin=19 EnMin= -3531.52375512990     IErMin=19 ErrMin= 1.72D-07
 ErrMax= 1.72D-07  0.00D+00 EMaxC= 1.00D-01 BMatC= 5.03D-10 BMatP= 1.96D-09
 IDIUse=1 WtCom= 1.00D+00 WtEn= 0.00D+00
 Coeff-Com: -0.259D-05 0.263D-05 0.613D-06 0.279D-06-0.335D-05 0.101D-04
 Coeff-Com:  0.538D-04-0.645D-04-0.199D-03 0.577D-04 0.728D-03 0.111D-02
 Coeff-Com:  0.345D-02-0.298D-02-0.183D-01-0.223D-01 0.301D-01 0.284D+00
 Coeff-Com:  0.724D+00
 Coeff:     -0.259D-05 0.263D-05 0.613D-06 0.279D-06-0.335D-05 0.101D-04
 Coeff:      0.538D-04-0.645D-04-0.199D-03 0.577D-04 0.728D-03 0.111D-02
 Coeff:      0.345D-02-0.298D-02-0.183D-01-0.223D-01 0.301D-01 0.284D+00
 Coeff:      0.724D+00
 Gap=     0.105 Goal=   None    Shift=    0.000
 Gap=     0.103 Goal=   None    Shift=    0.000
 RMSDP=9.77D-08 MaxDP=1.17D-05 DE=-6.40D-10 OVMax= 5.32D-06

 Cycle  20  Pass 1  IDiag  1:
 RMSU=  7.47D-08    CP:  6.61D-01  2.27D+00  5.93D-01  3.83D-01  6.10D-01
[...]
 094,0.00000287,-0.00001052,0.00000392,-0.00000038,0.00001144,0.0001588
 7,0.00007422,-0.00005902,-0.00123258,0.00768730,0.00448075,-0.00003592
 ,-0.00010406,-0.00001525,0.00003574,0.00000286,-0.00002247,-0.00002055
 ,-0.00000994,-0.00003566,-0.00000160,0.00001313,-0.00001057,-0.0000141
 6,-0.00001495,-0.00001024,0.00000141,-0.00000256,0.00000788,-0.0000008
 3,-0.00001129,0.00000393,-0.00000445,-0.00000292,-0.00000001,-0.000001
 21,-0.00000634,-0.00000498,0.00002259,-0.00002590,-0.00000504,0.000015
 31,0.00000040,-0.00001371,-0.03844170,0.00379321,-0.00732771,0.0025984
 3,-0.00174111,-0.00193816,-0.17625682,0.11301300,-0.06460635,0.0036969
 6,-0.00115398,0.00096298,0.00324510,0.00023212,-0.00001255,0.20466291,
 -0.00001727,0.00004488,0.00007420,-0.00007178,-0.00007875,-0.00000079,
 0.00005425,0.00002170,-0.00001840,0.00001283,-0.00004755,0.00005479,0.
 00005091,-0.00001798,-0.00009020,0.00001946,0.00006420,-0.00001876,0.0
 0021064,-0.00009676,0.00002784,0.00025659,-0.00069223,0.00063134,-0.00
 016873,-0.00000281,0.00001349,0.00000759,-0.00005872,0.00005312,0.0000
 0316,0.00006013,0.00000431,0.00001076,0.00000202,0.00000049,-0.0000071
 7,0.00000604,0.00000653,-0.00006350,0.00010014,-0.00002872,-0.00002378
 ,-0.00013694,0.00000498,0.00001456,0.00002634,-0.00001063,-0.00000392,
 -0.00000154,-0.00000662,0.00004708,0.00007601,0.00002254,0.00001086,0.
 00001790,0.00000474,-0.00006847,-0.00003547,0.00000127,-0.00002958,0.0
 0006331,-0.00005504,0.00000047,-0.00000622,0.00000027,0.00000135,0.000
 01146,0.00000468,-0.00000262,0.00000363,0.00000981,-0.00001463,0.00004
 084,0.00000034,-0.00194402,0.00266043,0.00130663,0.00000002,-0.0000490
 8,-0.00001167,0.00002546,0.00001325,-0.00001408,-0.00000915,0.00000236
 ,-0.00002225,-0.00000509,-0.00000506,-0.00001234,-0.00001225,-0.000007
 53,-0.00000612,-0.00000027,-0.00000155,0.00000111,0.00000037,-0.000010
 68,0.00000328,0.00000023,-0.00000087,-0.00000131,-0.00000072,-0.000001
 02,-0.00000282,0.00001089,-0.00002133,-0.00000381,0.00001028,-0.000000
 09,-0.00000266,-0.01844018,0.00810901,-0.00722960,0.00033490,-0.000729
 41,-0.00107933,0.11941502,-0.14737894,0.05913559,0.02034988,-0.0164239
 7,0.01077664,0.00179273,-0.00064076,-0.00028520,-0.12044934,0.15784512
 ,0.00006894,0.00001322,0.00001631,0.00009872,0.00007953,0.00005997,0.0
 0010093,0.00001771,-0.00005551,-0.00008358,-0.00015326,-0.00010041,-0.
 00017591,0.00000112,0.00008585,-0.00003877,0.00007824,0.00003830,-0.00
 003872,0.00006774,-0.00009396,0.00001616,0.00011658,-0.00024162,0.0000
 4225,-0.00001692,-0.00000179,-0.00001438,0.00003268,-0.00003858,-0.000
 03236,-0.00006327,0.00001100,-0.00000550,-0.00001307,-0.00001538,0.000
 00006,-0.00000080,-0.00000484,0.00001758,-0.00007896,0.00005579,0.0000
 5439,0.00002307,-0.00004941,-0.00001143,-0.00001140,0.00000878,0.00000
 019,0.00000726,0.00000628,-0.00001962,0.00000536,0.00001499,-0.0000223
 9,-0.00000974,0.00001482,-0.00002513,0.00000577,-0.00000662,0.00001587
 ,-0.00000917,0.00000292,0.00001453,-0.00000056,0.00000864,-0.00000207,
 -0.00000821,-0.00001737,-0.00001120,-0.00002450,-0.00001864,0.00006694
 ,-0.00001705,-0.00001984,-0.00143902,0.00077037,0.00128591,0.00002339,
 0.00001366,0.00000155,-0.00002176,-0.00003516,0.00003588,0.00000970,0.
 00000237,0.00001089,-0.00001171,0.00000132,-0.00000958,0.00001894,0.00
 001004,0.00000613,0.00000093,0.00000183,-0.00000068,-0.00000165,0.0000
 0910,-0.00000468,-0.00000171,0.00000154,0.00000094,-0.00000008,0.00000
 108,0.00000262,-0.00000185,0.00001058,0.00000591,-0.00000548,0.0000014
 8,0.00000577,0.01042334,-0.00562601,0.00415603,0.00139748,0.00042779,-
 0.00009921,-0.06786334,0.05735948,-0.08569738,0.01123513,-0.01014533,0
 .00556523,-0.02277571,0.01906643,-0.00960101,0.06853058,-0.05999849,0.
 08384767,0.00004259,0.00000262,-0.00004231,-0.00000020,0.00010692,-0.0
 0000906,-0.00011263,-0.00001335,0.00006585,0.00002296,-0.00008293,-0.0
 0001469,0.00000791,0.00003710,0.00005578,0.00000223,-0.00007458,-0.000
 01162,0.00003955,-0.00001155,0.00006192,0.00001783,0.00008682,-0.00001
 075,0.00001219,0.00002506,-0.00000166,0.00000101,-0.00001181,0.0000206
 8,-0.00004340,0.00000406,-0.00001320,0.00004875,0.00000174,-0.00000819
 ,-0.00000397,0.00000364,0.00000864,-0.00008492,0.00001546,-0.00005592,
 0.00010784,-0.00000870,0.00006077,-0.00003545,-0.00000852,0.00000931,-
 0.00001133,0.00001196,-0.00001233,-0.00003166,0.00001047,-0.00001990,-
 0.00001463,-0.00000273,-0.00004076,0.00015257,-0.00001819,0.00001329,-
 0.00005353,0.00001537,0.00002655,-0.00000029,0.00000676,-0.00004344,-0
 .00000025,-0.00000477,-0.00000562,0.00001011,-0.00000245,-0.00000202,0
 .00000455,0.00001563,-0.00000307,0.00061069,0.00083062,0.00056249,-0.0
 0000925,-0.00000476,0.00000047,0.00000694,0.00000806,-0.00000755,-0.00
 000738,-0.00000541,-0.00000399,0.00000464,0.00000798,0.00000205,-0.000
 00601,-0.00000659,-0.00000382,0.00000102,-0.00000183,0.00000432,-0.000
 00038,-0.00000282,0.00000195,-0.00000201,-0.00000181,0.00000080,-0.000
 00102,-0.00000274,-0.00000170,0.00000727,-0.00000197,-0.00000075,0.000
 00412,0.00000238,-0.00000466,0.00128829,-0.00036106,-0.00053780,0.0000
 9513,-0.00032424,-0.00030081,-0.00169203,0.00176507,0.00049598,-0.2474
 0599,-0.10387288,0.04717493,0.00019362,-0.00027371,-0.00034672,0.00028
 631,-0.00045951,-0.00016831,0.26700851,-0.00002530,0.00001695,0.000026
 84,-0.00004791,-0.00003784,0.00002737,0.00009711,-0.00000350,-0.000062
 69,-0.00000527,0.00001069,0.00005790,0.00003844,-0.00001665,-0.0000228
 3,0.00000268,0.00003075,0.00000923,0.00015123,-0.00019990,0.00010095,-
 0.00003894,-0.00046222,-0.00037120,-0.00018815,0.00005905,0.00003551,0
 .00001061,-0.00004181,0.00004854,-0.00005846,0.00004493,-0.00003270,0.
 00007797,0.00000291,-0.00002276,-0.00001493,0.00001923,0.00002585,-0.0
 0013536,0.00016181,-0.00001738,0.00003314,-0.00011994,0.00001027,-0.00
 001573,0.00001871,0.00000410,-0.00001631,0.00001267,-0.00001791,0.0000
 3569,0.00005726,0.00002521,-0.00000319,0.00001220,-0.00001081,-0.00007
 047,-0.00001648,0.00000333,0.00000739,0.00001906,-0.00001866,-0.000006
 18,0.00001093,-0.00000631,-0.00000071,-0.00000090,-0.00000697,-0.00000
 087,0.00000895,0.00001785,0.00003816,0.00000290,-0.00000290,-0.0017920
 5,0.00157230,0.00173244,-0.00002607,-0.00006433,-0.00000501,0.00002139
 ,0.00002039,-0.00001769,-0.00001556,-0.00000936,-0.00002094,0.00000020
 ,0.00000896,-0.00000321,-0.00001799,-0.00001511,-0.00001350,0.00000022
 ,-0.00000256,0.00000600,-0.00000124,-0.00001317,0.00000372,-0.00000240
 ,-0.00000223,-0.00000013,-0.00000019,-0.00000424,-0.00000326,0.0000181
 2,-0.00002914,-0.00000511,0.00001369,-0.00000379,-0.00000932,-0.001448
 63,-0.00826932,-0.00415805,0.00077408,-0.00043998,-0.00054697,-0.02541
 553,-0.00895726,0.00921485,-0.10139876,-0.09918979,0.02306551,0.000086
 90,0.00088801,-0.00042769,0.00069135,0.00048732,0.00068264,0.11419905,
 0.10734267,0.00001844,0.00000610,-0.00001640,-0.00000793,0.00005220,0.
 00001206,-0.00003626,-0.00002866,0.00002301,0.00003300,-0.00001450,0.0
 0001601,0.00003289,0.00000799,0.00001361,0.00000997,-0.00003507,-0.000
 01113,0.00000550,-0.00009346,0.00004811,-0.00007681,-0.00015271,-0.000
 24598,-0.00006386,0.00001328,0.00000216,-0.00000440,-0.00001026,0.0000
 1167,-0.00000976,0.00001255,-0.00001944,0.00001512,0.00000009,-0.00001
 078,-0.00000606,0.00000387,0.00000727,-0.00003087,0.00005022,0.0000064
 9,-0.00001205,-0.00003091,-0.00000581,0.00000405,0.00000860,-0.0000005
 5,-0.00000390,0.00000245,-0.00000163,0.00000753,0.00001364,0.00001161,
 0.00000407,0.00000602,0.00000102,0.00004116,-0.00000431,-0.00002136,-0
 .00003281,0.00002472,0.00000259,-0.00000569,0.00000656,-0.00002540,-0.
 00000353,0.00000095,-0.00000319,0.00000494,0.00000392,0.00000496,0.000
 02207,-0.00000410,-0.00000583,-0.00087338,0.00010176,0.00104041,-0.000
 00958,-0.00001991,-0.00000001,0.00000288,0.00000286,-0.00000350,-0.000
 00335,-0.00000180,-0.00000572,0.00000132,-0.00000002,-0.00000209,-0.00
 000918,-0.00000747,-0.00000465,-0.00000054,-0.00000073,0.00000150,-0.0
 0000102,-0.00000393,0.00000068,-0.00000050,-0.00000004,-0.00000060,0.0
 0000098,-0.00000101,-0.00000033,0.00000400,-0.00000980,-0.00000267,0.0
 0000297,-0.00000286,-0.00000275,-0.00097977,-0.00443244,-0.00070299,0.
 00027148,0.00000471,-0.00024091,-0.01260122,-0.00412050,0.00198661,0.0
 4829320,0.02431649,-0.05733478,0.00002743,0.00068557,0.00007254,0.0001
 4647,0.00029959,0.00039544,-0.05228295,-0.02479974,0.05793876,0.000030
 39,-0.00003322,-0.00008239,0.00000289,0.00007556,0.00002859,-0.0000148
 8,-0.00004232,-0.00003888,-0.00002004,0.00006104,-0.00005931,-0.000061
 32,0.00002735,0.00007077,-0.00001992,-0.00009230,0.00001005,-0.0000026
 0,0.00005013,-0.00008403,0.00005721,0.00000701,0.00004727,0.00002307,-
 0.00001824,0.00001416,-0.00000215,0.00001027,-0.00001273,0.00000489,-0
 .00000958,0.00001653,-0.00001069,-0.00000395,-0.00001111,-0.00001026,0
 .00000734,0.00000428,0.00003113,-0.00002636,0.00007811,-0.00002298,0.0
 0000270,-0.00007389,0.00001074,0.00000491,0.00000555,0.00000582,-0.000
 00441,0.00000844,0.00000307,0.00000272,0.00003402,-0.00000257,0.000002
 37,0.00003389,0.00005431,0.00001876,-0.00003820,0.00003366,-0.00008445
 ,0.00005323,-0.00000422,0.00000612,-0.00000690,-0.00000077,-0.00000950
 ,-0.00000120,0.00000238,-0.00000364,-0.00000720,-0.00002672,-0.0000195
 4,0.00001257,-0.00000031,-0.00059369,-0.00040027,0.00000615,0.00000658
 ,-0.00000105,-0.00000527,-0.00000064,0.00000620,0.00000560,0.00000326,
 0.00000741,-0.00000380,-0.00000012,0.00000113,0.00001164,0.00000823,0.
 00000630,0.00000037,0.00000193,-0.00000171,-0.00000015,0.00000284,-0.0
 0000236,0.00000011,0.00000071,-0.00000066,0.00000281,-0.00000049,0.000
 00221,0.00000021,-0.00000623,-0.00000027,-0.00000331,-0.00000558,-0.00
 000063,0.00092530,0.00098036,-0.00045147,-0.00021995,0.00023854,0.0002
 0320,-0.00156452,-0.00095367,-0.00028859,-0.04923732,-0.00064494,0.023
 91223,0.00099527,-0.00007167,-0.00030010,-0.00006553,-0.00013289,0.000
 48915,-0.00170177,-0.00147333,0.02798803,0.04763441,-0.00000969,0.0000
 5452,0.00003544,0.00004166,-0.00002876,-0.00001606,0.00002738,0.000009
 17,0.00003398,0.00004865,-0.00009620,0.00004477,0.00002037,-0.00002795
 ,-0.00003846,-0.00001848,0.00005984,0.00001361,-0.00003207,0.00000220,
 0.00000534,-0.00000184,0.00004953,0.00001086,0.00001155,0.00000452,-0.
 00000554,0.00000036,0.00000138,-0.00000228,0.00001171,-0.00000014,-0.0
 0000096,-0.00000779,0.00000210,0.00000380,0.00000108,-0.00000404,-0.00
 000437,0.00002624,-0.00000888,-0.00000008,-0.00002808,0.00002969,0.000
 01495,0.00000755,-0.00000280,-0.00000489,0.00000202,-0.00000211,0.0000
 0229,0.00000380,-0.00002232,-0.00001915,0.00000465,-0.00000133,-0.0000
 0485,-0.00004858,-0.00000220,0.00002057,-0.00006342,0.00009923,-0.0000
 4875,0.00000118,-0.00000503,-0.00000597,0.00000263,0.00000864,0.000009
 73,0.00000345,0.00000621,0.00000522,-0.00002624,0.00000265,0.00000233,
 0.00063001,-0.00053044,-0.00052544,-0.00000969,0.00000473,0.,0.0000038
 3,0.00001432,-0.00000858,-0.00000054,0.00000154,0.00000145,0.00000467,
 0.00000113,0.00000618,-0.00000121,0.00000002,0.00000153,-0.00000051,0.
 00000010,0.,-0.00000010,0.00000100,0.00000021,0.00000045,0.00000030,-0
 .00000014,0.00000025,0.00000096,0.00000019,-0.00000462,0.00000620,0.00
 000054,-0.00000135,0.00000008,-0.00000055,0.00135213,0.00270275,0.0014
 1416,-0.00061495,-0.00018634,0.00041094,0.00310588,0.00209961,-0.03441
 571,-0.00176702,-0.04857413,0.02684188,-0.00072355,-0.00548360,-0.0020
 3819,0.00004060,0.00134412,0.00061897,-0.00015756,-0.00196233,0.014340
 90,0.00130592,0.05231617,0.00001584,0.00000029,-0.00003935,-0.00000827
 ,0.00004043,0.00001386,0.00005776,-0.00002771,-0.00005934,-0.00004333,
 0.00000213,-0.00003907,-0.00008482,0.00000386,0.00007634,-0.00004245,-
 0.00001987,0.00001371,0.00010630,-0.00000743,-0.00004622,0.00000788,-0
 .00000341,-0.00010270,-0.00001071,0.00002484,0.00001501,0.00001344,-0.
 00000873,0.00000686,-0.00007283,-0.00000888,0.00000631,0.00007639,-0.0
 0000636,-0.00005080,-0.00003610,0.00002906,0.00003004,-0.00008973,0.00
 005156,0.00008465,0.00007962,-0.00006698,-0.00008237,-0.00002768,0.000
 00943,0.00002048,-0.00000940,0.00001128,-0.00000329,-0.00000041,0.0000
 4856,0.00004728,-0.00002364,0.00000526,0.00002670,0.00004023,0.0000086
 6,-0.00002880,0.00005533,-0.00006473,0.00003922,0.00001131,-0.00000241
 ,0.00001621,0.00000853,-0.00000890,0.00000490,0.00000505,-0.00000903,-
 0.00000365,-0.00002365,-0.00002594,0.00001256,0.00017013,-0.00016267,-
 0.00009890,-0.00001683,-0.00001243,0.00000139,0.00000595,0.00000655,-0
 .00000844,-0.00000354,-0.00000367,0.00000179,-0.00000083,0.00001363,0.
 00000569,0.00001298,0.00000276,0.00000108,0.00000167,0.00000050,0.0000
 0364,-0.00000107,-0.00000198,-0.00000235,-0.00000353,-0.00000171,0.000
 00041,0.00000422,-0.00000599,0.00000023,0.00001780,-0.00002737,-0.0000
 0162,0.00000534,-0.00000750,-0.00000799,-0.00011740,0.00060548,0.00139
 290,-0.00034961,0.00008920,0.00026434,0.00183966,0.00194300,-0.0148034
 8,0.02341757,0.02393326,-0.30849008,0.00021680,-0.00276724,0.00067692,
 0.00011187,-0.00025252,0.00087384,-0.00014082,0.00031729,-0.00464267,-
 0.02701591,-0.02408687,0.33461750,0.00002372,-0.00002970,-0.00005167,-
 0.00003132,0.00001175,0.00007622,-0.00005472,-0.00007462,-0.00031460,-
 0.00014227,0.00010210,-0.00018290,-0.00009728,0.00003363,0.00007579,-0
 .00001872,-0.00005581,0.00003271,-0.00003732,0.00007695,-0.00008461,0.
 00001120,0.00008351,0.00003750,0.00003619,-0.00001982,-0.00000264,-0.0
 0000220,0.00002058,-0.00002635,0.00001389,-0.00002592,0.00001402,-0.00
 002060,-0.00000321,-0.00000147,-0.00000065,-0.00000135,-0.00000437,0.0
 0006228,-0.00004012,0.00005177,-0.00003247,0.00003464,-0.00004924,0.00
 000959,-0.00000699,0.00000210,0.00000643,-0.00000444,0.00000888,0.0000
 2384,-0.00002647,0.00001186,-0.00000342,-0.00000601,0.00002654,-0.0001
 7576,-0.00005998,-0.00008856,0.00010274,-0.00012488,-0.00000831,-0.000
 00614,0.00001111,0.00003164,0.00000030,-0.00000829,-0.00000053,-0.0000
 1018,-0.00000476,-0.00000237,-0.00000477,-0.00000140,0.00000491,0.0000
 6748,-0.00045413,-0.00035406,0.00000946,0.00001684,0.00000334,-0.00000
 673,-0.00000944,0.00000558,0.00000458,0.00000240,0.00000858,-0.0000035
 6,0.00000018,0.00000161,0.00001244,0.00000867,0.00000746,0.00000027,0.
 00000219,-0.00000227,-0.00000006,0.00000691,-0.00000298,0.,0.00000130,
 0.00000009,0.00000079,0.00000159,0.00000206,-0.00000555,0.00000829,0.0
 0000214,-0.00000441,-0.00000102,0.00000258,0.00161701,0.00041002,0.000
 33487,-0.00009354,0.00008719,0.00012006,-0.00044793,-0.00195576,0.0006
 9271,-0.19543971,0.11429470,-0.07031754,0.00007001,0.00024081,0.000234
 21,0.00112645,-0.00071541,0.00014652,-0.01875855,0.01592210,-0.0098820
 6,0.00315962,-0.00314074,0.00184086,0.20903957,-0.00009878,0.00005519,
 0.00013573,-0.00000409,-0.00024867,-0.00000263,0.00027760,-0.00002272,
 0.00001545,0.00010983,0.00020122,0.00015866,0.00007188,-0.00016807,-0.
 00016029,0.00002445,0.00020053,0.00001078,-0.00000853,-0.00017632,0.00
 004041,0.00002974,0.00001592,-0.00000402,-0.00001831,0.00001521,0.0000
 0426,0.00000807,-0.00001346,0.00002415,0.00003676,0.00006246,-0.000018
 44,-0.00002823,0.00000543,0.00001924,0.00000785,-0.00000253,-0.0000042
 9,0.00006162,0.00009690,0.00000939,-0.00015481,-0.00001108,0.00000158,
 0.00004054,0.00002200,-0.00001977,0.00000523,-0.00001121,-0.00000040,0
 .00004861,-0.00002875,0.00000100,0.00003322,0.00001199,0.00001416,-0.0
 0031384,0.00006139,0.00000920,-0.00001277,0.00007164,0.00000418,-0.000
 01536,-0.00000478,0.00002513,0.00000168,0.00000902,0.00001362,-0.00000
 560,0.00002743,0.00002904,-0.00002399,-0.00001671,0.00000565,0.0005513
 8,-0.00036989,-0.00051819,-0.00000530,-0.00000318,-0.00000109,0.000005
 97,0.00002690,-0.00000655,-0.00000319,0.00000272,-0.00000550,0.0000063
 5,-0.00000564,0.00000206,-0.00001672,-0.00000804,-0.00000533,-0.000001
 53,-0.00000099,-0.00000189,0.00000125,-0.00000847,0.00000345,0.0000027
 9,0.00000008,-0.00000138,-0.00000014,0.00000227,-0.00000042,-0.0000019
 6,-0.00000966,-0.00000362,0.00000252,-0.00000283,-0.00000016,0.0005741
 6,0.00296053,0.00042894,-0.00078740,0.00007638,0.00017047,0.02453531,-
 0.01980476,0.01126737,0.11120965,-0.13045721,0.05358470,-0.00046498,0.
 00123044,0.00008915,-0.00103957,-0.00455494,-0.00321505,-0.01144025,0.
 00905318,-0.00619079,0.00140611,-0.00188406,0.00044329,-0.12460721,0.1
 4360512,-0.00000593,0.00004720,0.00005432,0.00001364,-0.00004594,-0.00
 005240,-0.00018407,-0.00003391,0.00006602,0.00003968,-0.00015548,-0.00
 001552,0.00016778,0.00000161,-0.00008027,0.00000168,0.00005476,-0.0000
 2852,-0.00010302,-0.00000478,0.00010345,0.00000847,0.00000887,0.000014
 07,-0.00000868,0.00000401,-0.00001849,-0.00000776,-0.00000382,0.000006
 05,0.00004973,0.00001781,-0.00001884,-0.00004012,0.00000751,0.00003770
 ,0.00002850,-0.00002726,-0.00002323,0.00006667,-0.00003844,-0.00009960
 ,-0.00003265,0.00014089,0.00012567,0.00000042,-0.00002386,-0.00000799,
 0.00000391,-0.00000590,-0.00000132,-0.00003819,-0.00010776,-0.00008603
 ,0.00001960,-0.00001371,-0.00005749,-0.00004318,-0.00001912,0.00003688
 ,-0.00014783,0.00017668,-0.00015056,-0.00000741,-0.00000901,-0.0000047
 6,-0.00000006,0.00001740,0.00000698,0.00000373,0.00001248,0.00001260,-
 0.00000219,0.00002694,-0.00001625,0.00032932,0.00014659,0.00002383,-0.
 00000324,0.00000126,-0.00000060,0.00000662,0.00000874,-0.00000500,-0.0
 0000312,0.00000017,-0.00000640,0.00000795,-0.00000768,0.00000235,-0.00
 001973,-0.00000852,-0.00000515,-0.00000139,-0.00000112,-0.00000081,0.0
 0000134,0.00000280,0.00000299,0.00000193,0.00000051,0.00000013,-0.0000
 0432,0.00000357,-0.00000179,-0.00001597,0.00003039,-0.00000016,-0.0000
 0158,0.00000822,0.00000148,-0.00008834,0.00113145,0.00018496,-0.000213
 03,-0.00017397,-0.00021281,0.01342316,-0.00972059,0.00549110,-0.072072
 23,0.05509348,-0.08212217,0.00050121,0.00051967,0.00067262,-0.00060538
 ,-0.00328622,-0.00044090,0.00552865,-0.00481167,0.00171465,-0.02415445
 ,0.01738697,-0.00974275,0.07759992,-0.05635124,0.08464194\\-0.00000079
 ,0.00000109,0.00000002,-0.00000049,-0.00000161,-0.00000001,-0.00000122
 ,-0.00000151,-0.00000024,-0.00000036,-0.00000016,-0.00000182,-0.000001
 76,0.00000018,0.00000052,-0.00000130,-0.00000063,0.00000096,0.00000153
 ,-0.00000095,0.00000168,0.00000290,-0.00000026,-0.00000140,-0.00000071
 ,0.00000007,-0.00000055,0.00000197,0.00000241,0.00000161,0.00000084,0.
 00000039,0.00000164,-0.00000043,-0.00000106,-0.00000085,-0.00000130,0.
 00000478,0.00000034,0.00000197,-0.00000434,-0.00000110,-0.00000378,-0.
 00000069,0.00000113,-0.00000009,-0.00000264,0.00000031,0.00000123,-0.0
 0000353,0.00000366,-0.00000087,0.00000122,0.00000066,-0.00000083,-0.00
 000170,-0.00000129,-0.00000095,0.00000059,0.00000076,-0.00000100,0.000
 00211,0.,0.00000001,0.00000189,-0.00000199,-0.00000001,-0.00000018,-0.
 00000189,-0.00000024,-0.00000061,-0.00000097,-0.00000029,0.00000057,0.
 00000144,-0.00000146,0.00000074,-0.00000032,-0.00000120,0.00000008,0.0
 0000118,0.00000154,-0.00000062,-0.00000053,0.00000070,-0.00000141,-0.0
 0000052,0.00000143,0.00000049,-0.00000012,-0.00000071,0.00000031,-0.00
 000071,0.00000126,-0.00000115,-0.00000105,0.00000094,0.00000190,0.0000
 0073,-0.00000057,-0.00000216,0.00000151,0.00000041,-0.00000233,0.00000
 052,0.00000185,-0.00000057,0.00000072,0.00000258,-0.00000050,0.0000016
 4,0.00000015,0.00000151,-0.00000013,-0.00000017,0.00000027,-0.00000127
 ,0.00000041,0.00000210,0.00000161,-0.00000131,-0.00000068,-0.00000208,
 -0.00000044,0.00000130,-0.00000228,0.00000117,0.00000023,0.00000002,0.
 00000148,0.00000208,-0.00000136,-0.00000039,0.00000098,0.00000074,-0.0
 0000172,0.00000198,-0.00000093\\\@


 ALL THINGS ARE POSSIBLE EXCEPT SKIING THROUGH A REVOLVING DOOR.
 Job cpu time:       2 days 17 hours  7 minutes 53.4 seconds.
 Elapsed time:       0 days  4 hours  4 minutes 50.7 seconds.
 File lengths (MBytes):  RWF=   4241 Int=      0 D2E=      0 Chk=     53 Scr=      1
 Normal termination of Gaussian 16 at Sun Jun 13 10:02:04 2021.
