 Entering Gaussian System, Link 0=g16
 Input=prenyl-oxetane_fecl3-gs1-b3lyp_d3bj-juldz-gas.gjf
 Output=prenyl-oxetane_fecl3-gs1-b3lyp_d3bj-juldz-gas.out
 Initial command:
 /SFS/product/gaussian/g16.a03/x86_64/avx/g16/l1.exe "/scratch/kwaneu.2863308.bmbhpcps002/Gau-13785.inp" -scrdir="/scratch/kwaneu.2863308.bmbhpcps002/"
 Entering Link 1 = /SFS/product/gaussian/g16.a03/x86_64/avx/g16/l1.exe PID=     13786.
  
 Copyright (c) 1988,1990,1992,1993,1995,1998,2003,2009,2016,
            Gaussian, Inc.  All Rights Reserved.
  
 This is part of the Gaussian(R) 16 program.  It is based on
 the Gaussian(R) 09 system (copyright 2009, Gaussian, Inc.),
 the Gaussian(R) 03 system (copyright 2003, Gaussian, Inc.),
 the Gaussian(R) 98 system (copyright 1998, Gaussian, Inc.),
 the Gaussian(R) 94 system (copyright 1995, Gaussian, Inc.),
 the Gaussian 92(TM) system (copyright 1992, Gaussian, Inc.),
 the Gaussian 90(TM) system (copyright 1990, Gaussian, Inc.),
 the Gaussian 88(TM) system (copyright 1988, Gaussian, Inc.),
 the Gaussian 86(TM) system (copyright 1986, Carnegie Mellon
 University), and the Gaussian 82(TM) system (copyright 1983,
 Carnegie Mellon University). Gaussian is a federally registered
 trademark of Gaussian, Inc.
  
 This software contains proprietary and confidential information,
 including trade secrets, belonging to Gaussian, Inc.
  
 This software is provided under written license and may be
 used, copied, transmitted, or stored only in accord with that
 written license.
  
 The following legend is applicable only to US Government
 contracts under FAR:
  
                    RESTRICTED RIGHTS LEGEND
  
 Use, reproduction and disclosure by the US Government is
 subject to restrictions as set forth in subparagraphs (a)
 and (c) of the Commercial Computer Software - Restricted
 Rights clause in FAR 52.227-19.
  
 Gaussian, Inc.
 340 Quinnipiac St., Bldg. 40, Wallingford CT 06492
  
  
 ---------------------------------------------------------------
 Warning -- This program may not be used in any manner that
 competes with the business of Gaussian, Inc. or will provide
 assistance to any competitor of Gaussian, Inc.  The licensee
 of this program is prohibited from giving any competitor of
 Gaussian, Inc. access to this program.  By using this program,
 the user acknowledges that Gaussian, Inc. is engaged in the
 business of creating and licensing software in the field of
 computational chemistry and represents and warrants to the
 licensee that it is not a competitor of Gaussian, Inc. and that
 it will not use this program in any manner prohibited above.
 ---------------------------------------------------------------
  

 Cite this work as:
 Gaussian 16, Revision A.03,
 M. J. Frisch, G. W. Trucks, H. B. Schlegel, G. E. Scuseria, 
 M. A. Robb, J. R. Cheeseman, G. Scalmani, V. Barone, 
 G. A. Petersson, H. Nakatsuji, X. Li, M. Caricato, A. V. Marenich, 
 J. Bloino, B. G. Janesko, R. Gomperts, B. Mennucci, H. P. Hratchian, 
 J. V. Ortiz, A. F. Izmaylov, J. L. Sonnenberg, D. Williams-Young, 
 F. Ding, F. Lipparini, F. Egidi, J. Goings, B. Peng, A. Petrone, 
 T. Henderson, D. Ranasinghe, V. G. Zakrzewski, J. Gao, N. Rega, 
 G. Zheng, W. Liang, M. Hada, M. Ehara, K. Toyota, R. Fukuda, 
 J. Hasegawa, M. Ishida, T. Nakajima, Y. Honda, O. Kitao, H. Nakai, 
 T. Vreven, K. Throssell, J. A. Montgomery, Jr., J. E. Peralta, 
 F. Ogliaro, M. J. Bearpark, J. J. Heyd, E. N. Brothers, K. N. Kudin, 
 V. N. Staroverov, T. A. Keith, R. Kobayashi, J. Normand, 
 K. Raghavachari, A. P. Rendell, J. C. Burant, S. S. Iyengar, 
 J. Tomasi, M. Cossi, J. M. Millam, M. Klene, C. Adamo, R. Cammi, 
 J. W. Ochterski, R. L. Martin, K. Morokuma, O. Farkas, 
 J. B. Foresman, and D. J. Fox, Gaussian, Inc., Wallingford CT, 2016.
 
 ******************************************
 Gaussian 16:  ES64L-G16RevA.03 25-Dec-2016
                 4-Jun-2021 
 ******************************************
 %nprocshared=16
 Will use up to   16 processors via shared memory.
 %mem=16GB
 ----------------------------------------------------------------------
 #p b3lyp jul-cc-pvdz empiricaldispersion=gd3bj opt freq=noraman pop=no
 ne
 ----------------------------------------------------------------------
 1/18=20,19=15,26=3,38=1/1,3;
 2/9=110,12=2,17=6,18=5,40=1/2;
 3/5=16,7=50,11=2,25=1,30=1,71=1,74=-5,124=41/1,2,3;
 4//1;
 5/5=2,38=5/2;
 7//1,2,3,16;
 1/18=20,19=15,26=3/3(2);
 2/9=110/2;
 99//99;
 2/9=110/2;
 3/5=16,7=50,11=2,25=1,30=1,71=1,74=-5,124=41/1,2,3;
 4/5=5,16=3,69=1/1;
 5/5=2,38=5/2;
 7//1,2,3,16;
 1/18=20,19=15,26=3/3(-5);
 2/9=110/2;
 99/9=1/99;
 Leave Link    1 at Fri Jun  4 16:37:44 2021, MaxMem=  2147483648 cpu:               0.8 elap:               0.1
 (Enter /SFS/product/gaussian/g16.a03/x86_64/avx/g16/l101.exe)
 -----
 title
 -----
 Symbolic Z-matrix:
 Charge =  0 Multiplicity = 6
 6                    -2.80037   1.41376   0.75739 
 6                    -1.54867   0.79435   0.88736 
 6                    -1.35464  -0.14972   1.89882 
 6                    -2.40187  -0.47929   2.76314 
 6                    -3.6504    0.13188   2.62641 
 6                    -3.84588   1.08271   1.61974 
 6                    -0.46959   1.16113  -0.09665 
 6                    -0.77454   0.85474  -1.59442 
 6                    -0.88949   2.2378   -2.25576 
 6                     0.12093   3.11902  -1.50428 
 6                     0.06401   2.61893  -0.05108 
 6                     1.34766   2.07993   0.62593 
 6                     1.38552   2.27842   2.12752 
 8                     0.86341   0.65951   0.34742 
 26                    1.9651   -0.99366   0.0244 
 17                    0.77318  -2.76085   0.47687 
 6                     2.6803    2.35263  -0.03461 
 17                    3.61922  -0.75285   1.4478 
 17                    2.55233  -0.83098  -2.09143 
 1                    -0.39472  -0.64613   2.00493 
 1                    -2.23761  -1.22311   3.54343 
 1                    -4.467    -0.1287    3.30057 
 1                    -4.81534   1.56777   1.50271 
 1                    -2.96969   2.14749  -0.03047 
 1                     0.09204   0.31218  -1.99392 
 6                    -1.99974  -0.01332  -1.8121 
 1                    -0.69895   2.18942  -3.3342 
 1                    -1.91467   2.60967  -2.12985 
 1                     1.12088   2.98358  -1.93116 
 1                    -0.11922   4.18634  -1.57822 
 1                    -0.51627   3.28101   0.59912 
 1                     2.71436   1.98596  -1.06506 
 1                     2.84782   3.43881  -0.04239 
 1                     3.49353   1.88076   0.52703 
 1                     2.13466   1.61643   2.57822 
 1                     1.66712   3.31977   2.33909 
 1                     0.40846   2.0806    2.58255 
 8                    -1.82983  -1.22682  -1.27304 
 8                    -3.00603   0.34955  -2.38493 
 6                    -2.99423  -2.0976   -1.27792 
 6                    -2.6773   -3.29671  -0.41162 
 1                    -3.8463   -1.52071  -0.896 
 1                    -3.20823  -2.3753   -2.31882 
 1                    -3.54548  -3.97118  -0.39974 
 1                    -1.8096   -3.84575  -0.79793 
 1                    -2.45943  -2.98442   0.61776 
 
 ITRead=  0  0  0  0  0  0  0  0  0  0  0  0  0  0  0  0  0  0  0  0
 ITRead=  0  0  0  0  0  0  0  0  0  0  0  0  0  0  0  0  0  0  0  0
 ITRead=  0  0  0  0  0  0
 MicOpt= -1 -1 -1 -1 -1 -1 -1 -1 -1 -1 -1 -1 -1 -1 -1 -1 -1 -1 -1 -1
 MicOpt= -1 -1 -1 -1 -1 -1 -1 -1 -1 -1 -1 -1 -1 -1 -1 -1 -1 -1 -1 -1
 MicOpt= -1 -1 -1 -1 -1 -1
 NAtoms=     46 NQM=       46 NQMF=       0 NMMI=      0 NMMIF=      0
                NMic=       0 NMicF=      0.
                    Isotopes and Nuclear Properties:
 (Nuclear quadrupole moments (NQMom) in fm**2, nuclear magnetic moments (NMagM)
  in nuclear magnetons)

  Atom         1           2           3           4           5           6           7           8           9          10
 IAtWgt=          12          12          12          12          12          12          12          12          12          12
 AtmWgt=  12.0000000  12.0000000  12.0000000  12.0000000  12.0000000  12.0000000  12.0000000  12.0000000  12.0000000  12.0000000
 NucSpn=           0           0           0           0           0           0           0           0           0           0
 AtZEff=  -0.0000000  -0.0000000  -0.0000000  -0.0000000  -0.0000000  -0.0000000  -0.0000000  -0.0000000  -0.0000000  -0.0000000
 NQMom=    0.0000000   0.0000000   0.0000000   0.0000000   0.0000000   0.0000000   0.0000000   0.0000000   0.0000000   0.0000000
 NMagM=    0.0000000   0.0000000   0.0000000   0.0000000   0.0000000   0.0000000   0.0000000   0.0000000   0.0000000   0.0000000
 AtZNuc=   6.0000000   6.0000000   6.0000000   6.0000000   6.0000000   6.0000000   6.0000000   6.0000000   6.0000000   6.0000000

  Atom        11          12          13          14          15          16          17          18          19          20
 IAtWgt=          12          12          12          16          56          35          12          35          35           1
 AtmWgt=  12.0000000  12.0000000  12.0000000  15.9949146  55.9349393  34.9688527  12.0000000  34.9688527  34.9688527   1.0078250
 NucSpn=           0           0           0           0           0           3           0           3           3           1
 AtZEff=  -0.0000000  -0.0000000  -0.0000000  -0.0000000  -0.0000000  -0.0000000  -0.0000000  -0.0000000  -0.0000000  -0.0000000
 NQMom=    0.0000000   0.0000000   0.0000000   0.0000000   0.0000000  -8.1650000   0.0000000  -8.1650000  -8.1650000   0.0000000
 NMagM=    0.0000000   0.0000000   0.0000000   0.0000000   0.0000000   0.8218740   0.0000000   0.8218740   0.8218740   2.7928460
 AtZNuc=   6.0000000   6.0000000   6.0000000   8.0000000  26.0000000  17.0000000   6.0000000  17.0000000  17.0000000   1.0000000

  Atom        21          22          23          24          25          26          27          28          29          30
 IAtWgt=           1           1           1           1           1          12           1           1           1           1
 AtmWgt=   1.0078250   1.0078250   1.0078250   1.0078250   1.0078250  12.0000000   1.0078250   1.0078250   1.0078250   1.0078250
 NucSpn=           1           1           1           1           1           0           1           1           1           1
 AtZEff=  -0.0000000  -0.0000000  -0.0000000  -0.0000000  -0.0000000  -0.0000000  -0.0000000  -0.0000000  -0.0000000  -0.0000000
 NQMom=    0.0000000   0.0000000   0.0000000   0.0000000   0.0000000   0.0000000   0.0000000   0.0000000   0.0000000   0.0000000
 NMagM=    2.7928460   2.7928460   2.7928460   2.7928460   2.7928460   0.0000000   2.7928460   2.7928460   2.7928460   2.7928460
 AtZNuc=   1.0000000   1.0000000   1.0000000   1.0000000   1.0000000   6.0000000   1.0000000   1.0000000   1.0000000   1.0000000

  Atom        31          32          33          34          35          36          37          38          39          40
 IAtWgt=           1           1           1           1           1           1           1          16          16          12
 AtmWgt=   1.0078250   1.0078250   1.0078250   1.0078250   1.0078250   1.0078250   1.0078250  15.9949146  15.9949146  12.0000000
 NucSpn=           1           1           1           1           1           1           1           0           0           0
 AtZEff=  -0.0000000  -0.0000000  -0.0000000  -0.0000000  -0.0000000  -0.0000000  -0.0000000  -0.0000000  -0.0000000  -0.0000000
 NQMom=    0.0000000   0.0000000   0.0000000   0.0000000   0.0000000   0.0000000   0.0000000   0.0000000   0.0000000   0.0000000
 NMagM=    2.7928460   2.7928460   2.7928460   2.7928460   2.7928460   2.7928460   2.7928460   0.0000000   0.0000000   0.0000000
 AtZNuc=   1.0000000   1.0000000   1.0000000   1.0000000   1.0000000   1.0000000   1.0000000   8.0000000   8.0000000   6.0000000

  Atom        41          42          43          44          45          46
 IAtWgt=          12           1           1           1           1           1
 AtmWgt=  12.0000000   1.0078250   1.0078250   1.0078250   1.0078250   1.0078250
 NucSpn=           0           1           1           1           1           1
 AtZEff=  -0.0000000  -0.0000000  -0.0000000  -0.0000000  -0.0000000  -0.0000000
 NQMom=    0.0000000   0.0000000   0.0000000   0.0000000   0.0000000   0.0000000
 NMagM=    0.0000000   2.7928460   2.7928460   2.7928460   2.7928460   2.7928460
 AtZNuc=   6.0000000   1.0000000   1.0000000   1.0000000   1.0000000   1.0000000
 Leave Link  101 at Fri Jun  4 16:37:45 2021, MaxMem=  2147483648 cpu:               5.2 elap:               0.3
 (Enter /SFS/product/gaussian/g16.a03/x86_64/avx/g16/l103.exe)

 GradGradGradGradGradGradGradGradGradGradGradGradGradGradGradGradGradGrad
 Berny optimization.
 Initialization pass.
                           ----------------------------
                           !    Initial Parameters    !
                           ! (Angstroms and Degrees)  !
 --------------------------                            --------------------------
 ! Name  Definition              Value          Derivative Info.                !
 --------------------------------------------------------------------------------
 ! R1    R(1,2)                  1.4026         estimate D2E/DX2                !
 ! R2    R(1,6)                  1.3951         estimate D2E/DX2                !
 ! R3    R(1,24)                 1.0898         estimate D2E/DX2                !
 ! R4    R(2,3)                  1.3971         estimate D2E/DX2                !
 ! R5    R(2,7)                  1.5057         estimate D2E/DX2                !
 ! R6    R(3,4)                  1.3973         estimate D2E/DX2                !
 ! R7    R(3,20)                 1.0859         estimate D2E/DX2                !
 ! R8    R(4,5)                  1.3968         estimate D2E/DX2                !
 ! R9    R(4,21)                 1.0905         estimate D2E/DX2                !
 ! R10   R(5,6)                  1.3985         estimate D2E/DX2                !
 ! R11   R(5,22)                 1.0905         estimate D2E/DX2                !
 ! R12   R(6,23)                 1.0903         estimate D2E/DX2                !
 ! R13   R(7,8)                  1.5589         estimate D2E/DX2                !
 ! R14   R(7,11)                 1.5531         estimate D2E/DX2                !
 ! R15   R(7,14)                 1.4919         estimate D2E/DX2                !
 ! R16   R(8,9)                  1.5374         estimate D2E/DX2                !
 ! R17   R(8,25)                 1.0977         estimate D2E/DX2                !
 ! R18   R(8,26)                 1.5172         estimate D2E/DX2                !
 ! R19   R(9,10)                 1.537          estimate D2E/DX2                !
 ! R20   R(9,27)                 1.0962         estimate D2E/DX2                !
 ! R21   R(9,28)                 1.0978         estimate D2E/DX2                !
 ! R22   R(10,11)                1.5379         estimate D2E/DX2                !
 ! R23   R(10,29)                1.0957         estimate D2E/DX2                !
 ! R24   R(10,30)                1.0965         estimate D2E/DX2                !
 ! R25   R(11,12)                1.5481         estimate D2E/DX2                !
 ! R26   R(11,31)                1.0945         estimate D2E/DX2                !
 ! R27   R(12,13)                1.5151         estimate D2E/DX2                !
 ! R28   R(12,14)                1.5263         estimate D2E/DX2                !
 ! R29   R(12,17)                1.5121         estimate D2E/DX2                !
 ! R30   R(13,35)                1.0966         estimate D2E/DX2                !
 ! R31   R(13,36)                1.0993         estimate D2E/DX2                !
 ! R32   R(13,37)                1.0958         estimate D2E/DX2                !
 ! R33   R(14,15)                2.0127         estimate D2E/DX2                !
 ! R34   R(15,16)                2.1791         estimate D2E/DX2                !
 ! R35   R(15,18)                2.1955         estimate D2E/DX2                !
 ! R36   R(15,19)                2.2018         estimate D2E/DX2                !
 ! R37   R(17,32)                1.0943         estimate D2E/DX2                !
 ! R38   R(17,33)                1.0991         estimate D2E/DX2                !
 ! R39   R(17,34)                1.0952         estimate D2E/DX2                !
 ! R40   R(26,38)                1.3387         estimate D2E/DX2                !
 ! R41   R(26,39)                1.2134         estimate D2E/DX2                !
 ! R42   R(38,40)                1.454          estimate D2E/DX2                !
 ! R43   R(40,41)                1.5129         estimate D2E/DX2                !
 ! R44   R(40,42)                1.0976         estimate D2E/DX2                !
 ! R45   R(40,43)                1.0984         estimate D2E/DX2                !
 ! R46   R(41,44)                1.0994         estimate D2E/DX2                !
 ! R47   R(41,45)                1.0971         estimate D2E/DX2                !
 ! R48   R(41,46)                1.0975         estimate D2E/DX2                !
 ! A1    A(2,1,6)              120.445          estimate D2E/DX2                !
 ! A2    A(2,1,24)             120.195          estimate D2E/DX2                !
 ! A3    A(6,1,24)             119.3524         estimate D2E/DX2                !
 ! A4    A(1,2,3)              119.303          estimate D2E/DX2                !
 ! A5    A(1,2,7)              118.1263         estimate D2E/DX2                !
 ! A6    A(3,2,7)              122.5601         estimate D2E/DX2                !
 ! A7    A(2,3,4)              120.2065         estimate D2E/DX2                !
 ! A8    A(2,3,20)             120.1601         estimate D2E/DX2                !
 ! A9    A(4,3,20)             119.622          estimate D2E/DX2                !
 ! A10   A(3,4,5)              120.4091         estimate D2E/DX2                !
 ! A11   A(3,4,21)             119.382          estimate D2E/DX2                !
 ! A12   A(5,4,21)             120.208          estimate D2E/DX2                !
 ! A13   A(4,5,6)              119.5318         estimate D2E/DX2                !
 ! A14   A(4,5,22)             120.2827         estimate D2E/DX2                !
 ! A15   A(6,5,22)             120.1854         estimate D2E/DX2                !
 ! A16   A(1,6,5)              120.1017         estimate D2E/DX2                !
 ! A17   A(1,6,23)             119.6315         estimate D2E/DX2                !
 ! A18   A(5,6,23)             120.2667         estimate D2E/DX2                !
 ! A19   A(2,7,8)              116.0925         estimate D2E/DX2                !
 ! A20   A(2,7,11)             117.1101         estimate D2E/DX2                !
 ! A21   A(2,7,14)             111.3403         estimate D2E/DX2                !
 ! A22   A(8,7,11)             106.2534         estimate D2E/DX2                !
 ! A23   A(8,7,14)             113.2461         estimate D2E/DX2                !
 ! A24   A(11,7,14)             89.9931         estimate D2E/DX2                !
 ! A25   A(7,8,9)              104.544          estimate D2E/DX2                !
 ! A26   A(7,8,25)             107.0012         estimate D2E/DX2                !
 ! A27   A(7,8,26)             114.0951         estimate D2E/DX2                !
 ! A28   A(9,8,25)             110.3123         estimate D2E/DX2                !
 ! A29   A(9,8,26)             113.1168         estimate D2E/DX2                !
 ! A30   A(25,8,26)            107.6077         estimate D2E/DX2                !
 ! A31   A(8,9,10)             104.8519         estimate D2E/DX2                !
 ! A32   A(8,9,27)             111.7469         estimate D2E/DX2                !
 ! A33   A(8,9,28)             108.9799         estimate D2E/DX2                !
 ! A34   A(10,9,27)            113.0823         estimate D2E/DX2                !
 ! A35   A(10,9,28)            111.3234         estimate D2E/DX2                !
 ! A36   A(27,9,28)            106.8646         estimate D2E/DX2                !
 ! A37   A(9,10,11)            104.5509         estimate D2E/DX2                !
 ! A38   A(9,10,29)            109.7929         estimate D2E/DX2                !
 ! A39   A(9,10,30)            112.4045         estimate D2E/DX2                !
 ! A40   A(11,10,29)           111.2067         estimate D2E/DX2                !
 ! A41   A(11,10,30)           111.8474         estimate D2E/DX2                !
 ! A42   A(29,10,30)           107.0938         estimate D2E/DX2                !
 ! A43   A(7,11,10)            106.8715         estimate D2E/DX2                !
 ! A44   A(7,11,12)             88.3332         estimate D2E/DX2                !
 ! A45   A(7,11,31)            113.7719         estimate D2E/DX2                !
 ! A46   A(10,11,12)           119.7197         estimate D2E/DX2                !
 ! A47   A(10,11,31)           112.5989         estimate D2E/DX2                !
 ! A48   A(12,11,31)           112.9823         estimate D2E/DX2                !
 ! A49   A(11,12,13)           114.1118         estimate D2E/DX2                !
 ! A50   A(11,12,14)            88.9194         estimate D2E/DX2                !
 ! A51   A(11,12,17)           118.4852         estimate D2E/DX2                !
 ! A52   A(13,12,14)           108.1001         estimate D2E/DX2                !
 ! A53   A(13,12,17)           112.7849         estimate D2E/DX2                !
 ! A54   A(14,12,17)           111.575          estimate D2E/DX2                !
 ! A55   A(12,13,35)           110.2003         estimate D2E/DX2                !
 ! A56   A(12,13,36)           108.7372         estimate D2E/DX2                !
 ! A57   A(12,13,37)           111.4444         estimate D2E/DX2                !
 ! A58   A(35,13,36)           108.5272         estimate D2E/DX2                !
 ! A59   A(35,13,37)           109.2367         estimate D2E/DX2                !
 ! A60   A(36,13,37)           108.6321         estimate D2E/DX2                !
 ! A61   A(7,14,12)             91.4263         estimate D2E/DX2                !
 ! A62   A(7,14,15)            135.8456         estimate D2E/DX2                !
 ! A63   A(12,14,15)           128.3161         estimate D2E/DX2                !
 ! A64   A(14,15,16)           109.4745         estimate D2E/DX2                !
 ! A65   A(14,15,18)           102.6064         estimate D2E/DX2                !
 ! A66   A(14,15,19)           103.8584         estimate D2E/DX2                !
 ! A67   A(16,15,18)           111.4959         estimate D2E/DX2                !
 ! A68   A(16,15,19)           113.9123         estimate D2E/DX2                !
 ! A69   A(18,15,19)           114.4539         estimate D2E/DX2                !
 ! A70   A(12,17,32)           112.2317         estimate D2E/DX2                !
 ! A71   A(12,17,33)           108.3999         estimate D2E/DX2                !
 ! A72   A(12,17,34)           110.6521         estimate D2E/DX2                !
 ! A73   A(32,17,33)           108.6468         estimate D2E/DX2                !
 ! A74   A(32,17,34)           108.3865         estimate D2E/DX2                !
 ! A75   A(33,17,34)           108.4369         estimate D2E/DX2                !
 ! A76   A(8,26,38)            110.9994         estimate D2E/DX2                !
 ! A77   A(8,26,39)            124.4934         estimate D2E/DX2                !
 ! A78   A(38,26,39)           124.5019         estimate D2E/DX2                !
 ! A79   A(26,38,40)           116.0964         estimate D2E/DX2                !
 ! A80   A(38,40,41)           107.7574         estimate D2E/DX2                !
 ! A81   A(38,40,42)           107.8036         estimate D2E/DX2                !
 ! A82   A(38,40,43)           108.0975         estimate D2E/DX2                !
 ! A83   A(41,40,42)           112.3316         estimate D2E/DX2                !
 ! A84   A(41,40,43)           112.5244         estimate D2E/DX2                !
 ! A85   A(42,40,43)           108.1441         estimate D2E/DX2                !
 ! A86   A(40,41,44)           109.0865         estimate D2E/DX2                !
 ! A87   A(40,41,45)           111.1442         estimate D2E/DX2                !
 ! A88   A(40,41,46)           110.6776         estimate D2E/DX2                !
 ! A89   A(44,41,45)           108.7441         estimate D2E/DX2                !
 ! A90   A(44,41,46)           108.7339         estimate D2E/DX2                !
 ! A91   A(45,41,46)           108.4003         estimate D2E/DX2                !
 ! D1    D(6,1,2,3)             -0.6163         estimate D2E/DX2                !
 ! D2    D(6,1,2,7)            178.2275         estimate D2E/DX2                !
 ! D3    D(24,1,2,3)          -179.602          estimate D2E/DX2                !
 ! D4    D(24,1,2,7)            -0.7582         estimate D2E/DX2                !
 ! D5    D(2,1,6,5)              0.2673         estimate D2E/DX2                !
 ! D6    D(2,1,6,23)          -179.609          estimate D2E/DX2                !
 ! D7    D(24,1,6,5)           179.2615         estimate D2E/DX2                !
 ! D8    D(24,1,6,23)           -0.6148         estimate D2E/DX2                !
 ! D9    D(1,2,3,4)              0.5289         estimate D2E/DX2                !
 ! D10   D(1,2,3,20)           179.296          estimate D2E/DX2                !
 ! D11   D(7,2,3,4)           -178.2613         estimate D2E/DX2                !
 ! D12   D(7,2,3,20)             0.5058         estimate D2E/DX2                !
 ! D13   D(1,2,7,8)            -60.9869         estimate D2E/DX2                !
 ! D14   D(1,2,7,11)            65.9427         estimate D2E/DX2                !
 ! D15   D(1,2,7,14)           167.4721         estimate D2E/DX2                !
 ! D16   D(3,2,7,8)            117.8169         estimate D2E/DX2                !
 ! D17   D(3,2,7,11)          -115.2536         estimate D2E/DX2                !
 ! D18   D(3,2,7,14)           -13.7242         estimate D2E/DX2                !
 ! D19   D(2,3,4,5)             -0.0947         estimate D2E/DX2                !
 ! D20   D(2,3,4,21)           179.5708         estimate D2E/DX2                !
 ! D21   D(20,3,4,5)          -178.8684         estimate D2E/DX2                !
 ! D22   D(20,3,4,21)            0.7971         estimate D2E/DX2                !
 ! D23   D(3,4,5,6)             -0.2584         estimate D2E/DX2                !
 ! D24   D(3,4,5,22)           179.8486         estimate D2E/DX2                !
 ! D25   D(21,4,5,6)          -179.9211         estimate D2E/DX2                !
 ! D26   D(21,4,5,22)            0.1859         estimate D2E/DX2                !
 ! D27   D(4,5,6,1)              0.1718         estimate D2E/DX2                !
 ! D28   D(4,5,6,23)          -179.9527         estimate D2E/DX2                !
 ! D29   D(22,5,6,1)          -179.9351         estimate D2E/DX2                !
 ! D30   D(22,5,6,23)           -0.0596         estimate D2E/DX2                !
 ! D31   D(2,7,8,9)            112.7547         estimate D2E/DX2                !
 ! D32   D(2,7,8,25)          -130.2227         estimate D2E/DX2                !
 ! D33   D(2,7,8,26)           -11.3248         estimate D2E/DX2                !
 ! D34   D(11,7,8,9)           -19.4139         estimate D2E/DX2                !
 ! D35   D(11,7,8,25)           97.6086         estimate D2E/DX2                !
 ! D36   D(11,7,8,26)         -143.4935         estimate D2E/DX2                !
 ! D37   D(14,7,8,9)          -116.6002         estimate D2E/DX2                !
 ! D38   D(14,7,8,25)            0.4224         estimate D2E/DX2                !
 ! D39   D(14,7,8,26)          119.3203         estimate D2E/DX2                !
 ! D40   D(2,7,11,10)         -133.9323         estimate D2E/DX2                !
 ! D41   D(2,7,11,12)          105.4405         estimate D2E/DX2                !
 ! D42   D(2,7,11,31)           -9.0164         estimate D2E/DX2                !
 ! D43   D(8,7,11,10)           -2.3319         estimate D2E/DX2                !
 ! D44   D(8,7,11,12)         -122.9591         estimate D2E/DX2                !
 ! D45   D(8,7,11,31)          122.5841         estimate D2E/DX2                !
 ! D46   D(14,7,11,10)         111.9406         estimate D2E/DX2                !
 ! D47   D(14,7,11,12)          -8.6866         estimate D2E/DX2                !
 ! D48   D(14,7,11,31)        -123.1434         estimate D2E/DX2                !
 ! D49   D(2,7,14,12)         -110.4776         estimate D2E/DX2                !
 ! D50   D(2,7,14,15)           93.1794         estimate D2E/DX2                !
 ! D51   D(8,7,14,12)          116.5424         estimate D2E/DX2                !
 ! D52   D(8,7,14,15)          -39.8006         estimate D2E/DX2                !
 ! D53   D(11,7,14,12)           8.8105         estimate D2E/DX2                !
 ! D54   D(11,7,14,15)        -147.5326         estimate D2E/DX2                !
 ! D55   D(7,8,9,10)            34.0259         estimate D2E/DX2                !
 ! D56   D(7,8,9,27)           156.8772         estimate D2E/DX2                !
 ! D57   D(7,8,9,28)           -85.2511         estimate D2E/DX2                !
 ! D58   D(25,8,9,10)          -80.6908         estimate D2E/DX2                !
 ! D59   D(25,8,9,27)           42.1605         estimate D2E/DX2                !
 ! D60   D(25,8,9,28)          160.0321         estimate D2E/DX2                !
 ! D61   D(26,8,9,10)          158.73           estimate D2E/DX2                !
 ! D62   D(26,8,9,27)          -78.4187         estimate D2E/DX2                !
 ! D63   D(26,8,9,28)           39.4529         estimate D2E/DX2                !
 ! D64   D(7,8,26,38)          -63.531          estimate D2E/DX2                !
 ! D65   D(7,8,26,39)          115.6606         estimate D2E/DX2                !
 ! D66   D(9,8,26,38)          177.1272         estimate D2E/DX2                !
 ! D67   D(9,8,26,39)           -3.6812         estimate D2E/DX2                !
 ! D68   D(25,8,26,38)          55.0222         estimate D2E/DX2                !
 ! D69   D(25,8,26,39)        -125.7862         estimate D2E/DX2                !
 ! D70   D(8,9,10,11)          -35.6063         estimate D2E/DX2                !
 ! D71   D(8,9,10,29)           83.7736         estimate D2E/DX2                !
 ! D72   D(8,9,10,30)         -157.1311         estimate D2E/DX2                !
 ! D73   D(27,9,10,11)        -157.5902         estimate D2E/DX2                !
 ! D74   D(27,9,10,29)         -38.2104         estimate D2E/DX2                !
 ! D75   D(27,9,10,30)          80.8849         estimate D2E/DX2                !
 ! D76   D(28,9,10,11)          82.0858         estimate D2E/DX2                !
 ! D77   D(28,9,10,29)        -158.5344         estimate D2E/DX2                !
 ! D78   D(28,9,10,30)         -39.4391         estimate D2E/DX2                !
 ! D79   D(9,10,11,7)           23.2052         estimate D2E/DX2                !
 ! D80   D(9,10,11,12)         121.1447         estimate D2E/DX2                !
 ! D81   D(9,10,11,31)        -102.4211         estimate D2E/DX2                !
 ! D82   D(29,10,11,7)         -95.2171         estimate D2E/DX2                !
 ! D83   D(29,10,11,12)          2.7224         estimate D2E/DX2                !
 ! D84   D(29,10,11,31)        139.1566         estimate D2E/DX2                !
 ! D85   D(30,10,11,7)         145.0966         estimate D2E/DX2                !
 ! D86   D(30,10,11,12)       -116.9639         estimate D2E/DX2                !
 ! D87   D(30,10,11,31)         19.4703         estimate D2E/DX2                !
 ! D88   D(7,11,12,13)        -100.8993         estimate D2E/DX2                !
 ! D89   D(7,11,12,14)           8.4906         estimate D2E/DX2                !
 ! D90   D(7,11,12,17)         122.5827         estimate D2E/DX2                !
 ! D91   D(10,11,12,13)        150.5759         estimate D2E/DX2                !
 ! D92   D(10,11,12,14)       -100.0342         estimate D2E/DX2                !
 ! D93   D(10,11,12,17)         14.058          estimate D2E/DX2                !
 ! D94   D(31,11,12,13)         14.2954         estimate D2E/DX2                !
 ! D95   D(31,11,12,14)        123.6853         estimate D2E/DX2                !
 ! D96   D(31,11,12,17)       -122.2226         estimate D2E/DX2                !
 ! D97   D(11,12,13,35)        162.1312         estimate D2E/DX2                !
 ! D98   D(11,12,13,36)        -79.0309         estimate D2E/DX2                !
 ! D99   D(11,12,13,37)         40.685          estimate D2E/DX2                !
 ! D100  D(14,12,13,35)         64.9763         estimate D2E/DX2                !
 ! D101  D(14,12,13,36)       -176.1858         estimate D2E/DX2                !
 ! D102  D(14,12,13,37)        -56.4699         estimate D2E/DX2                !
 ! D103  D(17,12,13,35)        -58.8655         estimate D2E/DX2                !
 ! D104  D(17,12,13,36)         59.9725         estimate D2E/DX2                !
 ! D105  D(17,12,13,37)        179.6884         estimate D2E/DX2                !
 ! D106  D(11,12,14,7)          -8.8405         estimate D2E/DX2                !
 ! D107  D(11,12,14,15)        150.2893         estimate D2E/DX2                !
 ! D108  D(13,12,14,7)         106.2277         estimate D2E/DX2                !
 ! D109  D(13,12,14,15)        -94.6424         estimate D2E/DX2                !
 ! D110  D(17,12,14,7)        -129.2049         estimate D2E/DX2                !
 ! D111  D(17,12,14,15)         29.925          estimate D2E/DX2                !
 ! D112  D(11,12,17,32)        -56.4386         estimate D2E/DX2                !
 ! D113  D(11,12,17,33)         63.5607         estimate D2E/DX2                !
 ! D114  D(11,12,17,34)       -177.6513         estimate D2E/DX2                !
 ! D115  D(13,12,17,32)        166.5028         estimate D2E/DX2                !
 ! D116  D(13,12,17,33)        -73.498          estimate D2E/DX2                !
 ! D117  D(13,12,17,34)         45.29           estimate D2E/DX2                !
 ! D118  D(14,12,17,32)         44.6013         estimate D2E/DX2                !
 ! D119  D(14,12,17,33)        164.6006         estimate D2E/DX2                !
 ! D120  D(14,12,17,34)        -76.6114         estimate D2E/DX2                !
 ! D121  D(7,14,15,16)         -53.1958         estimate D2E/DX2                !
 ! D122  D(7,14,15,18)        -171.7087         estimate D2E/DX2                !
 ! D123  D(7,14,15,19)          68.814          estimate D2E/DX2                !
 ! D124  D(12,14,15,16)        157.552          estimate D2E/DX2                !
 ! D125  D(12,14,15,18)         39.0391         estimate D2E/DX2                !
 ! D126  D(12,14,15,19)        -80.4382         estimate D2E/DX2                !
 ! D127  D(8,26,38,40)         173.0045         estimate D2E/DX2                !
 ! D128  D(39,26,38,40)         -6.187          estimate D2E/DX2                !
 ! D129  D(26,38,40,41)       -169.7083         estimate D2E/DX2                !
 ! D130  D(26,38,40,42)        -48.2496         estimate D2E/DX2                !
 ! D131  D(26,38,40,43)         68.4326         estimate D2E/DX2                !
 ! D132  D(38,40,41,44)        179.9855         estimate D2E/DX2                !
 ! D133  D(38,40,41,45)        -60.12           estimate D2E/DX2                !
 ! D134  D(38,40,41,46)         60.3914         estimate D2E/DX2                !
 ! D135  D(42,40,41,44)         61.3895         estimate D2E/DX2                !
 ! D136  D(42,40,41,45)       -178.716          estimate D2E/DX2                !
 ! D137  D(42,40,41,46)        -58.2046         estimate D2E/DX2                !
 ! D138  D(43,40,41,44)        -60.9416         estimate D2E/DX2                !
 ! D139  D(43,40,41,45)         58.9528         estimate D2E/DX2                !
 ! D140  D(43,40,41,46)        179.4643         estimate D2E/DX2                !
 --------------------------------------------------------------------------------
 Trust Radius=3.00D-01 FncErr=1.00D-07 GrdErr=1.00D-06 EigMax=2.50D+02 EigMin=1.00D-04
 Number of steps in this run=    276 maximum allowed number of steps=    276.
 GradGradGradGradGradGradGradGradGradGradGradGradGradGradGradGradGradGrad

 Leave Link  103 at Fri Jun  4 16:37:45 2021, MaxMem=  2147483648 cpu:               0.2 elap:               0.0
 (Enter /SFS/product/gaussian/g16.a03/x86_64/avx/g16/l202.exe)
                          Input orientation:                          
 ---------------------------------------------------------------------
 Center     Atomic      Atomic             Coordinates (Angstroms)
 Number     Number       Type             X           Y           Z
 ---------------------------------------------------------------------
      1          6           0       -2.800370    1.413758    0.757387
      2          6           0       -1.548668    0.794352    0.887360
      3          6           0       -1.354636   -0.149717    1.898818
      4          6           0       -2.401866   -0.479288    2.763140
      5          6           0       -3.650396    0.131879    2.626409
      6          6           0       -3.845879    1.082708    1.619738
      7          6           0       -0.469593    1.161128   -0.096646
      8          6           0       -0.774535    0.854738   -1.594417
      9          6           0       -0.889487    2.237801   -2.255762
     10          6           0        0.120932    3.119021   -1.504280
     11          6           0        0.064012    2.618928   -0.051078
     12          6           0        1.347661    2.079935    0.625928
     13          6           0        1.385521    2.278419    2.127523
     14          8           0        0.863411    0.659513    0.347422
     15         26           0        1.965095   -0.993655    0.024396
     16         17           0        0.773178   -2.760845    0.476870
     17          6           0        2.680297    2.352626   -0.034607
     18         17           0        3.619222   -0.752849    1.447798
     19         17           0        2.552334   -0.830975   -2.091428
     20          1           0       -0.394715   -0.646125    2.004925
     21          1           0       -2.237615   -1.223111    3.543434
     22          1           0       -4.466996   -0.128697    3.300567
     23          1           0       -4.815342    1.567768    1.502709
     24          1           0       -2.969685    2.147494   -0.030472
     25          1           0        0.092041    0.312175   -1.993916
     26          6           0       -1.999743   -0.013315   -1.812096
     27          1           0       -0.698948    2.189419   -3.334199
     28          1           0       -1.914666    2.609674   -2.129847
     29          1           0        1.120881    2.983584   -1.931156
     30          1           0       -0.119220    4.186340   -1.578217
     31          1           0       -0.516270    3.281008    0.599123
     32          1           0        2.714363    1.985963   -1.065059
     33          1           0        2.847819    3.438806   -0.042394
     34          1           0        3.493528    1.880759    0.527027
     35          1           0        2.134661    1.616430    2.578216
     36          1           0        1.667120    3.319775    2.339085
     37          1           0        0.408459    2.080599    2.582549
     38          8           0       -1.829826   -1.226819   -1.273035
     39          8           0       -3.006034    0.349547   -2.384927
     40          6           0       -2.994234   -2.097596   -1.277922
     41          6           0       -2.677303   -3.296713   -0.411615
     42          1           0       -3.846299   -1.520712   -0.896000
     43          1           0       -3.208228   -2.375305   -2.318817
     44          1           0       -3.545479   -3.971180   -0.399739
     45          1           0       -1.809602   -3.845753   -0.797926
     46          1           0       -2.459434   -2.984416    0.617761
 ---------------------------------------------------------------------
                    Distance matrix (angstroms):
                    1          2          3          4          5
     1  C    0.000000
     2  C    1.402610   0.000000
     3  C    2.416085   1.397126   0.000000
     4  C    2.786660   2.422531   1.397269   0.000000
     5  C    2.420537   2.807209   2.424706   1.396799   0.000000
     6  C    1.395110   2.428313   2.793394   2.415031   1.398455
     7  C    2.495138   1.505721   2.546270   3.821390   4.311831
     8  C    3.153965   2.600413   3.680780   4.839022   5.158340
     9  C    3.661910   3.520977   4.814264   5.904171   5.991087
    10  C    4.069037   3.729825   4.943989   6.125619   6.341019
    11  C    3.211033   2.609690   3.671519   4.857913   5.210679
    12  C    4.203241   3.179590   3.727466   5.017594   5.725157
    13  C    4.488496   3.514246   3.668325   4.727923   5.496997
    14  O    3.763011   2.475447   2.825140   4.218364   5.083958
    15  Fe   5.389116   4.035865   3.904651   5.180313   6.290551
    16  Cl   5.502385   4.266016   3.656162   4.529176   5.705820
    17  C    5.616622   4.600259   5.126455   6.455657   7.217368
    18  Cl   6.810434   5.423561   5.030552   6.169154   7.417494
    19  Cl   6.465757   5.322883   5.625886   6.945114   7.852320
    20  H    3.403916   2.157668   1.085877   2.152064   3.404555
    21  H    3.877090   3.405809   2.153274   1.090463   2.161685
    22  H    3.409483   3.897721   3.413521   2.162523   1.090516
    23  H    2.153912   3.412915   3.883702   3.406463   2.163695
    24  H    1.089843   2.166264   3.407011   3.876425   3.403687
    25  H    4.141159   3.350548   4.178468   5.429141   5.948592
    26  C    3.046274   2.853569   3.769039   4.616451   4.737728
    27  H    4.664622   4.526566   5.769398   6.870187   6.962282
    28  H    3.248201   3.540182   4.915080   5.806924   5.636861
    29  H    5.006878   4.456822   5.533034   6.814517   7.188095
    30  H    4.508971   4.430347   5.693629   6.769486   6.825448
    31  H    2.954451   2.707838   3.763235   4.730567   4.883610
    32  H    5.836181   4.837903   5.468313   6.848968   7.587801
    33  H    6.053306   5.214085   5.857169   7.126126   7.764346
    34  H    6.315402   5.170480   5.432250   6.732436   7.648636
    35  H    5.264126   4.135422   3.969389   5.000631   5.972696
    36  H    5.108144   4.338958   4.621928   5.582952   6.206546
    37  H    3.751330   2.891097   2.924090   3.805727   4.502637
    38  O    3.469469   2.971782   3.383283   4.144483   4.512893
    39  O    3.324001   3.609658   4.618100   5.249246   5.057279
    40  C    4.063210   3.891204   4.071141   4.393177   4.543667
    41  C    4.854920   4.438239   4.122030   4.253565   4.683134
    42  H    3.526864   3.717392   3.987357   4.069429   3.895741
    43  H    4.897589   4.804210   5.116394   5.483738   5.562081
    44  H    5.558029   5.324864   4.968575   4.848192   5.099380
    45  H    5.573426   4.943567   4.597837   4.936097   5.562027
    46  H    4.413578   3.896314   3.301091   3.298732   3.894143
                    6          7          8          9         10
     6  C    0.000000
     7  C    3.788328   0.000000
     8  C    4.451507   1.558904   0.000000
     9  C    5.009391   2.448942   1.537353   0.000000
    10  C    5.444414   2.482639   2.436588   1.536952   0.000000
    11  C    4.520934   1.553059   2.489462   2.432088   1.537898
    12  C    5.380983   2.160725   3.306774   3.651560   2.668773
    13  C    5.390280   3.104306   4.532720   4.938674   3.936469
    14  O    4.896457   1.491883   2.547885   3.512864   3.166900
    15  Fe   6.373682   3.253528   3.680039   4.877506   4.759400
    16  Cl   6.116758   4.153947   4.445007   5.934492   6.238846
    17  C    6.851315   3.368282   4.075848   4.205957   3.049205
    18  Cl   7.689380   4.771480   5.580727   6.556585   5.995346
    19  Cl   7.640161   4.132756   3.762540   4.614166   4.675353
    20  H    3.879145   2.772791   3.918178   5.168683   5.172691
    21  H    3.406453   4.696880   5.731978   6.886656   7.063729
    22  H    2.162978   5.402216   6.209854   7.019379   7.394816
    23  H    1.090338   4.648530   5.140887   5.476074   5.984578
    24  H    2.150506   2.688449   2.989285   3.047506   3.559198
    25  H    5.399947   2.153088   1.097692   2.177153   2.849379
    26  C    4.048082   2.581365   1.517246   2.548927   3.795200
    27  H    5.972393   3.404664   2.194067   1.096208   2.210196
    28  H    4.485599   2.884515   2.160182   1.097787   2.189618
    29  H    6.394598   3.035849   2.870188   2.168673   1.095657
    30  H    5.809254   3.386698   3.395478   2.202086   1.096499
    31  H    4.118310   2.231628   3.281022   3.062342   2.203763
    32  H    7.145683   3.428666   3.705712   3.803805   2.864022
    33  H    7.288311   4.024423   4.712497   4.506536   3.110512
    34  H    7.463096   4.075925   4.875408   5.204057   4.127215
    35  H    6.080329   3.760894   5.143390   5.735758   4.793710
    36  H    5.992920   3.893339   5.245048   5.368382   4.147584
    37  H    4.474615   2.965550   4.511015   5.011849   4.226484
    38  O    4.215035   2.989384   2.355802   3.722040   4.769199
    39  O    4.156947   3.511186   2.420684   2.839359   4.268892
    40  C    4.385894   4.288182   3.707224   4.917499   6.080180
    41  C    4.967021   4.984530   4.717424   6.101476   7.084185
    42  H    3.620322   4.385587   3.945413   4.971731   6.134823
    43  H    5.279836   4.994449   4.108624   5.163456   6.475677
    44  H    5.450717   5.991121   5.691649   7.003610   8.058134
    45  H    5.855019   5.230323   4.878563   6.323095   7.261816
    46  H    4.412220   4.653534   4.740435   6.163880   6.957966
                   11         12         13         14         15
    11  C    0.000000
    12  C    1.548097   0.000000
    13  C    2.570726   1.515129   0.000000
    14  O    2.153404   1.526323   2.462157   0.000000
    15  Fe   4.082961   3.192181   3.932622   2.012714   0.000000
    16  Cl   5.451936   4.877028   5.337958   3.423996   2.179073
    17  C    2.629855   1.512146   2.521261   2.512698   3.422366
    18  Cl   5.123966   3.722919   3.826229   3.286349   2.195495
    19  Cl   4.717691   4.160367   5.369295   3.319940   2.201823
    20  H    3.885634   3.516946   3.425964   2.456601   3.100319
    21  H    5.742758   5.681211   5.233797   4.834783   5.486260
    22  H    6.270008   6.770671   6.436008   6.144557   7.270024
    23  H    5.227551   6.246092   6.272649   5.865821   7.397339
    24  H    3.070178   4.367482   4.862294   4.129106   5.849947
    25  H    3.016043   3.400756   4.746100   2.489482   3.047475
    26  C    3.780076   4.640126   5.677381   3.648817   4.478137
    27  H    3.397862   4.459058   5.846652   4.282045   5.339405
    28  H    2.869936   4.303219   5.396866   4.202107   5.716405
    29  H    2.187382   2.721523   4.127974   3.264891   4.511686
    30  H    2.196021   3.383332   4.431356   4.136684   5.809052
    31  H    1.094458   2.217551   2.637802   2.973064   4.975965
    32  H    2.907432   2.176268   3.470437   2.679663   3.259822
    33  H    2.902044   2.131586   2.862403   3.437194   4.519997
    34  H    3.555373   2.157359   2.676456   2.905377   3.294086
    35  H    3.493677   2.155373   1.096615   2.740111   3.655584
    36  H    2.962097   2.138730   1.099308   3.419015   4.904310
    37  H    2.710061   2.170361   1.095825   2.687426   4.291655
    38  O    4.457530   4.963578   5.847131   3.665741   4.017352
    39  O    4.474609   5.569035   6.585477   4.747043   5.685170
    40  C    5.753574   6.318897   7.066033   5.012466   5.244965
    41  C    6.529901   6.795968   7.350909   5.363256   5.200581
    42  H    5.756826   6.500626   7.137719   5.336745   5.907387
    43  H    6.386905   7.019744   7.907567   5.735608   5.844902
    44  H    7.521935   7.849255   8.352203   6.437381   6.277895
    45  H    6.772024   6.863632   7.501503   5.362298   4.801980
    46  H    6.181633   6.335747   6.690328   4.938887   4.887910
                   16         17         18         19         20
    16  Cl   0.000000
    17  C    5.481450   0.000000
    18  Cl   3.615898   3.566943   0.000000
    19  Cl   3.672322   3.792387   3.697360   0.000000
    20  H    2.858490   4.754776   4.053822   5.049691   0.000000
    21  H    4.564353   7.055078   6.238219   7.406015   2.469049
    22  H    6.508525   8.268261   8.319209   8.879065   4.304636
    23  H    7.142884   7.691810   8.748151   8.541337   4.969455
    24  H    6.193401   5.653706   7.349215   6.603901   4.310176
    25  H    4.001523   3.834241   5.041892   2.714653   4.140773
    26  C    4.525194   5.537140   6.538087   4.633357   4.188820
    27  H    6.418451   4.725806   7.083151   4.608481   6.053025
    28  H    6.546904   5.056658   7.397974   5.638584   5.477848
    29  H    6.238425   2.535110   5.623164   4.077451   5.564580
    30  H    7.299530   3.685449   6.894077   5.707367   6.022252
    31  H    6.179127   3.388443   5.839053   5.793427   4.172940
    32  H    5.355178   1.094273   3.825482   3.002470   5.100888
    33  H    6.558158   1.099050   4.515053   4.745196   5.602875
    34  H    5.380270   1.095188   2.792760   3.885313   4.867007
    35  H    5.042800   2.768853   3.015833   5.288650   3.441738
    36  H    6.421909   2.756142   4.603408   6.135289   4.482320
    37  H    5.292115   3.476313   4.430021   5.909274   2.900649
    38  O    3.491566   5.889596   6.108986   4.475465   3.625158
    39  O    5.669820   6.470757   7.732986   5.689923   5.203955
    40  C    4.208632   7.317828   7.278440   5.747220   4.431856
    41  C    3.603107   7.794937   7.040944   6.020859   4.251528
    42  H    4.976170   7.638141   7.862379   6.545784   4.592788
    43  H    4.880174   7.889593   7.964535   5.968311   5.440649
    44  H    4.569918   8.881674   8.068704   7.064419   5.173559
    45  H    3.077805   7.691668   6.639387   5.457886   4.482800
    46  H    3.243396   7.438174   6.528316   6.090553   3.413926
                   21         22         23         24         25
    21  H    0.000000
    22  H    2.495369   0.000000
    23  H    4.312568   2.496324   0.000000
    24  H    4.966861   4.303348   2.468436   0.000000
    25  H    6.200536   7.000767   6.155104   4.074024   0.000000
    26  C    5.495625   5.678025   4.627673   2.963793   2.124750
    27  H    7.830370   7.974457   6.381757   4.009067   2.438456
    28  H    6.854244   6.595639   4.763922   2.394588   3.053498
    29  H    7.677689   8.263267   7.002479   4.587415   2.863368
    30  H    7.744744   7.831043   6.196982   3.831130   3.902127
    31  H    5.649698   5.876404   4.715260   2.774975   3.988466
    32  H    7.487219   8.666164   7.966478   5.779694   3.246677
    33  H    7.775170   8.798238   8.038169   5.959109   4.602018
    34  H    7.181833   8.666048   8.371812   6.492694   4.515055
    35  H    5.302022   6.866523   7.032896   5.756877   5.174724
    36  H    6.110256   7.102379   6.766932   5.337509   5.504673
    37  H    4.340450   5.400611   5.358838   4.271324   4.916450
    38  O    4.833702   5.392437   4.942446   3.772165   2.565491
    39  O    6.181358   5.889649   4.457732   2.962667   3.122876
    40  C    4.958091   5.196937   4.948054   4.424650   3.980545
    41  C    4.487267   5.198040   5.647922   5.465359   4.816328
    42  H    4.731279   4.464767   4.028841   3.869538   4.480560
    43  H    6.052737   6.181361   5.721425   5.074361   4.268476
    44  H    4.981065   5.413514   5.992646   6.156790   5.841240
    45  H    5.090074   6.138069   6.605574   6.152543   4.725992
    46  H    3.422128   4.402600   5.201520   5.197794   4.919186
                   26         27         28         29         30
    26  C    0.000000
    27  H    2.976727   0.000000
    28  H    2.643535   1.762115   0.000000
    29  H    4.328264   2.431256   3.064936   0.000000
    30  H    4.607404   2.721627   2.452305   1.763247   0.000000
    31  H    4.343643   4.086069   3.139025   3.028372   2.391252
    32  H    5.174744   4.103789   4.790689   2.069917   3.624111
    33  H    6.208691   4.997650   5.265566   2.599416   3.423577
    34  H    6.263788   5.707994   6.069502   3.590033   4.774904
    35  H    6.246936   6.581361   6.288835   4.819885   5.381482
    36  H    6.464339   6.249971   5.771030   4.318143   4.391720
    37  H    5.431097   6.020473   5.280484   4.657946   4.693034
    38  O    1.338675   4.147043   3.931921   5.183367   5.685209
    39  O    1.213436   3.099821   2.522761   4.916857   4.868825
    40  C    2.370355   5.279688   4.904043   6.571094   6.916917
    41  C    3.633337   6.523268   6.198334   7.495154   7.993800
    42  H    2.553673   5.442031   4.723735   6.784770   6.850327
    43  H    2.701148   5.306995   5.153545   6.899939   7.290106
    44  H    4.477583   7.393698   6.997175   8.514041   8.925984
    45  H    3.968914   6.639995   6.592237   7.517432   8.245045
    46  H    3.865613   6.744321   6.256194   7.411657   7.856123
                   31         32         33         34         35
    31  H    0.000000
    32  H    3.857931   0.000000
    33  H    3.428343   1.781687   0.000000
    34  H    4.247867   1.775642   1.780082   0.000000
    35  H    3.703386   3.707568   3.270664   2.474624   0.000000
    36  H    2.792161   3.803152   2.660763   2.947895   1.782460
    37  H    2.496014   4.316387   3.832170   3.712514   1.787525
    38  O    5.054791   5.569100   6.720335   6.421477   6.215574
    39  O    4.867951   6.094493   7.021295   7.284806   7.257033
    40  C    6.212325   7.022026   8.142964   7.821522   7.414132
    41  C    6.997004   7.576524   8.719548   8.109650   7.498871
    42  H    6.031667   7.440943   8.374764   8.213895   7.594980
    43  H    6.910491   7.461210   8.698373   8.433649   8.274137
    44  H    7.922630   8.666939   9.793357   9.200636   8.506091
    45  H    7.376664   7.385562   8.679124   7.916541   7.535980
    46  H    6.559861   7.369174   8.358261   7.688688   6.790941
                   36         37         38         39         40
    36  H    0.000000
    37  H    1.782992   0.000000
    38  O    6.778463   5.551078   0.000000
    39  O    7.278524   6.271453   2.259358   0.000000
    40  C    8.009923   6.628640   1.454002   2.685909   0.000000
    41  C    8.379635   6.884942   2.396815   4.158995   1.512883
    42  H    8.018346   6.570594   2.072364   2.533933   1.097577
    43  H    8.826041   7.547112   2.076697   2.733143   1.098352
    44  H    9.371786   7.819955   3.352257   4.785463   2.141353
    45  H    8.559978   7.174194   2.661757   4.642258   2.165595
    46  H    7.728792   6.143255   2.657191   4.519980   2.160110
                   41         42         43         44         45
    41  C    0.000000
    42  H    2.180679   0.000000
    43  H    2.183642   1.778165   0.000000
    44  H    1.099444   2.518246   2.518614   0.000000
    45  H    1.097081   3.092502   2.536037   1.785372   0.000000
    46  H    1.097548   2.521368   3.091148   1.785638   1.779987
                   46
    46  H    0.000000
 Stoichiometry    C17H22Cl3FeO3(6)
 Framework group  C1[X(C17H22Cl3FeO3)]
 Deg. of freedom   132
 Full point group                 C1      NOp   1
 Largest Abelian subgroup         C1      NOp   1
 Largest concise Abelian subgroup C1      NOp   1
                         Standard orientation:                         
 ---------------------------------------------------------------------
 Center     Atomic      Atomic             Coordinates (Angstroms)
 Number     Number       Type             X           Y           Z
 ---------------------------------------------------------------------
      1          6           0       -2.800370    1.413758    0.757387
      2          6           0       -1.548668    0.794352    0.887360
      3          6           0       -1.354636   -0.149717    1.898818
      4          6           0       -2.401866   -0.479288    2.763140
      5          6           0       -3.650396    0.131879    2.626409
      6          6           0       -3.845879    1.082708    1.619738
      7          6           0       -0.469593    1.161128   -0.096646
      8          6           0       -0.774535    0.854738   -1.594417
      9          6           0       -0.889487    2.237801   -2.255762
     10          6           0        0.120932    3.119021   -1.504280
     11          6           0        0.064012    2.618928   -0.051078
     12          6           0        1.347661    2.079935    0.625928
     13          6           0        1.385521    2.278419    2.127523
     14          8           0        0.863411    0.659513    0.347422
     15         26           0        1.965095   -0.993655    0.024396
     16         17           0        0.773178   -2.760845    0.476870
     17          6           0        2.680297    2.352626   -0.034607
     18         17           0        3.619222   -0.752849    1.447798
     19         17           0        2.552334   -0.830975   -2.091428
     20          1           0       -0.394715   -0.646125    2.004925
     21          1           0       -2.237615   -1.223111    3.543434
     22          1           0       -4.466996   -0.128697    3.300567
     23          1           0       -4.815342    1.567768    1.502709
     24          1           0       -2.969685    2.147494   -0.030472
     25          1           0        0.092041    0.312175   -1.993916
     26          6           0       -1.999743   -0.013315   -1.812096
     27          1           0       -0.698948    2.189419   -3.334199
     28          1           0       -1.914666    2.609674   -2.129847
     29          1           0        1.120881    2.983584   -1.931156
     30          1           0       -0.119220    4.186340   -1.578217
     31          1           0       -0.516270    3.281008    0.599123
     32          1           0        2.714363    1.985963   -1.065059
     33          1           0        2.847819    3.438806   -0.042394
     34          1           0        3.493528    1.880759    0.527027
     35          1           0        2.134661    1.616430    2.578216
     36          1           0        1.667120    3.319775    2.339085
     37          1           0        0.408459    2.080599    2.582549
     38          8           0       -1.829826   -1.226819   -1.273035
     39          8           0       -3.006034    0.349547   -2.384927
     40          6           0       -2.994234   -2.097596   -1.277922
     41          6           0       -2.677303   -3.296713   -0.411615
     42          1           0       -3.846299   -1.520712   -0.896000
     43          1           0       -3.208228   -2.375305   -2.318817
     44          1           0       -3.545479   -3.971180   -0.399739
     45          1           0       -1.809602   -3.845753   -0.797926
     46          1           0       -2.459434   -2.984416    0.617761
 ---------------------------------------------------------------------
 Rotational constants (GHZ):           0.2324200           0.1595934           0.1461502
 Leave Link  202 at Fri Jun  4 16:37:45 2021, MaxMem=  2147483648 cpu:               0.2 elap:               0.0
 (Enter /SFS/product/gaussian/g16.a03/x86_64/avx/g16/l301.exe)
 Standard basis: Jul-CC-pVDZ (5D, 7F)
 Ernie: Thresh=  0.10000D-02 Tol=  0.10000D-05 Strict=F.
 Ernie:  134 primitive shells out of 958 were deleted.
 There are   766 symmetry adapted cartesian basis functions of A   symmetry.
 There are   710 symmetry adapted basis functions of A   symmetry.
   710 basis functions,  1571 primitive gaussians,   766 cartesian basis functions
   115 alpha electrons      110 beta electrons
       nuclear repulsion energy      3416.2914832295 Hartrees.
 IExCor=  402 DFT=T Ex+Corr=B3LYP ExCW=0 ScaHFX=  0.200000
 ScaDFX=  0.800000  0.720000  1.000000  0.810000 ScalE2=  1.000000  1.000000
 IRadAn=      5 IRanWt=     -1 IRanGd=            0 ICorTp=0 IEmpDi=141
 NAtoms=   46 NActive=   46 NUniq=   46 SFac= 1.00D+00 NAtFMM=   60 NAOKFM=F Big=F
 Integral buffers will be    131072 words long.
 Raffenetti 2 integral format.
 Two-electron integral symmetry is turned on.
 R6Disp:  Grimme-D3(BJ) Dispersion energy=       -0.1241795002 Hartrees.
 Nuclear repulsion after empirical dispersion term =     3416.1673037292 Hartrees.
 Leave Link  301 at Fri Jun  4 16:37:45 2021, MaxMem=  2147483648 cpu:               1.0 elap:               0.1
 (Enter /SFS/product/gaussian/g16.a03/x86_64/avx/g16/l302.exe)
 NPDir=0 NMtPBC=     1 NCelOv=     1 NCel=       1 NClECP=     1 NCelD=      1
         NCelK=      1 NCelE2=     1 NClLst=     1 CellRange=     0.0.
 One-electron integrals computed using PRISM.
 One-electron integral symmetry used in STVInt
 NBasis=   710 RedAO= T EigKep=  1.65D-06  NBF=   710
 NBsUse=   710 1.00D-06 EigRej= -1.00D+00 NBFU=   710
 Precomputing XC quadrature grid using
 IXCGrd= 4 IRadAn=           5 IRanWt=          -1 IRanGd=           0 AccXCQ= 0.00D+00.
 Generated NRdTot=       0 NPtTot=           0 NUsed=           0 NTot=          32
 NSgBfM=   765   764   765   765   765 MxSgAt=    46 MxSgA2=    46.
 Leave Link  302 at Fri Jun  4 16:37:46 2021, MaxMem=  2147483648 cpu:              21.2 elap:               1.4
 (Enter /SFS/product/gaussian/g16.a03/x86_64/avx/g16/l303.exe)
 DipDrv:  MaxL=1.
 Leave Link  303 at Fri Jun  4 16:37:47 2021, MaxMem=  2147483648 cpu:               2.5 elap:               0.2
 (Enter /SFS/product/gaussian/g16.a03/x86_64/avx/g16/l401.exe)
 ExpMin= 1.40D-02 ExpMax= 4.32D+06 ExpMxC= 4.91D+03 IAcc=3 IRadAn=         5 AccDes= 0.00D+00
 Harris functional with IExCor=  402 and IRadAn=       5 diagonalized for initial guess.
 HarFok:  IExCor=  402 AccDes= 0.00D+00 IRadAn=         5 IDoV= 1 UseB2=F ITyADJ=14
 ICtDFT=  3500011 ScaDFX=  1.000000  1.000000  1.000000  1.000000
 FoFCou: FMM=F IPFlag=           0 FMFlag=      100000 FMFlg1=           0
         NFxFlg=           0 DoJE=T BraDBF=F KetDBF=T FulRan=T
         wScrn=  0.000000 ICntrl=       500 IOpCl=  0 I1Cent=   200000004 NGrid=           0
         NMat0=    1 NMatS0=      1 NMatT0=    0 NMatD0=    1 NMtDS0=    0 NMtDT0=    0
 Petite list used in FoFCou.
 Harris En= -3531.21097780893    
 JPrj=0 DoOrth=F DoCkMO=F.
 Initial guess <Sx>= 0.0000 <Sy>= 0.0000 <Sz>= 2.5000 <S**2>= 8.7500 S= 2.5000
 Leave Link  401 at Fri Jun  4 16:37:54 2021, MaxMem=  2147483648 cpu:             117.8 elap:               7.4
 (Enter /SFS/product/gaussian/g16.a03/x86_64/avx/g16/l502.exe)
 Integral symmetry usage will be decided dynamically.
 UHF open shell SCF:
 Using DIIS extrapolation, IDIIS=  1040.
 NGot=  2147483648 LenX=  2146290678 LenY=  2145703156
 Requested convergence on RMS density matrix=1.00D-08 within 128 cycles.
 Requested convergence on MAX density matrix=1.00D-06.
 Requested convergence on             energy=1.00D-06.
 No special actions if energy rises.
 Fock matrices will be formed incrementally for  20 cycles.

 Cycle   1  Pass 1  IDiag  1:
 FoFJK:  IHMeth= 1 ICntrl=       0 DoSepK=F KAlg= 0 I1Cent=           0 FoldK=F
 IRaf= 930000000 NMat=       1 IRICut=       1 DoRegI=T DoRafI=F ISym2E= 0 IDoP0=0 IntGTp=1.
 FoFCou: FMM=F IPFlag=           0 FMFlag=      100000 FMFlg1=           0
         NFxFlg=           0 DoJE=F BraDBF=F KetDBF=F FulRan=T
         wScrn=  0.000000 ICntrl=         0 IOpCl=  1 I1Cent=           0 NGrid=           0
         NMat0=    1 NMatS0=      1 NMatT0=    0 NMatD0=    1 NMtDS0=    0 NMtDT0=    0
 Symmetry not used in FoFCou.
 E= -3530.97194667882    
 DIIS: error= 1.22D-02 at cycle   1 NSaved=   1.
 NSaved= 1 IEnMin= 1 EnMin= -3530.97194667882     IErMin= 1 ErrMin= 1.22D-02
 ErrMax= 1.22D-02  0.00D+00 EMaxC= 1.00D-01 BMatC= 2.57D+00 BMatP= 2.57D+00
 IDIUse=3 WtCom= 8.78D-01 WtEn= 1.22D-01
 Coeff-Com:  0.100D+01
 Coeff-En:   0.100D+01
 Coeff:      0.100D+01
 Gap=     0.511 Goal=   None    Shift=    0.000
 Gap=     0.044 Goal=   None    Shift=    0.000
 GapD=    0.044 DampG=0.250 DampE=0.250 DampFc=0.1250 IDamp=-1.
 Damping current iteration by 1.25D-01
 RMSDP=3.16D-02 MaxDP=8.60D+00              OVMax= 9.38D-01

 Cycle   2  Pass 1  IDiag  1:
 RMSU=  1.67D-03    CP:  9.50D-01
 E= -3531.02440870125     Delta-E=       -0.052462022427 Rises=F Damp=T
 DIIS: error= 7.91D-03 at cycle   2 NSaved=   2.
 NSaved= 2 IEnMin= 2 EnMin= -3531.02440870125     IErMin= 2 ErrMin= 7.91D-03
 ErrMax= 7.91D-03  0.00D+00 EMaxC= 1.00D-01 BMatC= 1.14D+00 BMatP= 2.57D+00
 IDIUse=3 WtCom= 9.21D-01 WtEn= 7.91D-02
 Coeff-Com: -0.372D+00 0.137D+01
 Coeff-En:   0.321D+00 0.679D+00
 Coeff:     -0.317D+00 0.132D+01
 Gap=     0.359 Goal=   None    Shift=    0.000
 Gap=     0.022 Goal=   None    Shift=    0.000
 RMSDP=2.78D-02 MaxDP=8.14D+00 DE=-5.25D-02 OVMax= 9.80D-01

 Cycle   3  Pass 1  IDiag  1:
 RMSU=  1.05D-02    CP:  5.96D-01  3.00D+00
 E= -3528.88296961393     Delta-E=        2.141439087316 Rises=F Damp=F
 DIIS: error= 5.30D-02 at cycle   3 NSaved=   3.
 NSaved= 3 IEnMin= 2 EnMin= -3531.02440870125     IErMin= 2 ErrMin= 7.91D-03
 ErrMax= 5.30D-02  0.00D+00 EMaxC= 1.00D-01 BMatC= 1.13D+01 BMatP= 1.14D+00
 IDIUse=2 WtCom= 0.00D+00 WtEn= 1.00D+00
 Coeff-En:   0.000D+00 0.870D+00 0.130D+00
 Coeff:      0.000D+00 0.870D+00 0.130D+00
 Gap=     0.070 Goal=   None    Shift=    0.000
 Gap=     0.277 Goal=   None    Shift=    0.000
 RMSDP=9.56D-03 MaxDP=3.27D+00 DE= 2.14D+00 OVMax= 6.65D-01

 Cycle   4  Pass 1  IDiag  1:
 RMSU=  5.43D-03    CP:  6.00D-01  3.00D+00  2.51D-01
 E= -3531.37123260383     Delta-E=       -2.488262989906 Rises=F Damp=F
 DIIS: error= 8.24D-03 at cycle   4 NSaved=   4.
 NSaved= 4 IEnMin= 4 EnMin= -3531.37123260383     IErMin= 2 ErrMin= 7.91D-03
 ErrMax= 8.24D-03  0.00D+00 EMaxC= 1.00D-01 BMatC= 9.25D-01 BMatP= 1.14D+00
 IDIUse=3 WtCom= 9.18D-01 WtEn= 8.24D-02
 EnCoef did   100 forward-backward iterations
 Coeff-Com:  0.600D+00-0.318D+00-0.167D-01 0.735D+00
 Coeff-En:   0.219D+00 0.210D-02 0.000D+00 0.779D+00
 Coeff:      0.568D+00-0.291D+00-0.153D-01 0.738D+00
 Gap=     0.229 Goal=   None    Shift=    0.000
 Gap=     0.110 Goal=   None    Shift=    0.000
 RMSDP=4.21D-03 MaxDP=3.43D-01 DE=-2.49D+00 OVMax= 1.23D-01

 Cycle   5  Pass 1  IDiag  1:
 RMSU=  3.22D-03    CP:  6.29D-01  3.00D+00  1.94D-01  6.98D-01
 E= -3531.51809120607     Delta-E=       -0.146858602238 Rises=F Damp=F
 DIIS: error= 6.67D-03 at cycle   5 NSaved=   5.
 NSaved= 5 IEnMin= 5 EnMin= -3531.51809120607     IErMin= 5 ErrMin= 6.67D-03
 ErrMax= 6.67D-03  0.00D+00 EMaxC= 1.00D-01 BMatC= 2.52D-01 BMatP= 9.25D-01
 IDIUse=3 WtCom= 9.33D-01 WtEn= 6.67D-02
 Coeff-Com:  0.269D+00-0.107D+00-0.352D-01 0.449D+00 0.425D+00
 Coeff-En:   0.000D+00 0.000D+00 0.000D+00 0.175D+00 0.825D+00
 Coeff:      0.251D+00-0.100D+00-0.328D-01 0.431D+00 0.452D+00
 Gap=     0.254 Goal=   None    Shift=    0.000
 Gap=     0.123 Goal=   None    Shift=    0.000
 RMSDP=1.34D-03 MaxDP=2.06D-01 DE=-1.47D-01 OVMax= 5.74D-02

 Cycle   6  Pass 1  IDiag  1:
 RMSU=  1.15D-03    CP:  6.35D-01  3.00D+00  1.72D-01  7.23D-01  8.59D-01
 E= -3531.56417513828     Delta-E=       -0.046083932210 Rises=F Damp=F
 DIIS: error= 8.89D-04 at cycle   6 NSaved=   6.
 NSaved= 6 IEnMin= 6 EnMin= -3531.56417513828     IErMin= 6 ErrMin= 8.89D-04
 ErrMax= 8.89D-04  0.00D+00 EMaxC= 1.00D-01 BMatC= 1.03D-02 BMatP= 2.52D-01
 IDIUse=3 WtCom= 9.91D-01 WtEn= 8.89D-03
 Coeff-Com: -0.184D-01 0.469D-01-0.917D-02 0.866D-01 0.179D+00 0.715D+00
 Coeff-En:   0.000D+00 0.000D+00 0.000D+00 0.000D+00 0.000D+00 0.100D+01
 Coeff:     -0.183D-01 0.465D-01-0.909D-02 0.858D-01 0.178D+00 0.717D+00
 Gap=     0.228 Goal=   None    Shift=    0.000
 Gap=     0.126 Goal=   None    Shift=    0.000
 RMSDP=4.37D-04 MaxDP=3.06D-02 DE=-4.61D-02 OVMax= 1.79D-02

 Cycle   7  Pass 1  IDiag  1:
 RMSU=  4.09D-04    CP:  6.34D-01  3.00D+00  1.76D-01  7.32D-01  8.68D-01
                    CP:  9.15D-01
 E= -3531.56483903722     Delta-E=       -0.000663898941 Rises=F Damp=F
 DIIS: error= 1.40D-03 at cycle   7 NSaved=   7.
 NSaved= 7 IEnMin= 7 EnMin= -3531.56483903722     IErMin= 6 ErrMin= 8.89D-04
 ErrMax= 1.40D-03  0.00D+00 EMaxC= 1.00D-01 BMatC= 1.02D-02 BMatP= 1.03D-02
 IDIUse=3 WtCom= 9.91D-01 WtEn= 8.89D-03
 Coeff-Com: -0.741D-01 0.841D-01-0.257D-02 0.261D-02 0.445D-01 0.467D+00
 Coeff-Com:  0.479D+00
 Coeff-En:   0.000D+00 0.000D+00 0.000D+00 0.000D+00 0.000D+00 0.405D+00
 Coeff-En:   0.595D+00
 Coeff:     -0.735D-01 0.834D-01-0.254D-02 0.259D-02 0.441D-01 0.466D+00
 Coeff:      0.480D+00
 Gap=     0.227 Goal=   None    Shift=    0.000
 Gap=     0.122 Goal=   None    Shift=    0.000
 RMSDP=2.27D-04 MaxDP=2.91D-02 DE=-6.64D-04 OVMax= 1.13D-02

 Cycle   8  Pass 1  IDiag  1:
 RMSU=  1.92D-04    CP:  6.33D-01  3.00D+00  1.75D-01  7.38D-01  8.52D-01
                    CP:  9.54D-01  8.19D-01
 E= -3531.56613968616     Delta-E=       -0.001300648940 Rises=F Damp=F
 DIIS: error= 7.92D-04 at cycle   8 NSaved=   8.
 NSaved= 8 IEnMin= 8 EnMin= -3531.56613968616     IErMin= 8 ErrMin= 7.92D-04
 ErrMax= 7.92D-04  0.00D+00 EMaxC= 1.00D-01 BMatC= 3.28D-03 BMatP= 1.02D-02
 IDIUse=3 WtCom= 9.92D-01 WtEn= 7.92D-03
 Coeff-Com: -0.738D-01 0.842D-01-0.806D-03-0.135D-01-0.284D-02 0.173D+00
 Coeff-Com:  0.277D+00 0.556D+00
 Coeff-En:   0.000D+00 0.000D+00 0.000D+00 0.000D+00 0.000D+00 0.000D+00
 Coeff-En:   0.000D+00 0.100D+01
 Coeff:     -0.732D-01 0.835D-01-0.800D-03-0.134D-01-0.282D-02 0.172D+00
 Coeff:      0.275D+00 0.560D+00
 Gap=     0.227 Goal=   None    Shift=    0.000
 Gap=     0.121 Goal=   None    Shift=    0.000
 RMSDP=8.37D-05 MaxDP=8.03D-03 DE=-1.30D-03 OVMax= 2.73D-03

 Cycle   9  Pass 1  IDiag  1:
 RMSU=  7.02D-05    CP:  6.33D-01  3.00D+00  1.74D-01  7.39D-01  8.53D-01
                    CP:  9.75D-01  8.69D-01  8.42D-01
 E= -3531.56647267093     Delta-E=       -0.000332984768 Rises=F Damp=F
 DIIS: error= 5.64D-04 at cycle   9 NSaved=   9.
 NSaved= 9 IEnMin= 9 EnMin= -3531.56647267093     IErMin= 9 ErrMin= 5.64D-04
 ErrMax= 5.64D-04  0.00D+00 EMaxC= 1.00D-01 BMatC= 1.52D-03 BMatP= 3.28D-03
 IDIUse=3 WtCom= 9.94D-01 WtEn= 5.64D-03
 Coeff-Com: -0.523D-01 0.620D-01-0.786D-03-0.102D-01-0.598D-02-0.725D-02
 Coeff-Com:  0.239D-01 0.241D+00 0.750D+00
 Coeff-En:   0.000D+00 0.000D+00 0.000D+00 0.000D+00 0.000D+00 0.000D+00
 Coeff-En:   0.000D+00 0.000D+00 0.100D+01
 Coeff:     -0.520D-01 0.616D-01-0.781D-03-0.101D-01-0.595D-02-0.721D-02
 Coeff:      0.237D-01 0.239D+00 0.751D+00
 Gap=     0.227 Goal=   None    Shift=    0.000
 Gap=     0.119 Goal=   None    Shift=    0.000
 RMSDP=6.18D-05 MaxDP=7.95D-03 DE=-3.33D-04 OVMax= 1.69D-03

 Cycle  10  Pass 1  IDiag  1:
 RMSU=  5.08D-05    CP:  6.33D-01  3.00D+00  1.73D-01  7.41D-01  8.56D-01
                    CP:  9.68D-01  8.77D-01  9.19D-01  1.01D+00
 E= -3531.56664908272     Delta-E=       -0.000176411792 Rises=F Damp=F
 DIIS: error= 3.34D-04 at cycle  10 NSaved=  10.
 NSaved=10 IEnMin=10 EnMin= -3531.56664908272     IErMin=10 ErrMin= 3.34D-04
 ErrMax= 3.34D-04  0.00D+00 EMaxC= 1.00D-01 BMatC= 6.06D-04 BMatP= 1.52D-03
 IDIUse=3 WtCom= 9.97D-01 WtEn= 3.34D-03
 Coeff-Com: -0.235D-01 0.302D-01-0.206D-03-0.126D-02 0.581D-02-0.691D-01
 Coeff-Com: -0.106D+00-0.145D+00 0.384D+00 0.925D+00
 Coeff-En:   0.000D+00 0.000D+00 0.000D+00 0.000D+00 0.000D+00 0.000D+00
 Coeff-En:   0.000D+00 0.000D+00 0.000D+00 0.100D+01
 Coeff:     -0.234D-01 0.301D-01-0.205D-03-0.126D-02 0.580D-02-0.688D-01
 Coeff:     -0.105D+00-0.144D+00 0.382D+00 0.925D+00
 Gap=     0.227 Goal=   None    Shift=    0.000
 Gap=     0.117 Goal=   None    Shift=    0.000
 RMSDP=6.77D-05 MaxDP=7.42D-03 DE=-1.76D-04 OVMax= 1.80D-03

 Cycle  11  Pass 1  IDiag  1:
 RMSU=  3.58D-05    CP:  6.33D-01  3.00D+00  1.71D-01  7.42D-01  8.58D-01
                    CP:  9.56D-01  8.40D-01  1.05D+00  1.04D+00  1.85D+00
 E= -3531.56675705354     Delta-E=       -0.000107970820 Rises=F Damp=F
 DIIS: error= 1.31D-04 at cycle  11 NSaved=  11.
 NSaved=11 IEnMin=11 EnMin= -3531.56675705354     IErMin=11 ErrMin= 1.31D-04
 ErrMax= 1.31D-04  0.00D+00 EMaxC= 1.00D-01 BMatC= 1.06D-04 BMatP= 6.06D-04
 IDIUse=3 WtCom= 9.99D-01 WtEn= 1.31D-03
 Coeff-Com: -0.584D-02 0.787D-02-0.189D-04 0.148D-02 0.110D-01-0.219D-01
 Coeff-Com: -0.533D-01-0.182D+00-0.128D+00 0.640D+00 0.731D+00
 Coeff-En:   0.000D+00 0.000D+00 0.000D+00 0.000D+00 0.000D+00 0.000D+00
 Coeff-En:   0.000D+00 0.000D+00 0.000D+00 0.000D+00 0.100D+01
 Coeff:     -0.583D-02 0.786D-02-0.188D-04 0.148D-02 0.110D-01-0.219D-01
 Coeff:     -0.532D-01-0.182D+00-0.128D+00 0.639D+00 0.732D+00
 Gap=     0.227 Goal=   None    Shift=    0.000
 Gap=     0.116 Goal=   None    Shift=    0.000
 RMSDP=4.04D-05 MaxDP=4.91D-03 DE=-1.08D-04 OVMax= 1.13D-03

 Cycle  12  Pass 1  IDiag  1:
 RMSU=  1.80D-05    CP:  6.33D-01  3.00D+00  1.70D-01  7.43D-01  8.59D-01
                    CP:  9.48D-01  8.28D-01  1.02D+00  1.13D+00  2.38D+00
                    CP:  1.13D+00
 E= -3531.56677945435     Delta-E=       -0.000022400806 Rises=F Damp=F
 DIIS: error= 2.87D-05 at cycle  12 NSaved=  12.
 NSaved=12 IEnMin=12 EnMin= -3531.56677945435     IErMin=12 ErrMin= 2.87D-05
 ErrMax= 2.87D-05  0.00D+00 EMaxC= 1.00D-01 BMatC= 9.11D-06 BMatP= 1.06D-04
 IDIUse=1 WtCom= 1.00D+00 WtEn= 0.00D+00
 Coeff-Com: -0.160D-02 0.195D-02 0.560D-04 0.597D-03 0.614D-02 0.205D-02
 Coeff-Com: -0.555D-02-0.698D-01-0.147D+00 0.177D+00 0.443D+00 0.594D+00
 Coeff:     -0.160D-02 0.195D-02 0.560D-04 0.597D-03 0.614D-02 0.205D-02
 Coeff:     -0.555D-02-0.698D-01-0.147D+00 0.177D+00 0.443D+00 0.594D+00
 Gap=     0.227 Goal=   None    Shift=    0.000
 Gap=     0.116 Goal=   None    Shift=    0.000
 RMSDP=1.22D-05 MaxDP=1.16D-03 DE=-2.24D-05 OVMax= 4.83D-04

 Cycle  13  Pass 1  IDiag  1:
 RMSU=  6.93D-06    CP:  6.33D-01  3.00D+00  1.70D-01  7.42D-01  8.60D-01
                    CP:  9.47D-01  8.16D-01  1.02D+00  1.13D+00  2.49D+00
                    CP:  1.23D+00  8.35D-01
 E= -3531.56678176587     Delta-E=       -0.000002311518 Rises=F Damp=F
 DIIS: error= 7.29D-06 at cycle  13 NSaved=  13.
 NSaved=13 IEnMin=13 EnMin= -3531.56678176587     IErMin=13 ErrMin= 7.29D-06
 ErrMax= 7.29D-06  0.00D+00 EMaxC= 1.00D-01 BMatC= 8.23D-07 BMatP= 9.11D-06
 IDIUse=1 WtCom= 1.00D+00 WtEn= 0.00D+00
 Coeff-Com: -0.226D-03 0.997D-04-0.442D-05-0.405D-04 0.205D-02 0.409D-02
 Coeff-Com:  0.570D-02-0.921D-02-0.583D-01-0.455D-02 0.131D+00 0.316D+00
 Coeff-Com:  0.614D+00
 Coeff:     -0.226D-03 0.997D-04-0.442D-05-0.405D-04 0.205D-02 0.409D-02
 Coeff:      0.570D-02-0.921D-02-0.583D-01-0.455D-02 0.131D+00 0.316D+00
 Coeff:      0.614D+00
 Gap=     0.227 Goal=   None    Shift=    0.000
 Gap=     0.116 Goal=   None    Shift=    0.000
 RMSDP=4.63D-06 MaxDP=6.26D-04 DE=-2.31D-06 OVMax= 1.22D-04

 Cycle  14  Pass 1  IDiag  1:
 RMSU=  2.68D-06    CP:  6.33D-01  3.00D+00  1.70D-01  7.43D-01  8.60D-01
                    CP:  9.45D-01  8.15D-01  1.02D+00  1.12D+00  2.54D+00
                    CP:  1.24D+00  8.98D-01  9.29D-01
 E= -3531.56678197726     Delta-E=       -0.000000211389 Rises=F Damp=F
 DIIS: error= 3.78D-06 at cycle  14 NSaved=  14.
 NSaved=14 IEnMin=14 EnMin= -3531.56678197726     IErMin=14 ErrMin= 3.78D-06
 ErrMax= 3.78D-06  0.00D+00 EMaxC= 1.00D-01 BMatC= 1.29D-07 BMatP= 8.23D-07
 IDIUse=1 WtCom= 1.00D+00 WtEn= 0.00D+00
 Coeff-Com: -0.680D-04-0.102D-05 0.142D-06-0.151D-03 0.112D-03 0.130D-02
 Coeff-Com:  0.362D-02 0.791D-02 0.102D-02-0.290D-01-0.119D-01 0.429D-01
 Coeff-Com:  0.264D+00 0.720D+00
 Coeff:     -0.680D-04-0.102D-05 0.142D-06-0.151D-03 0.112D-03 0.130D-02
 Coeff:      0.362D-02 0.791D-02 0.102D-02-0.290D-01-0.119D-01 0.429D-01
 Coeff:      0.264D+00 0.720D+00
 Gap=     0.227 Goal=   None    Shift=    0.000
 Gap=     0.116 Goal=   None    Shift=    0.000
 RMSDP=1.67D-06 MaxDP=4.86D-04 DE=-2.11D-07 OVMax= 4.35D-05

 Cycle  15  Pass 1  IDiag  1:
 RMSU=  1.10D-06    CP:  6.33D-01  3.00D+00  1.70D-01  7.43D-01  8.61D-01
                    CP:  9.45D-01  8.14D-01  1.02D+00  1.11D+00  2.54D+00
                    CP:  1.26D+00  9.06D-01  9.53D-01  8.56D-01
 E= -3531.56678199954     Delta-E=       -0.000000022280 Rises=F Damp=F
 DIIS: error= 1.41D-06 at cycle  15 NSaved=  15.
 NSaved=15 IEnMin=15 EnMin= -3531.56678199954     IErMin=15 ErrMin= 1.41D-06
 ErrMax= 1.41D-06  0.00D+00 EMaxC= 1.00D-01 BMatC= 3.63D-08 BMatP= 1.29D-07
 IDIUse=1 WtCom= 1.00D+00 WtEn= 0.00D+00
 Coeff-Com: -0.578D-04 0.393D-04 0.533D-05-0.109D-03-0.247D-03 0.232D-04
 Coeff-Com:  0.125D-02 0.664D-02 0.114D-01-0.164D-01-0.302D-01-0.296D-01
 Coeff-Com:  0.548D-01 0.459D+00 0.544D+00
 Coeff:     -0.578D-04 0.393D-04 0.533D-05-0.109D-03-0.247D-03 0.232D-04
 Coeff:      0.125D-02 0.664D-02 0.114D-01-0.164D-01-0.302D-01-0.296D-01
 Coeff:      0.548D-01 0.459D+00 0.544D+00
 Gap=     0.227 Goal=   None    Shift=    0.000
 Gap=     0.116 Goal=   None    Shift=    0.000
 RMSDP=7.32D-07 MaxDP=1.49D-04 DE=-2.23D-08 OVMax= 2.15D-05

 Cycle  16  Pass 1  IDiag  1:
 RMSU=  4.71D-07    CP:  6.33D-01  3.00D+00  1.70D-01  7.43D-01  8.61D-01
                    CP:  9.45D-01  8.14D-01  1.02D+00  1.11D+00  2.53D+00
                    CP:  1.26D+00  9.11D-01  9.68D-01  9.00D-01  8.11D-01
 E= -3531.56678200826     Delta-E=       -0.000000008722 Rises=F Damp=F
 DIIS: error= 4.60D-07 at cycle  16 NSaved=  16.
 NSaved=16 IEnMin=16 EnMin= -3531.56678200826     IErMin=16 ErrMin= 4.60D-07
 ErrMax= 4.60D-07  0.00D+00 EMaxC= 1.00D-01 BMatC= 3.34D-09 BMatP= 3.63D-08
 IDIUse=1 WtCom= 1.00D+00 WtEn= 0.00D+00
 Coeff-Com: -0.816D-05 0.100D-04 0.575D-07-0.287D-04-0.147D-03-0.258D-03
 Coeff-Com: -0.535D-04 0.187D-02 0.533D-02-0.310D-02-0.129D-01-0.219D-01
 Coeff-Com: -0.211D-01 0.950D-01 0.262D+00 0.695D+00
 Coeff:     -0.816D-05 0.100D-04 0.575D-07-0.287D-04-0.147D-03-0.258D-03
 Coeff:     -0.535D-04 0.187D-02 0.533D-02-0.310D-02-0.129D-01-0.219D-01
 Coeff:     -0.211D-01 0.950D-01 0.262D+00 0.695D+00
 Gap=     0.227 Goal=   None    Shift=    0.000
 Gap=     0.116 Goal=   None    Shift=    0.000
 RMSDP=2.57D-07 MaxDP=4.00D-05 DE=-8.72D-09 OVMax= 8.27D-06

 Cycle  17  Pass 1  IDiag  1:
 RMSU=  1.89D-07    CP:  6.33D-01  3.00D+00  1.70D-01  7.43D-01  8.61D-01
                    CP:  9.45D-01  8.14D-01  1.02D+00  1.11D+00  2.53D+00
                    CP:  1.26D+00  9.09D-01  9.74D-01  9.09D-01  8.56D-01
                    CP:  9.66D-01
 E= -3531.56678200908     Delta-E=       -0.000000000826 Rises=F Damp=F
 DIIS: error= 3.42D-07 at cycle  17 NSaved=  17.
 NSaved=17 IEnMin=17 EnMin= -3531.56678200908     IErMin=17 ErrMin= 3.42D-07
 ErrMax= 3.42D-07  0.00D+00 EMaxC= 1.00D-01 BMatC= 1.47D-09 BMatP= 3.34D-09
 IDIUse=1 WtCom= 1.00D+00 WtEn= 0.00D+00
 Coeff-Com: -0.229D-05 0.981D-05 0.573D-07 0.321D-05-0.422D-04-0.161D-03
 Coeff-Com: -0.321D-03-0.366D-03 0.591D-03 0.178D-02-0.123D-02-0.670D-02
 Coeff-Com: -0.238D-01-0.355D-01 0.443D-01 0.398D+00 0.624D+00
 Coeff:     -0.229D-05 0.981D-05 0.573D-07 0.321D-05-0.422D-04-0.161D-03
 Coeff:     -0.321D-03-0.366D-03 0.591D-03 0.178D-02-0.123D-02-0.670D-02
 Coeff:     -0.238D-01-0.355D-01 0.443D-01 0.398D+00 0.624D+00
 Gap=     0.227 Goal=   None    Shift=    0.000
 Gap=     0.116 Goal=   None    Shift=    0.000
 RMSDP=1.30D-07 MaxDP=1.92D-05 DE=-8.26D-10 OVMax= 5.59D-06

 Cycle  18  Pass 1  IDiag  1:
 RMSU=  9.39D-08    CP:  6.33D-01  3.00D+00  1.70D-01  7.43D-01  8.61D-01
                    CP:  9.45D-01  8.14D-01  1.02D+00  1.11D+00  2.53D+00
                    CP:  1.26D+00  9.11D-01  9.75D-01  9.19D-01  8.64D-01
                    CP:  1.00D+00  9.33D-01
 E= -3531.56678200947     Delta-E=       -0.000000000386 Rises=F Damp=F
 DIIS: error= 1.48D-07 at cycle  18 NSaved=  18.
 NSaved=18 IEnMin=18 EnMin= -3531.56678200947     IErMin=18 ErrMin= 1.48D-07
[...]
 0002579,0.00000781,-0.00002172,-0.00003307,-0.00006836,-0.00143131,0.0
 0437157,-0.00293101,0.00000111,-0.00003448,0.00001194,0.00002055,0.000
 02109,0.00001857,-0.00000685,0.00000039,-0.00000360,-0.00002453,-0.000
 03299,-0.00002504,-0.00001339,-0.00002344,-0.00000922,0.00000904,-0.00
 000660,-0.00000325,0.00000041,0.00000185,0.00000481,-0.00000566,-0.000
 00182,-0.00000361,-0.00000230,0.00000004,-0.00000578,0.00000078,-0.000
 00068,-0.00000326,0.00000132,-0.00000133,0.00000160,-0.01718280,-0.021
 16440,-0.02595740,0.00152743,-0.00157285,0.00078726,-0.05493120,-0.005
 46088,-0.03619606,-0.00011237,-0.00056826,-0.00639359,0.00622986,0.006
 86307,0.02289717,0.06484781,-0.00002606,0.00006403,-0.00004695,0.00000
 411,0.00001607,0.00009297,0.00002977,0.00000541,0.00002167,-0.00000076
 ,0.00001453,0.00004929,0.00005967,-0.00006248,0.00002731,-0.00005125,0
 .00000870,-0.00006559,0.00025465,0.00000998,0.00024569,-0.00014835,-0.
 00013896,0.00083084,-0.00016570,0.00001588,-0.00004425,0.00005725,-0.0
 0004548,0.00004432,-0.00000972,0.00005175,-0.00003294,0.00003560,0.000
 02206,0.00002110,-0.00000424,-0.00000216,-0.00000320,-0.00012599,0.000
 05021,-0.00003780,0.00009762,-0.00019677,0.00008647,0.00006037,0.00017
 032,-0.00006898,-0.00000764,0.00000065,-0.00000484,-0.00000683,0.00001
 479,-0.00000524,-0.00003282,0.00002447,-0.00002994,-0.00001908,-0.0000
 1767,0.00000734,-0.00000869,-0.00000814,-0.00005977,0.00000777,-0.0000
 0213,-0.00000362,0.00000333,0.00001662,0.00000498,-0.00000773,0.000007
 40,0.00000384,-0.00000362,-0.00006681,-0.00003777,-0.00427726,0.004808
 86,-0.00466720,-0.00001454,-0.00003002,0.00002079,0.00001675,-0.000022
 52,-0.00000437,0.00000185,0.00000602,0.00000871,-0.00002220,-0.0000279
 2,-0.00001879,-0.00000604,-0.00000858,-0.00000425,0.00000432,-0.000001
 38,-0.00000143,-0.00000015,-0.00000019,0.00000149,-0.00000531,-0.00000
 109,-0.00000037,-0.00000234,0.00000023,-0.00000403,-0.00000108,-0.0000
 0200,-0.00000139,0.00000036,0.00000125,0.00000498,-0.01328518,-0.01609
 946,-0.01704341,0.00289549,-0.00027742,0.00119937,-0.00713891,-0.06305
 419,-0.05980428,0.00500957,0.00801054,0.02655062,-0.00170756,-0.003188
 32,-0.01638301,0.01759825,0.07248122,0.00000244,0.00002097,-0.00003286
 ,0.00005312,0.00002824,0.00000236,0.00002162,-0.00000779,-0.00000483,-
 0.00000563,-0.00004180,0.00000998,-0.00005110,-0.00004151,0.00003313,-
 0.00004137,-0.00000344,-0.00001777,0.00001036,-0.00000496,-0.00002310,
 0.00030640,-0.00029958,-0.00040879,0.00000235,-0.00001513,-0.00001819,
 -0.00000205,-0.00000164,-0.00000685,-0.00000655,0.00000144,-0.00000296
 ,0.00003019,0.00004104,0.00001084,0.00000551,-0.00000298,-0.00000395,-
 0.00004249,-0.00003788,0.00002585,0.00015351,0.00011734,-0.00010520,-0
 .00008253,-0.00009197,0.00005913,-0.00000493,-0.00000530,-0.00000304,-
 0.00004137,-0.00000885,-0.00001986,-0.00001266,-0.00000907,0.00009638,
 0.00001687,0.00001518,0.00000634,0.00000489,0.00001305,0.00003367,0.00
 000135,0.00000980,0.00000508,0.00000274,0.00000178,0.00000380,0.000003
 11,-0.00000205,0.00000596,0.00011863,0.00005927,0.00003105,-0.00061585
 ,0.00224474,-0.00041797,-0.00001476,-0.00000262,0.00001387,-0.00001104
 ,-0.00000511,-0.00000997,-0.00000370,0.00000117,0.00000416,-0.00000177
 ,-0.00000535,0.00000437,0.00000154,0.00000548,0.00000306,-0.00000177,0
 .00000337,-0.00000025,-0.00000078,-0.00000355,0.00000028,0.00000046,0.
 00000325,0.00000071,0.00000019,0.00000214,0.00000195,-0.00000256,-0.00
 000527,0.00000054,-0.00000108,0.00000614,0.00000651,-0.00317141,-0.001
 55917,0.00679489,0.00093575,0.00027976,0.00074927,-0.04096343,-0.06523
 108,-0.29085845,-0.00193509,-0.00434282,-0.01522506,-0.00214866,-0.001
 92459,-0.01041559,0.04795259,0.06720148,0.30893989,0.00001307,-0.00000
 069,-0.00000894,0.00001312,0.00002083,-0.00000666,-0.00001111,-0.00000
 710,-0.00002407,-0.00000590,-0.00003147,0.00003276,-0.00002418,0.00001
 402,0.00000012,0.00000664,-0.00000643,0.00001272,-0.00008751,0.0000451
 1,-0.00004453,-0.00002700,0.00018888,-0.00002372,0.00004261,0.00002636
 ,0.00002169,-0.00000336,0.00001634,-0.00000576,0.00000550,-0.00000190,
 -0.00000604,0.00003118,0.00010466,0.00003367,-0.00000478,-0.00001209,-
 0.00000659,0.00009621,-0.00018618,-0.00000641,0.00027470,0.00054466,-0
 .00014255,-0.00055321,-0.00049039,-0.00000855,-0.00000639,-0.00001743,
 -0.00000078,-0.00013122,-0.00006210,-0.00010310,-0.00004212,-0.0000416
 1,0.00014049,0.00001568,0.00002692,0.00003294,-0.00000986,0.00000328,0
 .00000777,0.00001105,-0.00000650,-0.00000985,0.00000376,-0.00000334,0.
 00000153,0.00000172,0.00000325,0.00000378,-0.00002551,-0.00000369,-0.0
 0001497,0.00073943,0.00055523,-0.00011273,-0.00000234,0.00000089,0.000
 00219,0.00000161,-0.00000236,0.00000101,-0.00000053,0.00000307,-0.0000
 0252,0.00000605,-0.00000227,0.00000494,0.00000449,-0.00000639,0.000001
 91,0.00000020,0.00001191,-0.00000421,0.00000010,-0.00001062,-0.0000007
 7,0.00000556,0.00001203,0.00000301,0.00000184,0.00000680,0.00000892,-0
 .00000052,-0.00000800,-0.00000322,0.00000193,0.00000263,0.00000243,0.0
 0145250,0.00208330,-0.00116732,-0.00001135,-0.00018355,0.00011254,0.00
 382993,0.00472758,-0.00016320,-0.21226629,-0.12835480,0.00182979,0.000
 29887,-0.00048187,0.00039224,0.00031079,-0.00038711,0.00035743,0.22821
 977,0.00000838,-0.00001260,-0.00000638,-0.00004022,0.00003731,-0.00002
 868,0.00004684,-0.00004517,-0.00000908,-0.00002785,0.00000418,0.000029
 27,-0.00000441,0.00004569,0.00001109,-0.00000424,0.00000844,0.00004078
 ,0.00009802,-0.00003540,0.00020588,0.00020112,-0.00043660,0.00011857,-
 0.00015375,-0.00000471,-0.00012458,0.00002719,-0.00005416,0.00002355,-
 0.00001624,-0.00000984,-0.00001920,0.00003451,0.00001291,0.00001896,-0
 .00000640,0.00000332,-0.00000347,-0.00013307,0.00005268,-0.00007090,0.
 00005825,-0.00017202,0.00009150,0.00017383,0.00017196,0.00004034,-0.00
 000902,0.00000398,-0.00000531,-0.00000232,0.00001753,-0.00000161,-0.00
 002591,0.00002779,-0.00003710,0.00001864,0.00000745,0.00001298,-0.0000
 0733,0.00000643,-0.00000168,0.00001141,-0.00001695,-0.00003616,0.00000
 634,-0.00001939,-0.00000388,-0.00000593,0.00001789,0.00000523,0.000048
 56,-0.00000002,-0.00000976,-0.00223591,0.00145518,-0.00086723,-0.00000
 107,-0.00000690,0.00000687,0.00001390,0.00001151,0.00000322,-0.0000057
 4,-0.00000064,0.,-0.00002034,-0.00002669,-0.00001878,-0.00000833,-0.00
 001337,-0.00000927,0.00000584,-0.00000392,-0.00000262,0.00000066,0.000
 00103,0.00000256,-0.00000515,-0.00000082,-0.00000235,-0.00000209,0.000
 00085,-0.00000566,-0.00000072,-0.00000241,-0.00000006,0.00000071,0.000
 00197,0.00000435,0.00118404,-0.00676925,0.00467233,0.00092208,-0.00029
 198,0.00037952,-0.02177110,-0.01288993,-0.00346440,-0.12599586,-0.1442
 6098,0.00189446,0.00049846,0.00032405,-0.00070638,0.00007177,0.0008013
 8,0.00032907,0.14045123,0.15682454,0.00004042,0.00000648,0.00000034,0.
 00000675,0.00007354,-0.00010443,0.00000012,-0.00006362,-0.00001122,-0.
 00001288,-0.00007462,0.00002532,-0.00007025,0.00003731,-0.00000514,0.0
 0003024,-0.00001951,0.00005322,-0.00007354,0.00000755,-0.00014666,-0.0
 0013978,0.00035567,-0.00019111,0.00012963,0.00001246,0.00007500,-0.000
 02156,0.00004365,-0.00002648,0.00000220,0.00000398,0.00000955,-0.00000
 106,0.00002815,0.00000239,0.00000386,-0.00000789,-0.00000238,0.0000869
 3,-0.00008583,0.00004276,0.00004425,0.00025162,-0.00008512,-0.00025625
 ,-0.00016732,0.00011113,0.00000389,-0.00000732,0.00000115,-0.00002882,
 -0.00002032,-0.00002753,0.00000949,-0.00002538,0.00006373,0.00004786,0
 .00003286,0.00003334,-0.00001566,0.00000469,0.00002315,0.00001496,-0.0
 0001935,-0.00002090,0.00000112,-0.00000802,0.00000127,0.00001100,-0.00
 001489,-0.00000428,-0.00001924,0.00000749,0.00000719,0.00151594,-0.000
 29324,0.00094938,0.00000188,0.00000785,-0.00000327,-0.00000899,-0.0000
 0607,-0.00000308,0.00000309,0.00000040,0.00000118,0.00001557,0.0000157
 3,0.00001517,0.00000660,0.00000526,0.00000690,-0.00000411,0.00000437,0
 .00000126,-0.00000160,-0.00000339,-0.00000103,0.00000323,0.00000297,0.
 00000239,0.00000080,0.00000170,0.00000505,-0.00000157,-0.00000228,-0.0
 0000009,0.,0.00000335,0.00000175,-0.00058945,0.00550571,-0.00227544,-0
 .00050190,0.00004190,-0.00030131,0.01601120,0.00853604,-0.00021063,0.0
 0032780,0.00076432,-0.04655957,-0.00015645,-0.00022602,0.00058377,0.00
 005112,-0.00081017,0.00007291,-0.00116522,-0.00380129,0.04636563,0.000
 00972,-0.00001335,0.00000807,-0.00001414,-0.00000037,-0.00000775,0.000
 02339,0.00000083,0.00000158,-0.00000670,-0.00001223,-0.00001940,-0.000
 01849,-0.00000080,-0.00002168,0.00001633,-0.00000513,0.00001427,-0.000
 00406,-0.00000797,-0.00003879,-0.00005383,0.00004466,0.00003146,0.0000
 1465,-0.00001001,0.00003046,-0.00000614,0.00000366,-0.00000640,-0.0000
 0040,-0.00000487,0.00001144,-0.00002459,-0.00004175,-0.00001856,0.0000
 0352,0.00000454,0.00000293,0.00003200,0.00005059,0.00001902,-0.0001654
 6,-0.00012665,0.00005114,-0.00088613,-0.00024972,-0.00046754,0.0000057
 5,0.00000433,0.00000302,0.00004834,0.00000987,0.00003294,0.00003258,0.
 00001469,-0.00006336,0.00000638,-0.00000461,-0.00000612,0.00000196,0.0
 0000172,0.00001549,-0.00000324,-0.00000706,-0.00001043,0.00000014,-0.0
 0001079,-0.00000521,-0.00000158,-0.00001060,-0.00000537,-0.00001084,0.
 00000781,0.00000363,0.00003404,-0.00023105,0.00011316,0.00000112,0.000
 00079,-0.00000521,-0.00000169,-0.00000401,-0.00000227,0.00000342,-0.00
 000064,0.00000027,0.00000431,0.00000795,0.00000274,0.00000026,0.000003
 89,0.00000067,-0.00000225,-0.00000180,0.00000135,-0.00000011,0.0000028
 1,-0.00000067,0.00000060,-0.00000296,-0.00000008,0.00000066,-0.0000029
 4,0.00000044,0.00000032,0.00000338,0.00000095,-0.00000038,-0.00000220,
 -0.00000264,0.00129386,-0.00000720,-0.00028188,0.00004709,0.00003421,-
 0.00004986,-0.00593849,0.00191887,0.00246481,-0.21485041,0.10702061,0.
 07728184,0.00111370,0.00038902,-0.00104573,0.00010988,-0.00009329,-0.0
 0029156,-0.01775936,0.01269127,0.00855011,0.23130061,0.00000622,-0.000
 01866,-0.00001839,0.00000666,0.00003244,-0.00005094,0.00004984,-0.0000
 1498,0.00000685,0.00000124,-0.00002657,0.00001016,-0.00006336,-0.00002
 162,-0.00000038,-0.00005796,0.00000175,0.00000411,0.00020720,-0.000067
 69,0.00004600,0.00000296,0.00004045,-0.00004526,-0.00000442,0.00001362
 ,-0.00001216,-0.00000484,0.00000008,0.00000217,-0.00001779,0.00001481,
 0.00000984,-0.00001027,-0.00010597,-0.00002736,0.00001352,0.00001561,0
 .00000025,-0.00022697,0.00025177,0.00001153,-0.00024903,-0.00070155,0.
 00011503,0.00038126,0.00057572,-0.00002181,-0.00000038,0.00002251,-0.0
 0000176,0.00014408,0.00008247,0.00011920,0.00004712,0.00006462,-0.0001
 2935,0.00001317,-0.00001348,-0.00002605,0.00000679,0.00000745,0.000017
 36,-0.00000074,0.00000659,0.00000585,-0.00000651,0.00001394,0.00001384
 ,0.00000924,0.00001319,0.00000259,-0.00000302,-0.00002906,0.00001140,0
 .00082579,-0.00037953,0.00051384,0.00000369,-0.00000058,-0.00000217,-0
 .00000722,0.00002656,0.00000091,-0.00000692,-0.00000706,0.00000523,-0.
 00000377,0.00000233,-0.00000191,-0.00000269,0.00001840,-0.00000072,0.0
 0000151,-0.00001568,0.00000553,0.00000012,0.00001252,0.00000226,-0.000
 00934,-0.00001366,-0.00000447,-0.00000302,-0.00000701,-0.00001056,-0.0
 0000283,0.00000490,0.00000603,-0.00000418,0.00000209,0.00000657,0.0000
 2121,0.00262336,-0.00086886,-0.00089915,-0.00014772,-0.00011675,0.0226
 2905,-0.01524903,-0.01029556,0.10387864,-0.11158088,-0.04846280,0.0004
 2877,-0.00320151,0.00374844,-0.00075523,0.00101782,-0.00003401,-0.0162
 3246,0.01106000,0.00797722,-0.11731707,0.12051156,0.00000508,-0.000023
 83,0.00004452,-0.00004469,0.00006583,-0.00006830,0.00011291,-0.0000583
 5,-0.00004144,-0.00001734,-0.00013217,-0.00002063,-0.00013420,-0.00000
 036,-0.00004929,-0.00001839,0.00002883,-0.00000820,0.00023156,-0.00005
 811,0.00002411,0.00000109,-0.00002281,0.00001563,-0.00001473,0.0000008
 2,0.00000711,-0.00000119,-0.00000760,-0.00000246,-0.00002750,0.0000138
 8,0.00001198,-0.00001338,-0.00010028,-0.00002824,0.00001807,0.00001342
 ,-0.00000119,-0.00021732,0.00025252,0.00002292,-0.00022100,-0.00071836
 ,0.00027651,0.00041858,0.00061506,-0.00016534,0.00000171,0.00002067,0.
 00000319,0.00013638,0.00008721,0.00010829,0.00002953,0.00004610,-0.000
 24012,0.00002092,-0.00001202,-0.00002334,0.00003773,0.00001830,0.00007
 759,-0.00000968,0.00001948,0.00002212,0.00000505,-0.00000841,0.0000022
 7,0.00000085,-0.00001928,0.00000173,0.00001593,-0.00000424,0.00002645,
 -0.00047891,0.00018665,-0.00028194,-0.00000137,-0.00000005,0.00000023,
 -0.00000490,0.00000055,-0.00000375,-0.00000204,-0.00000397,0.00000939,
 -0.00000490,0.00000135,-0.00000041,-0.00000191,0.00002091,-0.00000096,
 0.00000037,-0.00001281,0.00000517,-0.00000071,0.00001086,0.00000102,-0
 .00000897,-0.00001370,-0.00000374,-0.00000311,-0.00000720,-0.00001055,
 -0.00000383,0.00000429,0.00000679,-0.00000404,0.00000402,0.00000694,0.
 00006724,-0.00193484,0.00063485,0.00038462,0.00022634,-0.00013267,-0.0
 1852657,0.01122340,0.00771309,0.07870228,-0.04960291,-0.08365396,-0.00
 021188,0.00377743,-0.00161201,-0.00019092,-0.00071542,0.00102529,-0.00
 074616,0.00044823,-0.00100806,-0.08344497,0.05007783,0.08697877,-0.000
 06518,-0.00001561,0.00002901,0.00002422,-0.00003403,0.00004764,0.00015
 581,-0.00002313,-0.00010074,0.00000821,-0.00016399,-0.00004054,-0.0001
 1048,-0.00007607,-0.00004067,-0.00007875,0.00008667,-0.00010762,0.0001
 7117,-0.00006913,-0.00000788,-0.00002993,0.00003433,-0.00003066,0.0000
 2302,-0.00000442,0.00001740,-0.00001405,0.00000610,-0.00000614,-0.0000
 1648,0.00000514,0.00001359,-0.00002414,-0.00010896,-0.00003479,0.00001
 642,0.00001399,0.00000051,-0.00015782,0.00022471,0.00003193,-0.0002269
 8,-0.00060203,0.00013314,0.00002799,0.00045683,-0.00012621,0.00000193,
 0.00001837,0.00000188,0.00011515,0.00006274,0.00010017,0.00003827,0.00
 004459,-0.00017025,-0.00009863,-0.00007942,-0.00008505,0.00006747,0.00
 002476,0.00005444,-0.00002892,0.00004126,0.00005260,-0.00000012,0.0000
 0783,0.00000531,-0.00000528,-0.00001077,0.00000062,0.00001268,0.000000
 92,0.00002229,0.00013653,-0.00030588,0.00009922,0.00000013,0.00000142,
 -0.00000068,-0.00000950,0.00000446,-0.00000425,-0.00000124,-0.00000380
 ,0.00000697,0.00000033,0.00000704,0.00000214,-0.00000025,0.00002362,0.
 00000156,-0.00000133,-0.00001006,0.00000526,0.00000025,0.00000977,0.00
 000005,-0.00000629,-0.00001105,-0.00000279,-0.00000299,-0.00000770,-0.
 00000676,-0.00000142,0.00000688,0.00000665,-0.00000523,-0.00000220,0.0
 0000356,0.00076498,0.00049695,0.00084227,-0.00017602,0.00016576,-0.000
 00446,-0.00295322,-0.00330974,-0.00710672,-0.05675309,-0.01403231,-0.0
 4848875,-0.00003908,-0.00041075,-0.00016339,0.00084562,0.00142271,-0.0
 0052694,-0.00441579,-0.00609005,-0.02385172,0.00564364,0.00721110,0.02
 416471,0.05716839,-0.00003786,0.00000031,0.00000760,-0.00000598,-0.000
 12719,0.00011227,-0.00014764,-0.00008958,-0.00000699,0.00003588,0.0001
 4996,-0.00015929,0.00014830,-0.00004881,0.00000260,0.00002201,0.000019
 26,-0.00003592,-0.00016914,0.00002931,0.00003217,0.00002212,0.00006783
 ,-0.00000170,0.00000561,-0.00000767,-0.00000418,0.00000228,0.00001409,
 0.00000762,0.00002398,-0.00001858,-0.00001806,-0.00001840,0.00001484,-
 0.00000198,-0.00001314,-0.00000060,0.00000840,0.00015613,-0.00009715,-
 0.00003323,-0.00001903,0.00027861,-0.00004018,-0.00035143,-0.00023787,
 0.00004758,0.00000317,-0.00000665,-0.00000030,-0.00002286,-0.00003039,
 -0.00002483,-0.00000142,-0.00002160,0.00005955,-0.00004532,-0.00001437
 ,-0.00003940,0.00000545,-0.00001320,0.00001002,-0.00003020,0.00000606,
 0.00002187,-0.00000801,0.00000995,-0.00000018,-0.00000916,0.00001810,-
 0.00000292,-0.00001429,0.00000091,-0.00001682,0.00069198,-0.00027544,0
 .00032368,0.00000543,0.00000842,-0.00000862,0.00000326,0.00000335,0.00
 000840,0.00000275,0.00000101,-0.00000925,0.00000158,0.00000409,-0.0000
 0284,-0.00000405,-0.00001507,-0.00000341,0.00000036,0.00000491,-0.0000
 0265,0.00000100,-0.00000285,-0.00000085,0.00000523,0.00000428,0.000000
 93,0.00000351,0.00000111,0.00000343,0.00000603,0.00000298,-0.00000397,
 0.00000163,-0.00000992,-0.00001093,0.00071983,0.00264485,-0.00144416,-
 0.00041630,-0.00022116,-0.00029766,0.00593244,0.00760629,0.02930415,-0
 .01554586,-0.07018015,-0.07736787,-0.00028482,0.00122020,-0.00065154,0
 .00070679,-0.00436649,0.00330282,-0.00230858,-0.00582432,-0.01807573,-
 0.00404644,-0.00483428,-0.01370728,0.01499315,0.07433266,0.00000388,0.
 00003242,-0.00001209,-0.00002341,0.00010996,-0.00014936,-0.00002730,-0
 .00024213,-0.00009881,-0.00003791,-0.00025366,0.00001359,-0.00007223,0
 .00002596,-0.00004044,0.00001172,0.00002614,0.00000307,-0.00006726,0.0
 0003546,-0.00015981,-0.00000149,0.00002631,-0.00003193,0.00002600,-0.0
 0000795,0.00003237,-0.00001332,0.00000635,-0.00002088,0.00000710,-0.00
 000195,0.00001212,0.00002075,0.00007536,0.00001725,0.00000259,-0.00001
 407,-0.00000659,0.00009870,-0.00014823,0.00004163,0.00018108,0.0004690
 4,-0.00020618,-0.00061631,-0.00038842,0.00015767,-0.00000169,-0.000013
 24,0.00000061,-0.00008044,-0.00004232,-0.00006442,-0.00001890,-0.00003
 328,0.00017710,0.00004909,0.00003477,0.00007697,0.00000198,-0.00000180
 ,-0.00003345,0.00000620,0.00000613,0.00001605,0.00000736,-0.00000917,-
 0.00000791,0.00000414,-0.00002741,-0.00000044,-0.00000414,0.00001395,-
 0.00000007,-0.00040641,-0.00003153,-0.00010443,-0.00000646,-0.00000587
 ,0.00001010,-0.00000308,-0.00001420,-0.00000858,0.00000232,0.00000336,
 0.00000298,0.00000680,0.00000193,0.00000835,0.00000738,0.00000254,0.00
 000757,-0.00000355,0.00000833,0.00000046,-0.00000184,-0.00000740,-0.00
 000125,0.00000495,0.00000772,0.00000276,0.00000019,0.00000410,0.000007
 90,-0.00000257,-0.00000627,-0.00000157,0.00000201,0.00000785,0.0000057
 1,0.00023368,-0.00086185,0.00153766,0.00043639,0.00014042,0.00020194,-
 0.00417258,-0.00595271,-0.01917180,-0.04790018,-0.07371648,-0.28138197
 ,0.00006171,0.00023812,0.00109205,-0.00090675,0.00347574,-0.00036655,0
 .00077402,0.00089707,0.00253278,-0.00284633,-0.00258877,-0.00966934,0.
 05526409,0.07871964,0.30557916\\-0.00000042,0.00000081,-0.00000299,-0.
 00000038,0.00000091,-0.00000011,-0.00000139,0.00000175,-0.00000012,-0.
 00000203,0.00000248,-0.00000022,-0.00000229,0.00000157,-0.00000181,-0.
 00000181,0.00000052,-0.00000310,-0.00000017,-0.00000241,-0.00000054,0.
 00000052,-0.00000118,-0.00000038,0.00000178,-0.00000359,-0.00000192,0.
 00000030,-0.00000146,-0.00000172,-0.00000150,0.00000023,0.00000219,-0.
 00000045,0.00000169,-0.00000313,-0.00000266,0.00000340,0.00000004,0.00
 000409,0.00000436,0.00000253,-0.00000192,-0.00000161,0.00000629,0.0000
 0195,0.00000172,0.00000443,-0.00000125,0.00000130,0.00000163,-0.000001
 56,0.00000351,0.00000539,0.00000219,-0.00000108,0.00000389,-0.00000049
 ,0.00000157,0.00000096,-0.00000253,0.00000292,0.00000066,-0.00000247,0
 .00000222,-0.00000273,-0.00000139,0.00000024,-0.00000469,-0.00000023,-
 0.00000104,-0.00000326,0.00000042,-0.00000139,0.00000007,0.00000299,-0
 .00000351,-0.00000451,0.00000262,-0.00000343,-0.00000185,0.00000127,-0
 .00000267,-0.00000303,0.00000108,-0.00000204,-0.00000098,0.00000075,-0
 .00000216,-0.00000303,-0.00000168,0.00000155,-0.00000286,0.00000060,-0
 .00000033,0.00000160,-0.00000111,0.00000068,0.00000010,0.00000014,0.00
 000120,0.00000276,-0.00000233,0.00000316,0.00000121,-0.00000277,0.0000
 0278,-0.00000089,-0.00000219,0.00000330,-0.00000024,0.00000032,-0.0000
 0182,-0.00000101,0.00000204,-0.00000351,-0.00000031,0.00000218,-0.0000
 0137,0.00000208,0.00000182,-0.00000173,0.00000191,0.00000158,-0.000002
 02,-0.00000090,0.00000329,-0.00000350,0.00000052,0.00000157,-0.0000014
 3,0.00000236,0.00000102,-0.00000089,0.00000360,0.00000046,0.00000026,0
 .00000213\\\@


 BLESSED ARE THOSE WHO NOUGHT EXPECT,
 FOR THEY SHALL NOT BE DISAPPOINTED..  WALCOT - ODE TO PITT
 Job cpu time:       2 days 17 hours 35 minutes 13.7 seconds.
 Elapsed time:       0 days  4 hours  6 minutes 33.6 seconds.
 File lengths (MBytes):  RWF=   4244 Int=      0 D2E=      0 Chk=     50 Scr=      1
 Normal termination of Gaussian 16 at Fri Jun  4 21:18:39 2021.
