 Entering Gaussian System, Link 0=g16
 Input=prenyl-first_step-ts4-b3lyp_d3bj-juldz-gas.gjf
 Output=prenyl-first_step-ts4-b3lyp_d3bj-juldz-gas.out
 Initial command:
 /SFS/product/gaussian/g16.a03/x86_64/avx/g16/l1.exe "/scratch/kwaneu.2863089.bmbhpcps002/Gau-44060.inp" -scrdir="/scratch/kwaneu.2863089.bmbhpcps002/"
 Entering Link 1 = /SFS/product/gaussian/g16.a03/x86_64/avx/g16/l1.exe PID=     44061.
  
 Copyright (c) 1988,1990,1992,1993,1995,1998,2003,2009,2016,
            Gaussian, Inc.  All Rights Reserved.
  
 This is part of the Gaussian(R) 16 program.  It is based on
 the Gaussian(R) 09 system (copyright 2009, Gaussian, Inc.),
 the Gaussian(R) 03 system (copyright 2003, Gaussian, Inc.),
 the Gaussian(R) 98 system (copyright 1998, Gaussian, Inc.),
 the Gaussian(R) 94 system (copyright 1995, Gaussian, Inc.),
 the Gaussian 92(TM) system (copyright 1992, Gaussian, Inc.),
 the Gaussian 90(TM) system (copyright 1990, Gaussian, Inc.),
 the Gaussian 88(TM) system (copyright 1988, Gaussian, Inc.),
 the Gaussian 86(TM) system (copyright 1986, Carnegie Mellon
 University), and the Gaussian 82(TM) system (copyright 1983,
 Carnegie Mellon University). Gaussian is a federally registered
 trademark of Gaussian, Inc.
  
 This software contains proprietary and confidential information,
 including trade secrets, belonging to Gaussian, Inc.
  
 This software is provided under written license and may be
 used, copied, transmitted, or stored only in accord with that
 written license.
  
 The following legend is applicable only to US Government
 contracts under FAR:
  
                    RESTRICTED RIGHTS LEGEND
  
 Use, reproduction and disclosure by the US Government is
 subject to restrictions as set forth in subparagraphs (a)
 and (c) of the Commercial Computer Software - Restricted
 Rights clause in FAR 52.227-19.
  
 Gaussian, Inc.
 340 Quinnipiac St., Bldg. 40, Wallingford CT 06492
  
  
 ---------------------------------------------------------------
 Warning -- This program may not be used in any manner that
 competes with the business of Gaussian, Inc. or will provide
 assistance to any competitor of Gaussian, Inc.  The licensee
 of this program is prohibited from giving any competitor of
 Gaussian, Inc. access to this program.  By using this program,
 the user acknowledges that Gaussian, Inc. is engaged in the
 business of creating and licensing software in the field of
 computational chemistry and represents and warrants to the
 licensee that it is not a competitor of Gaussian, Inc. and that
 it will not use this program in any manner prohibited above.
 ---------------------------------------------------------------
  

 Cite this work as:
 Gaussian 16, Revision A.03,
 M. J. Frisch, G. W. Trucks, H. B. Schlegel, G. E. Scuseria, 
 M. A. Robb, J. R. Cheeseman, G. Scalmani, V. Barone, 
 G. A. Petersson, H. Nakatsuji, X. Li, M. Caricato, A. V. Marenich, 
 J. Bloino, B. G. Janesko, R. Gomperts, B. Mennucci, H. P. Hratchian, 
 J. V. Ortiz, A. F. Izmaylov, J. L. Sonnenberg, D. Williams-Young, 
 F. Ding, F. Lipparini, F. Egidi, J. Goings, B. Peng, A. Petrone, 
 T. Henderson, D. Ranasinghe, V. G. Zakrzewski, J. Gao, N. Rega, 
 G. Zheng, W. Liang, M. Hada, M. Ehara, K. Toyota, R. Fukuda, 
 J. Hasegawa, M. Ishida, T. Nakajima, Y. Honda, O. Kitao, H. Nakai, 
 T. Vreven, K. Throssell, J. A. Montgomery, Jr., J. E. Peralta, 
 F. Ogliaro, M. J. Bearpark, J. J. Heyd, E. N. Brothers, K. N. Kudin, 
 V. N. Staroverov, T. A. Keith, R. Kobayashi, J. Normand, 
 K. Raghavachari, A. P. Rendell, J. C. Burant, S. S. Iyengar, 
 J. Tomasi, M. Cossi, J. M. Millam, M. Klene, C. Adamo, R. Cammi, 
 J. W. Ochterski, R. L. Martin, K. Morokuma, O. Farkas, 
 J. B. Foresman, and D. J. Fox, Gaussian, Inc., Wallingford CT, 2016.
 
 ******************************************
 Gaussian 16:  ES64L-G16RevA.03 25-Dec-2016
                 2-Jun-2021 
 ******************************************
 %mem=16GB
 %nprocshared=16
 Will use up to   16 processors via shared memory.
 ----------------------------------------------------------------------
 #p opt=(ts,noeigentest,calcfc) freq=noraman b3lyp jul-cc-pvdz pop=none
  empiricaldispersion=gd3bj
 ----------------------------------------------------------------------
 1/5=1,10=4,11=1,18=20,26=3,38=1/1,3;
 2/9=110,12=2,17=6,18=5,40=1/2;
 3/5=16,7=50,11=2,25=1,30=1,71=2,74=-5,124=41,140=1/1,2,3;
 4//1;
 5/5=2,38=5/2;
 8/6=4,10=90,11=11/1;
 11/6=1,8=1,9=11,15=111,16=1/1,2,10;
 10/6=1,13=1/2;
 7/10=1,18=20,25=1/1,2,3,16;
 1/5=1,10=4,11=1,18=20,26=3/3(2);
 2/9=110/2;
 99//99;
 2/9=110/2;
 3/5=16,7=50,11=2,25=1,30=1,71=1,74=-5,124=41/1,2,3;
 4/5=5,16=3,69=1/1;
 5/5=2,38=5/2;
 7//1,2,3,16;
 1/5=1,11=1,18=20,26=3/3(-5);
 2/9=110/2;
 99/9=1/99;
 Leave Link    1 at Wed Jun  2 16:56:24 2021, MaxMem=  2147483648 cpu:               1.1 elap:               0.1
 (Enter /SFS/product/gaussian/g16.a03/x86_64/avx/g16/l101.exe)
 -----
 title
 -----
 Symbolic Z-matrix:
 Charge =  0 Multiplicity = 6
 6                    -3.04955   0.76215  -1.49224 
 6                    -2.15194   0.10179  -0.63806 
 6                    -2.33034  -1.27069  -0.41597 
 6                    -3.36884  -1.96612  -1.03793 
 6                    -4.25402  -1.30115  -1.88872 
 6                    -4.08857   0.0687   -2.11385 
 6                    -1.03213   0.84296   0.07554 
 6                    -0.52867   2.11956  -0.69068 
 6                    -1.27897   3.32159  -0.10137 
 6                    -1.40577   3.01622   1.39968 
 6                    -1.66973   1.50643   1.48273 
 6                    -0.98101   0.71989   2.50319 
 6                    -1.58063  -0.51336   3.00021 
 8                     0.0086    0.01489   0.45181 
 26                    1.11615  -1.43451   0.12396 
 17                    1.05601  -2.05822  -1.98347 
 6                     0.33369   1.11182   3.03429 
 17                    0.28474  -3.02323   1.51819 
 17                    3.12701  -0.87448   0.87891 
 1                    -1.64644  -1.81724   0.22633 
 1                    -3.47226  -3.03746  -0.86354 
 1                    -5.06066  -1.84562  -2.38089 
 1                    -4.76471   0.59988  -2.78474 
 1                    -2.94427   1.82566  -1.69558 
 1                    -0.71579   1.98028  -1.75949 
 6                     0.97496   2.27039  -0.50772 
 1                    -0.75001   4.26478  -0.28076 
 1                    -2.27232   3.40534  -0.56007 
 1                    -0.46918   3.28224   1.89632 
 1                    -2.21805   3.57984   1.87595 
 1                    -2.73798   1.27669   1.47632 
 1                     0.91451   1.72035   2.33463 
 1                     0.12225   1.73054   3.92993 
 1                     0.90325   0.23638   3.36772 
 1                    -1.01597  -1.34117   2.49833 
 1                    -1.36592  -0.66097   4.06832 
 1                    -2.64461  -0.61874   2.77332 
 8                     1.63846   1.73128  -1.52897 
 8                     1.49937   2.83353   0.43667 
 6                     3.09705   1.79781  -1.47385 
 6                     3.62858   0.90634  -2.5734 
 1                     3.3829    2.85081  -1.60433 
 1                     3.413     1.46413  -0.48056 
 1                     4.72725   0.94065  -2.56341 
 1                     3.30989  -0.13148  -2.41597 
 1                     3.27719   1.23957  -3.55974 
 
 ITRead=  0  0  0  0  0  0  0  0  0  0  0  0  0  0  0  0  0  0  0  0
 ITRead=  0  0  0  0  0  0  0  0  0  0  0  0  0  0  0  0  0  0  0  0
 ITRead=  0  0  0  0  0  0
 MicOpt= -1 -1 -1 -1 -1 -1 -1 -1 -1 -1 -1 -1 -1 -1 -1 -1 -1 -1 -1 -1
 MicOpt= -1 -1 -1 -1 -1 -1 -1 -1 -1 -1 -1 -1 -1 -1 -1 -1 -1 -1 -1 -1
 MicOpt= -1 -1 -1 -1 -1 -1
 NAtoms=     46 NQM=       46 NQMF=       0 NMMI=      0 NMMIF=      0
                NMic=       0 NMicF=      0.
                    Isotopes and Nuclear Properties:
 (Nuclear quadrupole moments (NQMom) in fm**2, nuclear magnetic moments (NMagM)
  in nuclear magnetons)

  Atom         1           2           3           4           5           6           7           8           9          10
 IAtWgt=          12          12          12          12          12          12          12          12          12          12
 AtmWgt=  12.0000000  12.0000000  12.0000000  12.0000000  12.0000000  12.0000000  12.0000000  12.0000000  12.0000000  12.0000000
 NucSpn=           0           0           0           0           0           0           0           0           0           0
 AtZEff=  -0.0000000  -0.0000000  -0.0000000  -0.0000000  -0.0000000  -0.0000000  -0.0000000  -0.0000000  -0.0000000  -0.0000000
 NQMom=    0.0000000   0.0000000   0.0000000   0.0000000   0.0000000   0.0000000   0.0000000   0.0000000   0.0000000   0.0000000
 NMagM=    0.0000000   0.0000000   0.0000000   0.0000000   0.0000000   0.0000000   0.0000000   0.0000000   0.0000000   0.0000000
 AtZNuc=   6.0000000   6.0000000   6.0000000   6.0000000   6.0000000   6.0000000   6.0000000   6.0000000   6.0000000   6.0000000

  Atom        11          12          13          14          15          16          17          18          19          20
 IAtWgt=          12          12          12          16          56          35          12          35          35           1
 AtmWgt=  12.0000000  12.0000000  12.0000000  15.9949146  55.9349393  34.9688527  12.0000000  34.9688527  34.9688527   1.0078250
 NucSpn=           0           0           0           0           0           3           0           3           3           1
 AtZEff=  -0.0000000  -0.0000000  -0.0000000  -0.0000000  -0.0000000  -0.0000000  -0.0000000  -0.0000000  -0.0000000  -0.0000000
 NQMom=    0.0000000   0.0000000   0.0000000   0.0000000   0.0000000  -8.1650000   0.0000000  -8.1650000  -8.1650000   0.0000000
 NMagM=    0.0000000   0.0000000   0.0000000   0.0000000   0.0000000   0.8218740   0.0000000   0.8218740   0.8218740   2.7928460
 AtZNuc=   6.0000000   6.0000000   6.0000000   8.0000000  26.0000000  17.0000000   6.0000000  17.0000000  17.0000000   1.0000000

  Atom        21          22          23          24          25          26          27          28          29          30
 IAtWgt=           1           1           1           1           1          12           1           1           1           1
 AtmWgt=   1.0078250   1.0078250   1.0078250   1.0078250   1.0078250  12.0000000   1.0078250   1.0078250   1.0078250   1.0078250
 NucSpn=           1           1           1           1           1           0           1           1           1           1
 AtZEff=  -0.0000000  -0.0000000  -0.0000000  -0.0000000  -0.0000000  -0.0000000  -0.0000000  -0.0000000  -0.0000000  -0.0000000
 NQMom=    0.0000000   0.0000000   0.0000000   0.0000000   0.0000000   0.0000000   0.0000000   0.0000000   0.0000000   0.0000000
 NMagM=    2.7928460   2.7928460   2.7928460   2.7928460   2.7928460   0.0000000   2.7928460   2.7928460   2.7928460   2.7928460
 AtZNuc=   1.0000000   1.0000000   1.0000000   1.0000000   1.0000000   6.0000000   1.0000000   1.0000000   1.0000000   1.0000000

  Atom        31          32          33          34          35          36          37          38          39          40
 IAtWgt=           1           1           1           1           1           1           1          16          16          12
 AtmWgt=   1.0078250   1.0078250   1.0078250   1.0078250   1.0078250   1.0078250   1.0078250  15.9949146  15.9949146  12.0000000
 NucSpn=           1           1           1           1           1           1           1           0           0           0
 AtZEff=  -0.0000000  -0.0000000  -0.0000000  -0.0000000  -0.0000000  -0.0000000  -0.0000000  -0.0000000  -0.0000000  -0.0000000
 NQMom=    0.0000000   0.0000000   0.0000000   0.0000000   0.0000000   0.0000000   0.0000000   0.0000000   0.0000000   0.0000000
 NMagM=    2.7928460   2.7928460   2.7928460   2.7928460   2.7928460   2.7928460   2.7928460   0.0000000   0.0000000   0.0000000
 AtZNuc=   1.0000000   1.0000000   1.0000000   1.0000000   1.0000000   1.0000000   1.0000000   8.0000000   8.0000000   6.0000000

  Atom        41          42          43          44          45          46
 IAtWgt=          12           1           1           1           1           1
 AtmWgt=  12.0000000   1.0078250   1.0078250   1.0078250   1.0078250   1.0078250
 NucSpn=           0           1           1           1           1           1
 AtZEff=  -0.0000000  -0.0000000  -0.0000000  -0.0000000  -0.0000000  -0.0000000
 NQMom=    0.0000000   0.0000000   0.0000000   0.0000000   0.0000000   0.0000000
 NMagM=    0.0000000   2.7928460   2.7928460   2.7928460   2.7928460   2.7928460
 AtZNuc=   6.0000000   1.0000000   1.0000000   1.0000000   1.0000000   1.0000000
 Leave Link  101 at Wed Jun  2 16:56:24 2021, MaxMem=  2147483648 cpu:               5.3 elap:               0.4
 (Enter /SFS/product/gaussian/g16.a03/x86_64/avx/g16/l103.exe)

 GradGradGradGradGradGradGradGradGradGradGradGradGradGradGradGradGradGrad
 Berny optimization.
 Initialization pass.
                           ----------------------------
                           !    Initial Parameters    !
                           ! (Angstroms and Degrees)  !
 --------------------------                            --------------------------
 ! Name  Definition              Value          Derivative Info.                !
 --------------------------------------------------------------------------------
 ! R1    R(1,2)                  1.4041         calculate D2E/DX2 analytically  !
 ! R2    R(1,6)                  1.3953         calculate D2E/DX2 analytically  !
 ! R3    R(1,24)                 1.0879         calculate D2E/DX2 analytically  !
 ! R4    R(2,3)                  1.4017         calculate D2E/DX2 analytically  !
 ! R5    R(2,7)                  1.5207         calculate D2E/DX2 analytically  !
 ! R6    R(3,4)                  1.396          calculate D2E/DX2 analytically  !
 ! R7    R(3,20)                 1.0858         calculate D2E/DX2 analytically  !
 ! R8    R(4,5)                  1.3963         calculate D2E/DX2 analytically  !
 ! R9    R(4,21)                 1.0904         calculate D2E/DX2 analytically  !
 ! R10   R(5,6)                  1.398          calculate D2E/DX2 analytically  !
 ! R11   R(5,22)                 1.0906         calculate D2E/DX2 analytically  !
 ! R12   R(6,23)                 1.0906         calculate D2E/DX2 analytically  !
 ! R13   R(7,8)                  1.5717         calculate D2E/DX2 analytically  !
 ! R14   R(7,11)                 1.6813         calculate D2E/DX2 analytically  !
 ! R15   R(7,14)                 1.3822         calculate D2E/DX2 analytically  !
 ! R16   R(8,9)                  1.5346         calculate D2E/DX2 analytically  !
 ! R17   R(8,25)                 1.094          calculate D2E/DX2 analytically  !
 ! R18   R(8,26)                 1.5222         calculate D2E/DX2 analytically  !
 ! R19   R(9,10)                 1.537          calculate D2E/DX2 analytically  !
 ! R20   R(9,27)                 1.0962         calculate D2E/DX2 analytically  !
 ! R21   R(9,28)                 1.0973         calculate D2E/DX2 analytically  !
 ! R22   R(10,11)                1.5349         calculate D2E/DX2 analytically  !
 ! R23   R(10,29)                1.093          calculate D2E/DX2 analytically  !
 ! R24   R(10,30)                1.0974         calculate D2E/DX2 analytically  !
 ! R25   R(11,12)                1.4609         calculate D2E/DX2 analytically  !
 ! R26   R(11,31)                1.0927         calculate D2E/DX2 analytically  !
 ! R27   R(12,13)                1.4586         calculate D2E/DX2 analytically  !
 ! R28   R(12,17)                1.4711         calculate D2E/DX2 analytically  !
 ! R29   R(13,35)                1.1207         calculate D2E/DX2 analytically  !
 ! R30   R(13,36)                1.0994         calculate D2E/DX2 analytically  !
 ! R31   R(13,37)                1.093          calculate D2E/DX2 analytically  !
 ! R32   R(14,15)                1.8534         calculate D2E/DX2 analytically  !
 ! R33   R(15,16)                2.1986         calculate D2E/DX2 analytically  !
 ! R34   R(15,18)                2.2714         calculate D2E/DX2 analytically  !
 ! R35   R(15,19)                2.2197         calculate D2E/DX2 analytically  !
 ! R36   R(17,32)                1.0942         calculate D2E/DX2 analytically  !
 ! R37   R(17,33)                1.1089         calculate D2E/DX2 analytically  !
 ! R38   R(17,34)                1.0963         calculate D2E/DX2 analytically  !
 ! R39   R(26,38)                1.3318         calculate D2E/DX2 analytically  !
 ! R40   R(26,39)                1.2182         calculate D2E/DX2 analytically  !
 ! R41   R(38,40)                1.4611         calculate D2E/DX2 analytically  !
 ! R42   R(40,41)                1.512          calculate D2E/DX2 analytically  !
 ! R43   R(40,42)                1.0989         calculate D2E/DX2 analytically  !
 ! R44   R(40,43)                1.0944         calculate D2E/DX2 analytically  !
 ! R45   R(41,44)                1.0993         calculate D2E/DX2 analytically  !
 ! R46   R(41,45)                1.097          calculate D2E/DX2 analytically  !
 ! R47   R(41,46)                1.0988         calculate D2E/DX2 analytically  !
 ! A1    A(2,1,6)              120.8869         calculate D2E/DX2 analytically  !
 ! A2    A(2,1,24)             120.772          calculate D2E/DX2 analytically  !
 ! A3    A(6,1,24)             118.3367         calculate D2E/DX2 analytically  !
 ! A4    A(1,2,3)              118.3937         calculate D2E/DX2 analytically  !
 ! A5    A(1,2,7)              121.8037         calculate D2E/DX2 analytically  !
 ! A6    A(3,2,7)              119.7747         calculate D2E/DX2 analytically  !
 ! A7    A(2,3,4)              120.7865         calculate D2E/DX2 analytically  !
 ! A8    A(2,3,20)             120.4252         calculate D2E/DX2 analytically  !
 ! A9    A(4,3,20)             118.7724         calculate D2E/DX2 analytically  !
 ! A10   A(3,4,5)              120.3855         calculate D2E/DX2 analytically  !
 ! A11   A(3,4,21)             119.2593         calculate D2E/DX2 analytically  !
 ! A12   A(5,4,21)             120.3491         calculate D2E/DX2 analytically  !
 ! A13   A(4,5,6)              119.3235         calculate D2E/DX2 analytically  !
 ! A14   A(4,5,22)             120.4062         calculate D2E/DX2 analytically  !
 ! A15   A(6,5,22)             120.2676         calculate D2E/DX2 analytically  !
 ! A16   A(1,6,5)              120.2219         calculate D2E/DX2 analytically  !
 ! A17   A(1,6,23)             119.5816         calculate D2E/DX2 analytically  !
 ! A18   A(5,6,23)             120.1935         calculate D2E/DX2 analytically  !
 ! A19   A(2,7,8)              113.7656         calculate D2E/DX2 analytically  !
 ! A20   A(2,7,11)             107.8073         calculate D2E/DX2 analytically  !
 ! A21   A(2,7,14)             112.9676         calculate D2E/DX2 analytically  !
 ! A22   A(8,7,11)             102.0623         calculate D2E/DX2 analytically  !
 ! A23   A(8,7,14)             112.2186         calculate D2E/DX2 analytically  !
 ! A24   A(11,7,14)            107.1041         calculate D2E/DX2 analytically  !
 ! A25   A(7,8,9)              107.0008         calculate D2E/DX2 analytically  !
 ! A26   A(7,8,25)             108.5477         calculate D2E/DX2 analytically  !
 ! A27   A(7,8,26)             109.7738         calculate D2E/DX2 analytically  !
 ! A28   A(9,8,25)             113.0333         calculate D2E/DX2 analytically  !
 ! A29   A(9,8,26)             111.0496         calculate D2E/DX2 analytically  !
 ! A30   A(25,8,26)            107.3976         calculate D2E/DX2 analytically  !
 ! A31   A(8,9,10)             105.0543         calculate D2E/DX2 analytically  !
 ! A32   A(8,9,27)             112.0362         calculate D2E/DX2 analytically  !
 ! A33   A(8,9,28)             109.9893         calculate D2E/DX2 analytically  !
 ! A34   A(10,9,27)            111.7508         calculate D2E/DX2 analytically  !
 ! A35   A(10,9,28)            110.4083         calculate D2E/DX2 analytically  !
 ! A36   A(27,9,28)            107.6222         calculate D2E/DX2 analytically  !
 ! A37   A(9,10,11)            105.2149         calculate D2E/DX2 analytically  !
 ! A38   A(9,10,29)            108.948          calculate D2E/DX2 analytically  !
 ! A39   A(9,10,30)            112.511          calculate D2E/DX2 analytically  !
 ! A40   A(11,10,29)           111.2337         calculate D2E/DX2 analytically  !
 ! A41   A(11,10,30)           110.757          calculate D2E/DX2 analytically  !
 ! A42   A(29,10,30)           108.1838         calculate D2E/DX2 analytically  !
 ! A43   A(7,11,10)            106.1196         calculate D2E/DX2 analytically  !
 ! A44   A(7,11,12)            101.1506         calculate D2E/DX2 analytically  !
 ! A45   A(7,11,31)            106.4311         calculate D2E/DX2 analytically  !
 ! A46   A(10,11,12)           119.0966         calculate D2E/DX2 analytically  !
 ! A47   A(10,11,31)           111.9999         calculate D2E/DX2 analytically  !
 ! A48   A(12,11,31)           110.5964         calculate D2E/DX2 analytically  !
 ! A49   A(11,12,13)           119.9617         calculate D2E/DX2 analytically  !
 ! A50   A(11,12,17)           122.0084         calculate D2E/DX2 analytically  !
 ! A51   A(13,12,17)           118.0109         calculate D2E/DX2 analytically  !
 ! A52   A(12,13,35)           105.3557         calculate D2E/DX2 analytically  !
 ! A53   A(12,13,36)           111.3633         calculate D2E/DX2 analytically  !
 ! A54   A(12,13,37)           114.2658         calculate D2E/DX2 analytically  !
 ! A55   A(35,13,36)           103.739          calculate D2E/DX2 analytically  !
 ! A56   A(35,13,37)           109.0438         calculate D2E/DX2 analytically  !
 ! A57   A(36,13,37)           112.261          calculate D2E/DX2 analytically  !
 ! A58   A(7,14,15)            150.4985         calculate D2E/DX2 analytically  !
 ! A59   A(14,15,16)           112.028          calculate D2E/DX2 analytically  !
 ! A60   A(14,15,18)           102.6899         calculate D2E/DX2 analytically  !
 ! A61   A(14,15,19)           106.4927         calculate D2E/DX2 analytically  !
 ! A62   A(16,15,18)           112.3296         calculate D2E/DX2 analytically  !
 ! A63   A(16,15,19)           114.9836         calculate D2E/DX2 analytically  !
 ! A64   A(18,15,19)           107.4158         calculate D2E/DX2 analytically  !
 ! A65   A(12,17,32)           113.062          calculate D2E/DX2 analytically  !
 ! A66   A(12,17,33)           105.6542         calculate D2E/DX2 analytically  !
 ! A67   A(12,17,34)           111.1823         calculate D2E/DX2 analytically  !
 ! A68   A(32,17,33)           107.9013         calculate D2E/DX2 analytically  !
 ! A69   A(32,17,34)           111.2722         calculate D2E/DX2 analytically  !
 ! A70   A(33,17,34)           107.3941         calculate D2E/DX2 analytically  !
 ! A71   A(8,26,38)            111.0896         calculate D2E/DX2 analytically  !
 ! A72   A(8,26,39)            124.3475         calculate D2E/DX2 analytically  !
 ! A73   A(38,26,39)           124.5485         calculate D2E/DX2 analytically  !
 ! A74   A(26,38,40)           116.7407         calculate D2E/DX2 analytically  !
 ! A75   A(38,40,41)           107.2558         calculate D2E/DX2 analytically  !
 ! A76   A(38,40,42)           107.3865         calculate D2E/DX2 analytically  !
 ! A77   A(38,40,43)           107.9712         calculate D2E/DX2 analytically  !
 ! A78   A(41,40,42)           112.7791         calculate D2E/DX2 analytically  !
 ! A79   A(41,40,43)           112.2568         calculate D2E/DX2 analytically  !
 ! A80   A(42,40,43)           108.9549         calculate D2E/DX2 analytically  !
 ! A81   A(40,41,44)           109.0462         calculate D2E/DX2 analytically  !
 ! A82   A(40,41,45)           110.5666         calculate D2E/DX2 analytically  !
 ! A83   A(40,41,46)           111.1958         calculate D2E/DX2 analytically  !
 ! A84   A(44,41,45)           108.577          calculate D2E/DX2 analytically  !
 ! A85   A(44,41,46)           108.5608         calculate D2E/DX2 analytically  !
 ! A86   A(45,41,46)           108.8335         calculate D2E/DX2 analytically  !
 ! D1    D(6,1,2,3)             -0.4761         calculate D2E/DX2 analytically  !
 ! D2    D(6,1,2,7)           -178.5478         calculate D2E/DX2 analytically  !
 ! D3    D(24,1,2,3)          -179.7032         calculate D2E/DX2 analytically  !
 ! D4    D(24,1,2,7)             2.2251         calculate D2E/DX2 analytically  !
 ! D5    D(2,1,6,5)              0.2569         calculate D2E/DX2 analytically  !
 ! D6    D(2,1,6,23)          -179.1081         calculate D2E/DX2 analytically  !
 ! D7    D(24,1,6,5)           179.5024         calculate D2E/DX2 analytically  !
 ! D8    D(24,1,6,23)            0.1374         calculate D2E/DX2 analytically  !
 ! D9    D(1,2,3,4)              0.5219         calculate D2E/DX2 analytically  !
 ! D10   D(1,2,3,20)           179.0542         calculate D2E/DX2 analytically  !
 ! D11   D(7,2,3,4)            178.6338         calculate D2E/DX2 analytically  !
 ! D12   D(7,2,3,20)            -2.8339         calculate D2E/DX2 analytically  !
 ! D13   D(1,2,7,8)            -28.088          calculate D2E/DX2 analytically  !
 ! D14   D(1,2,7,11)            84.3241         calculate D2E/DX2 analytically  !
 ! D15   D(1,2,7,14)          -157.5355         calculate D2E/DX2 analytically  !
 ! D16   D(3,2,7,8)            153.8664         calculate D2E/DX2 analytically  !
 ! D17   D(3,2,7,11)           -93.7215         calculate D2E/DX2 analytically  !
 ! D18   D(3,2,7,14)            24.4189         calculate D2E/DX2 analytically  !
 ! D19   D(2,3,4,5)             -0.35           calculate D2E/DX2 analytically  !
 ! D20   D(2,3,4,21)           178.7539         calculate D2E/DX2 analytically  !
 ! D21   D(20,3,4,5)          -178.9062         calculate D2E/DX2 analytically  !
 ! D22   D(20,3,4,21)            0.1977         calculate D2E/DX2 analytically  !
 ! D23   D(3,4,5,6)              0.1179         calculate D2E/DX2 analytically  !
 ! D24   D(3,4,5,22)           179.5183         calculate D2E/DX2 analytically  !
 ! D25   D(21,4,5,6)          -178.9762         calculate D2E/DX2 analytically  !
 ! D26   D(21,4,5,22)            0.4243         calculate D2E/DX2 analytically  !
 ! D27   D(4,5,6,1)             -0.0717         calculate D2E/DX2 analytically  !
 ! D28   D(4,5,6,23)           179.2893         calculate D2E/DX2 analytically  !
 ! D29   D(22,5,6,1)          -179.4731         calculate D2E/DX2 analytically  !
 ! D30   D(22,5,6,23)           -0.1121         calculate D2E/DX2 analytically  !
 ! D31   D(2,7,8,9)             95.5138         calculate D2E/DX2 analytically  !
 ! D32   D(2,7,8,25)           -26.7721         calculate D2E/DX2 analytically  !
 ! D33   D(2,7,8,26)          -143.8862         calculate D2E/DX2 analytically  !
 ! D34   D(11,7,8,9)           -20.3219         calculate D2E/DX2 analytically  !
 ! D35   D(11,7,8,25)         -142.6078         calculate D2E/DX2 analytically  !
 ! D36   D(11,7,8,26)          100.278          calculate D2E/DX2 analytically  !
 ! D37   D(14,7,8,9)          -134.6624         calculate D2E/DX2 analytically  !
 ! D38   D(14,7,8,25)          103.0517         calculate D2E/DX2 analytically  !
 ! D39   D(14,7,8,26)          -14.0625         calculate D2E/DX2 analytically  !
 ! D40   D(2,7,11,10)         -122.8195         calculate D2E/DX2 analytically  !
 ! D41   D(2,7,11,12)          112.2285         calculate D2E/DX2 analytically  !
 ! D42   D(2,7,11,31)           -3.3626         calculate D2E/DX2 analytically  !
 ! D43   D(8,7,11,10)           -2.7221         calculate D2E/DX2 analytically  !
 ! D44   D(8,7,11,12)         -127.6741         calculate D2E/DX2 analytically  !
 ! D45   D(8,7,11,31)          116.7347         calculate D2E/DX2 analytically  !
 ! D46   D(14,7,11,10)         115.3336         calculate D2E/DX2 analytically  !
 ! D47   D(14,7,11,12)          -9.6185         calculate D2E/DX2 analytically  !
 ! D48   D(14,7,11,31)        -125.2096         calculate D2E/DX2 analytically  !
 ! D49   D(2,7,14,15)           36.6588         calculate D2E/DX2 analytically  !
 ! D50   D(8,7,14,15)          -93.5755         calculate D2E/DX2 analytically  !
 ! D51   D(11,7,14,15)         155.2091         calculate D2E/DX2 analytically  !
 ! D52   D(7,8,9,10)            36.7622         calculate D2E/DX2 analytically  !
 ! D53   D(7,8,9,27)           158.2858         calculate D2E/DX2 analytically  !
 ! D54   D(7,8,9,28)           -82.0597         calculate D2E/DX2 analytically  !
 ! D55   D(25,8,9,10)          156.1972         calculate D2E/DX2 analytically  !
 ! D56   D(25,8,9,27)          -82.2792         calculate D2E/DX2 analytically  !
 ! D57   D(25,8,9,28)           37.3753         calculate D2E/DX2 analytically  !
 ! D58   D(26,8,9,10)          -83.0217         calculate D2E/DX2 analytically  !
 ! D59   D(26,8,9,27)           38.5019         calculate D2E/DX2 analytically  !
 ! D60   D(26,8,9,28)          158.1565         calculate D2E/DX2 analytically  !
 ! D61   D(7,8,26,38)           95.4166         calculate D2E/DX2 analytically  !
 ! D62   D(7,8,26,39)          -85.9082         calculate D2E/DX2 analytically  !
 ! D63   D(9,8,26,38)         -146.466          calculate D2E/DX2 analytically  !
 ! D64   D(9,8,26,39)           32.2092         calculate D2E/DX2 analytically  !
 ! D65   D(25,8,26,38)         -22.415          calculate D2E/DX2 analytically  !
 ! D66   D(25,8,26,39)         156.2601         calculate D2E/DX2 analytically  !
 ! D67   D(8,9,10,11)          -38.0547         calculate D2E/DX2 analytically  !
 ! D68   D(8,9,10,29)           81.2992         calculate D2E/DX2 analytically  !
 ! D69   D(8,9,10,30)         -158.7377         calculate D2E/DX2 analytically  !
 ! D70   D(27,9,10,11)        -159.7646         calculate D2E/DX2 analytically  !
 ! D71   D(27,9,10,29)         -40.4107         calculate D2E/DX2 analytically  !
 ! D72   D(27,9,10,30)          79.5524         calculate D2E/DX2 analytically  !
 ! D73   D(28,9,10,11)          80.4853         calculate D2E/DX2 analytically  !
 ! D74   D(28,9,10,29)        -160.1607         calculate D2E/DX2 analytically  !
 ! D75   D(28,9,10,30)         -40.1977         calculate D2E/DX2 analytically  !
 ! D76   D(9,10,11,7)           24.5654         calculate D2E/DX2 analytically  !
 ! D77   D(9,10,11,12)         137.5953         calculate D2E/DX2 analytically  !
 ! D78   D(9,10,11,31)         -91.1771         calculate D2E/DX2 analytically  !
 ! D79   D(29,10,11,7)         -93.2543         calculate D2E/DX2 analytically  !
 ! D80   D(29,10,11,12)         19.7757         calculate D2E/DX2 analytically  !
 ! D81   D(29,10,11,31)        151.0032         calculate D2E/DX2 analytically  !
 ! D82   D(30,10,11,7)         146.3946         calculate D2E/DX2 analytically  !
 ! D83   D(30,10,11,12)       -100.5755         calculate D2E/DX2 analytically  !
 ! D84   D(30,10,11,31)         30.6521         calculate D2E/DX2 analytically  !
 ! D85   D(7,11,12,13)         -90.7322         calculate D2E/DX2 analytically  !
 ! D86   D(7,11,12,17)          87.6494         calculate D2E/DX2 analytically  !
 ! D87   D(10,11,12,13)        153.5747         calculate D2E/DX2 analytically  !
 ! D88   D(10,11,12,17)        -28.0437         calculate D2E/DX2 analytically  !
 ! D89   D(31,11,12,13)         21.7295         calculate D2E/DX2 analytically  !
 ! D90   D(31,11,12,17)       -159.8889         calculate D2E/DX2 analytically  !
 ! D91   D(11,12,13,35)        103.1555         calculate D2E/DX2 analytically  !
 ! D92   D(11,12,13,36)       -145.0128         calculate D2E/DX2 analytically  !
 ! D93   D(11,12,13,37)        -16.5115         calculate D2E/DX2 analytically  !
 ! D94   D(17,12,13,35)        -75.2901         calculate D2E/DX2 analytically  !
 ! D95   D(17,12,13,36)         36.5416         calculate D2E/DX2 analytically  !
 ! D96   D(17,12,13,37)        165.0429         calculate D2E/DX2 analytically  !
 ! D97   D(11,12,17,32)        -25.6251         calculate D2E/DX2 analytically  !
 ! D98   D(11,12,17,33)         92.1662         calculate D2E/DX2 analytically  !
 ! D99   D(11,12,17,34)       -151.6312         calculate D2E/DX2 analytically  !
 ! D100  D(13,12,17,32)        152.7868         calculate D2E/DX2 analytically  !
 ! D101  D(13,12,17,33)        -89.4219         calculate D2E/DX2 analytically  !
 ! D102  D(13,12,17,34)         26.7807         calculate D2E/DX2 analytically  !
 ! D103  D(7,14,15,16)          16.3612         calculate D2E/DX2 analytically  !
 ! D104  D(7,14,15,18)        -104.384          calculate D2E/DX2 analytically  !
 ! D105  D(7,14,15,19)         142.871          calculate D2E/DX2 analytically  !
 ! D106  D(8,26,38,40)        -179.5175         calculate D2E/DX2 analytically  !
 ! D107  D(39,26,38,40)          1.8105         calculate D2E/DX2 analytically  !
 ! D108  D(26,38,40,41)        169.2593         calculate D2E/DX2 analytically  !
 ! D109  D(26,38,40,42)        -69.2675         calculate D2E/DX2 analytically  !
 ! D110  D(26,38,40,43)         48.0808         calculate D2E/DX2 analytically  !
 ! D111  D(38,40,41,44)        179.5735         calculate D2E/DX2 analytically  !
 ! D112  D(38,40,41,45)        -61.1184         calculate D2E/DX2 analytically  !
 ! D113  D(38,40,41,46)         59.9001         calculate D2E/DX2 analytically  !
 ! D114  D(42,40,41,44)         61.5517         calculate D2E/DX2 analytically  !
 ! D115  D(42,40,41,45)       -179.1402         calculate D2E/DX2 analytically  !
 ! D116  D(42,40,41,46)        -58.1217         calculate D2E/DX2 analytically  !
 ! D117  D(43,40,41,44)        -61.9884         calculate D2E/DX2 analytically  !
 ! D118  D(43,40,41,45)         57.3197         calculate D2E/DX2 analytically  !
 ! D119  D(43,40,41,46)        178.3382         calculate D2E/DX2 analytically  !
 --------------------------------------------------------------------------------
 Trust Radius=3.00D-01 FncErr=1.00D-07 GrdErr=1.00D-06 EigMax=2.50D+02 EigMin=1.00D-04
 Number of steps in this run=    262 maximum allowed number of steps=    276.
 Search for a saddle point of order  1.
 GradGradGradGradGradGradGradGradGradGradGradGradGradGradGradGradGradGrad

 Leave Link  103 at Wed Jun  2 16:56:24 2021, MaxMem=  2147483648 cpu:               0.2 elap:               0.0
 (Enter /SFS/product/gaussian/g16.a03/x86_64/avx/g16/l202.exe)
                          Input orientation:                          
 ---------------------------------------------------------------------
 Center     Atomic      Atomic             Coordinates (Angstroms)
 Number     Number       Type             X           Y           Z
 ---------------------------------------------------------------------
      1          6           0       -3.049551    0.762147   -1.492236
      2          6           0       -2.151941    0.101790   -0.638058
      3          6           0       -2.330339   -1.270688   -0.415973
      4          6           0       -3.368842   -1.966122   -1.037926
      5          6           0       -4.254024   -1.301146   -1.888717
      6          6           0       -4.088571    0.068701   -2.113852
      7          6           0       -1.032128    0.842963    0.075535
      8          6           0       -0.528668    2.119560   -0.690675
      9          6           0       -1.278967    3.321585   -0.101373
     10          6           0       -1.405766    3.016223    1.399677
     11          6           0       -1.669725    1.506429    1.482726
     12          6           0       -0.981006    0.719889    2.503194
     13          6           0       -1.580627   -0.513360    3.000210
     14          8           0        0.008596    0.014887    0.451805
     15         26           0        1.116152   -1.434513    0.123962
     16         17           0        1.056010   -2.058221   -1.983469
     17          6           0        0.333690    1.111821    3.034287
     18         17           0        0.284738   -3.023226    1.518188
     19         17           0        3.127009   -0.874476    0.878909
     20          1           0       -1.646435   -1.817241    0.226329
     21          1           0       -3.472264   -3.037458   -0.863536
     22          1           0       -5.060663   -1.845615   -2.380890
     23          1           0       -4.764708    0.599884   -2.784744
     24          1           0       -2.944267    1.825655   -1.695577
     25          1           0       -0.715786    1.980284   -1.759489
     26          6           0        0.974958    2.270394   -0.507717
     27          1           0       -0.750009    4.264783   -0.280762
     28          1           0       -2.272317    3.405339   -0.560072
     29          1           0       -0.469183    3.282239    1.896320
     30          1           0       -2.218053    3.579840    1.875946
     31          1           0       -2.737981    1.276693    1.476316
     32          1           0        0.914512    1.720346    2.334630
     33          1           0        0.122246    1.730536    3.929928
     34          1           0        0.903249    0.236383    3.367722
     35          1           0       -1.015968   -1.341169    2.498333
     36          1           0       -1.365922   -0.660970    4.068325
     37          1           0       -2.644607   -0.618740    2.773324
     38          8           0        1.638460    1.731284   -1.528966
     39          8           0        1.499368    2.833526    0.436670
     40          6           0        3.097052    1.797807   -1.473846
     41          6           0        3.628575    0.906339   -2.573397
     42          1           0        3.382898    2.850813   -1.604325
     43          1           0        3.413000    1.464132   -0.480559
     44          1           0        4.727249    0.940653   -2.563408
     45          1           0        3.309890   -0.131482   -2.415969
     46          1           0        3.277187    1.239566   -3.559742
 ---------------------------------------------------------------------
                    Distance matrix (angstroms):
                    1          2          3          4          5
     1  C    0.000000
     2  C    1.404064   0.000000
     3  C    2.409985   1.401729   0.000000
     4  C    2.784205   2.432489   1.396045   0.000000
     5  C    2.421803   2.819775   2.422905   1.396276   0.000000
     6  C    1.395291   2.435077   2.787138   2.411666   1.398049
     7  C    2.556254   1.520702   2.528725   3.819815   4.340058
     8  C    2.973200   2.590208   3.849060   4.987982   5.197577
     9  C    3.408840   3.378934   4.721581   5.762339   5.780589
    10  C    4.018215   3.633602   4.746475   5.883820   6.129093
    11  C    3.362778   2.589067   3.428388   4.615116   5.091926
    12  C    4.499347   3.408900   3.782147   5.045389   5.838331
    13  C    4.895582   3.733872   3.578536   4.649169   5.627545
    14  O    3.699994   2.421420   2.806485   4.189365   5.037848
    15  Fe   4.979005   3.690709   3.492373   4.663450   5.736502
    16  Cl   5.005139   4.094720   3.813740   4.525688   5.364569
    17  C    5.661979   4.548037   4.967665   6.305981   7.148811
    18  Cl   5.874452   4.511377   3.694725   4.582558   5.930676
    19  Cl   6.815479   5.578673   5.622842   6.860177   7.894394
    20  H    3.402270   2.164574   1.085816   2.141773   3.396954
    21  H    3.874396   3.413059   2.150763   1.090353   2.162620
    22  H    3.410968   3.910309   3.412640   2.163408   1.090572
    23  H    2.153757   3.418027   3.877663   3.403557   2.162771
    24  H    1.087879   2.172058   3.406117   3.871736   3.395534
    25  H    2.646080   2.617038   3.870483   4.809728   4.827381
    26  C    4.409168   3.807536   4.844860   6.090795   6.481150
    27  H    4.361654   4.407220   5.758226   6.801159   6.770761
    28  H    2.908520   3.306661   4.678607   5.503027   5.276690
    29  H    4.948886   4.401136   5.435048   6.675561   7.046910
    30  H    4.469388   4.292018   5.365922   6.369667   6.491679
    31  H    3.028883   2.488859   3.199387   4.151536   4.501898
    32  H    5.592570   4.567246   5.200111   6.581132   7.326653
    33  H    6.355937   5.356420   5.823176   7.108625   7.886664
    34  H    6.286513   5.039700   5.200356   6.520086   7.522740
    35  H    4.948135   3.634489   3.197768   4.293217   5.452781
    36  H    5.981614   4.832150   4.627179   5.638165   6.651113
    37  H    4.501759   3.521280   3.270385   4.106773   4.979009
    38  O    4.787277   4.220913   5.099211   6.243797   6.636748
    39  O    5.357607   4.685027   5.677872   6.993606   7.456840
    40  C    6.233270   5.579153   6.323870   7.494329   7.988363
    41  C    6.766614   6.148756   6.700939   7.718325   8.214447
    42  H    6.763985   6.255017   7.144230   8.313222   8.697254
    43  H    6.578817   5.731435   6.361553   7.620412   8.271211
    44  H    7.852254   7.192629   7.701367   8.736311   9.281387
    45  H    6.488016   5.748650   6.091794   7.061895   7.671956
    46  H    6.673090   6.269466   6.901377   7.797801   8.121988
                    6          7          8          9         10
     6  C    0.000000
     7  C    3.838586   0.000000
     8  C    4.347915   1.571703   0.000000
     9  C    4.746072   2.497157   1.534630   0.000000
    10  C    5.313211   2.572162   2.437802   1.537034   0.000000
    11  C    4.566536   1.681340   2.530141   2.440666   1.534943
    12  C    5.603403   2.431314   3.516317   3.693423   2.582890
    13  C    5.725575   3.270197   4.654194   4.941419   3.879464
    14  O    4.834487   1.382171   2.454295   3.591389   3.450637
    15  Fe   5.861451   3.131190   4.000063   5.329900   5.272245
    16  Cl   5.568439   4.125129   4.651492   6.159279   6.576929
    17  C    6.866428   3.269856   3.954054   4.161260   3.053589
    18  Cl   6.471287   4.331605   5.655878   6.732368   6.272702
    19  Cl   7.868341   4.570933   4.979138   6.162833   5.996231
    20  H    3.872629   2.734373   4.193889   5.162359   4.979663
    21  H    3.404607   4.679080   5.940494   6.769703   6.785249
    22  H    2.163534   5.430614   6.254472   6.796865   7.161594
    23  H    1.090602   4.708762   4.963726   5.172864   5.884774
    24  H    2.138054   2.785462   2.632741   2.748184   3.655822
    25  H    3.892994   2.181945   1.093972   2.205813   3.395522
    26  C    5.750343   2.531035   1.522208   2.519979   3.140423
    27  H    5.666862   3.451868   2.195223   1.096175   2.193808
    28  H    4.104408   2.916819   2.170391   1.097344   2.177829
    29  H    6.285561   3.095518   2.836883   2.155940   1.092981
    30  H    5.634308   3.484020   3.402056   2.204171   1.097409
    31  H    4.021523   2.249499   3.207388   2.966380   2.192404
    32  H    6.895489   3.108491   3.375590   3.648209   2.817290
    33  H    7.551156   4.120280   4.682414   4.554802   3.223349
    34  H    7.415796   3.866797   4.697587   5.129830   4.114883
    35  H    5.718468   3.262000   4.731160   5.344990   4.510638
    36  H    6.794450   4.279673   5.574982   5.766688   4.543679
    37  H    5.142188   3.466227   4.896404   5.065078   4.078552
    38  O    5.992091   3.239688   2.355830   3.616415   4.415352
    39  O    6.736058   3.240560   2.427671   2.871731   3.066034
    40  C    7.418396   4.512476   3.723268   4.832714   5.478781
    41  C    7.776063   5.361251   4.722205   6.002357   6.751409
    42  H    7.988906   5.132820   4.082871   4.920719   5.655324
    43  H    7.803105   4.522638   4.001310   5.060481   5.400443
    44  H    8.870236   6.335928   5.702772   6.914122   7.591305
    45  H    7.407332   5.100025   4.772668   6.191820   6.834077
    46  H    7.597099   5.651790   4.846697   6.087172   7.048574
                   11         12         13         14         15
    11  C    0.000000
    12  C    1.460936   0.000000
    13  C    2.527893   1.458586   0.000000
    14  O    2.470679   2.384227   3.049433   0.000000
    15  Fe   4.272761   3.834092   4.048943   1.853354   0.000000
    16  Cl   5.670174   5.656631   5.845982   3.365325   2.198612
    17  C    2.564513   1.471087   2.511371   2.824564   3.945384
    18  Cl   4.933453   4.072254   3.460550   3.231649   2.271371
    19  Cl   5.389059   4.696391   5.176114   3.270762   2.219714
    20  H    3.553288   3.473318   3.065755   2.479246   2.790851
    21  H    5.422269   5.626624   4.987774   4.812829   4.959652
    22  H    6.136953   6.861464   6.545364   6.097788   6.678049
    23  H    5.349023   6.503314   6.696520   5.796715   6.869051
    24  H    3.439182   4.765164   5.420417   4.075479   5.516015
    25  H    3.412696   4.453022   5.442513   3.045872   4.308622
    26  C    3.397036   3.910939   5.156147   2.634739   3.761022
    27  H    3.400630   4.513319   5.855370   4.378784   6.010685
    28  H    2.853419   4.273491   5.339499   4.209706   5.947587
    29  H    2.183085   2.682517   4.106148   3.604232   5.282262
    30  H    2.180440   3.178529   4.292385   4.437909   6.271372
    31  H    1.092699   2.109851   2.620307   3.191467   4.902432
    32  H    2.729429   2.149957   3.414404   2.697092   3.857570
    33  H    3.041411   2.067400   2.966348   3.879911   5.048838
    34  H    3.433136   2.128756   2.620462   3.058110   3.655024
    35  H    3.093165   2.061360   1.120709   2.660244   3.192536
    36  H    3.387512   2.122397   1.099435   3.927505   4.724094
    37  H    2.670652   2.152316   1.092994   3.581958   4.672035
    38  O    4.479390   4.913536   5.992861   3.086410   3.609328
    39  O    3.591458   3.858787   5.221087   3.188629   4.296603
    40  C    5.616795   5.797354   6.873089   4.052838   4.113982
    41  C    6.699569   6.859648   7.759924   4.801123   4.366647
    42  H    6.071759   6.360519   7.560158   4.863750   5.146759
    43  H    5.448887   5.363205   6.400198   3.815702   3.747412
    44  H    7.590295   7.635664   8.535649   5.675759   5.089538
    45  H    6.532927   6.582916   7.307392   4.375396   3.600226
    46  H    7.068921   7.427076   8.348897   5.317522   5.038893
                   16         17         18         19         20
    16  Cl   0.000000
    17  C    5.979029   0.000000
    18  Cl   3.713179   4.404494   0.000000
    19  Cl   3.726056   4.048909   3.619987   0.000000
    20  H    3.499212   4.514967   2.617772   4.909219   0.000000
    21  H    4.766384   6.847980   4.448357   7.159959   2.451609
    22  H    6.133256   8.195707   6.720334   8.866080   4.295969
    23  H    6.448901   7.753507   7.559038   8.824698   4.963132
    24  H    5.582973   5.798808   6.653300   7.125944   4.318424
    25  H    4.415762   4.983565   6.064596   5.466066   4.385291
    26  C    4.573983   3.781443   5.709913   4.055153   4.911139
    27  H    6.792738   4.701609   7.577730   6.541260   6.168609
    28  H    6.553954   4.997091   7.223859   7.038480   5.318411
    29  H    6.774916   2.578815   6.361625   5.589812   5.493586
    30  H    7.576431   3.734202   7.070533   7.028848   5.672430
    31  H    6.122592   3.448133   5.256224   6.275550   3.510893
    32  H    5.739649   1.094156   4.854345   3.707744   4.849526
    33  H    7.084833   1.108914   5.333024   5.012325   5.425090
    34  H    5.824413   1.096343   3.798471   3.517571   4.537247
    35  H    4.989369   2.850611   2.341332   4.472650   2.405439
    36  H    6.666504   2.664715   3.848133   5.514017   4.022012
    37  H    6.196269   3.454446   3.992240   6.079947   2.986626
    38  O    3.860851   4.786380   5.807157   3.847548   5.144281
    39  O    5.475658   3.327264   6.078367   4.073582   5.618715
    40  C    4.392553   5.331980   6.332751   3.560541   6.201599
    41  C    3.969222   6.507274   6.585119   3.916796   6.563694
    42  H    5.445803   5.817086   7.338461   4.484385   7.101846
    43  H    4.496789   4.686194   5.823864   2.720116   6.071654
    44  H    4.775727   7.118065   7.218564   4.207732   7.484147
    45  H    2.996557   6.333156   5.743807   3.382559   5.864186
    46  H    4.277109   7.222307   7.274031   4.918674   6.922460
                   21         22         23         24         25
    21  H    0.000000
    22  H    2.499173   0.000000
    23  H    4.311810   2.496228   0.000000
    24  H    4.961949   4.292669   2.450062   0.000000
    25  H    5.794708   5.822508   4.398911   2.234753   0.000000
    26  C    6.933807   7.541819   6.396813   4.119360   2.123608
    27  H    7.814923   7.767190   5.984916   3.572928   2.721533
    28  H    6.560609   6.217939   4.362540   2.058225   2.427380
    29  H    7.521560   8.103771   6.896298   4.598848   3.888552
    30  H    7.270931   7.458998   6.089961   4.044790   4.246384
    31  H    4.962457   5.479206   4.766794   3.225650   3.880045
    32  H    7.218640   8.405648   7.727675   5.580666   4.414437
    33  H    7.657125   8.915034   8.381379   6.407718   5.756226
    34  H    6.911345   8.541048   8.373214   6.554858   5.652500
    35  H    4.495881   6.357739   6.762517   5.597856   5.408439
    36  H    5.865801   7.526411   7.752809   6.472793   6.431354
    37  H    4.445443   5.823098   6.072231   5.102542   5.569710
    38  O    7.021624   7.641873   6.622507   4.586726   2.378574
    39  O    7.802315   8.536218   7.389541   5.030723   3.233890
    40  C    8.179742   8.980288   8.059823   6.045451   3.827875
    41  C    8.300547   9.116642   8.401534   6.694622   4.548547
    42  H    9.067180   9.692946   8.534844   6.410327   4.192983
    43  H    8.235159   9.293473   8.539971   6.482423   4.353039
    44  H    9.270758  10.178400   9.500651   7.771005   5.599442
    45  H    7.540050   8.544334   8.116035   6.592710   4.593102
    46  H    8.433122   8.968153   8.104436   6.521127   4.442230
                   26         27         28         29         30
    26  C    0.000000
    27  H    2.646622   0.000000
    28  H    3.440296   1.770333   0.000000
    29  H    2.981404   2.404983   3.049641   0.000000
    30  H    4.194260   2.697349   2.442863   1.774127   0.000000
    31  H    4.325476   3.996003   2.982424   3.057133   2.394685
    32  H    2.895711   4.010619   4.623243   2.132191   3.671658
    33  H    4.550962   4.991307   5.357144   2.625477   3.621570
    34  H    4.377370   5.680907   5.962723   3.650456   4.811094
    35  H    5.103284   6.262651   5.784600   4.694390   5.103793
    36  H    5.917159   6.599769   6.227237   4.590277   4.849446
    37  H    5.675700   6.063476   5.238639   4.551839   4.314546
    38  O    1.331850   3.698840   4.362957   4.310476   5.466560
    39  O    1.218191   2.760960   3.942851   2.491408   4.055579
    40  C    2.379081   4.723272   5.678844   5.126362   6.530474
    41  C    3.628962   5.975560   6.717068   6.512672   7.818396
    42  H    2.708802   4.564214   5.777493   5.222947   6.634336
    43  H    2.568043   5.021375   6.008114   4.901674   6.460503
    44  H    4.480375   6.801520   7.686479   7.237065   8.655079
    45  H    3.855171   6.353663   6.864000   6.673134   7.921654
    46  H    3.959510   6.010154   6.669752   6.926501   8.075967
                   31         32         33         34         35
    31  H    0.000000
    32  H    3.778126   0.000000
    33  H    3.795666   1.781226   0.000000
    34  H    4.232992   1.808190   1.777227   0.000000
    35  H    3.295914   3.623041   3.574964   2.632091   0.000000
    36  H    3.515053   3.725150   2.820124   2.538745   1.746429
    37  H    2.298611   4.281484   3.809502   3.697543   1.802773
    38  O    5.328378   3.930852   5.665548   5.172313   5.718837
    39  O    4.632464   2.276725   3.913554   3.961259   5.292017
    40  C    6.559163   4.390213   6.168855   5.540000   6.522907
    41  C    7.554494   5.667228   7.434170   6.570627   7.235020
    42  H    7.030886   4.783958   6.520340   6.140452   7.331749
    43  H    6.457481   3.772715   5.509304   4.755574   6.029865
    44  H    8.494819   6.255850   7.999586   7.092057   7.988271
    45  H    7.328682   5.633409   7.341566   6.275215   6.657834
    46  H    7.845094   6.368438   8.141859   7.391327   7.860766
                   36         37         38         39         40
    36  H    0.000000
    37  H    1.820397   0.000000
    38  O    6.788141   6.509760   0.000000
    39  O    5.797440   5.877978   2.257877   0.000000
    40  C    7.528571   7.539549   1.461148   2.697291   0.000000
    41  C    8.456591   8.382488   2.394145   4.160298   1.512033
    42  H    8.189192   8.217811   2.074148   2.777345   1.098888
    43  H    6.931558   7.184756   2.078345   2.525576   1.094432
    44  H    9.147230   9.233454   3.351982   4.796108   2.139953
    45  H    8.011844   7.913420   2.655249   4.495199   2.157557
    46  H    9.130055   8.867281   2.655422   4.655390   2.166805
                   41         42         43         44         45
    41  C    0.000000
    42  H    2.186421   0.000000
    43  H    2.176597   1.785116   0.000000
    44  H    1.099255   2.525041   2.517844   0.000000
    45  H    1.097003   3.091631   2.510464   1.783289   0.000000
    46  H    1.098813   2.535931   3.090347   1.784576   1.785794
                   46
    46  H    0.000000
 Stoichiometry    C17H22Cl3FeO3(6)
 Framework group  C1[X(C17H22Cl3FeO3)]
 Deg. of freedom   132
 Full point group                 C1      NOp   1
 Largest Abelian subgroup         C1      NOp   1
 Largest concise Abelian subgroup C1      NOp   1
                         Standard orientation:                         
 ---------------------------------------------------------------------
 Center     Atomic      Atomic             Coordinates (Angstroms)
 Number     Number       Type             X           Y           Z
 ---------------------------------------------------------------------
      1          6           0       -3.049551    0.762147   -1.492236
      2          6           0       -2.151941    0.101790   -0.638058
      3          6           0       -2.330339   -1.270688   -0.415973
      4          6           0       -3.368842   -1.966122   -1.037926
      5          6           0       -4.254024   -1.301146   -1.888717
      6          6           0       -4.088571    0.068701   -2.113852
      7          6           0       -1.032128    0.842963    0.075535
      8          6           0       -0.528668    2.119560   -0.690675
      9          6           0       -1.278967    3.321585   -0.101373
     10          6           0       -1.405766    3.016223    1.399677
     11          6           0       -1.669725    1.506429    1.482726
     12          6           0       -0.981006    0.719889    2.503194
     13          6           0       -1.580627   -0.513360    3.000210
     14          8           0        0.008596    0.014887    0.451805
     15         26           0        1.116152   -1.434513    0.123962
     16         17           0        1.056010   -2.058221   -1.983469
     17          6           0        0.333690    1.111821    3.034287
     18         17           0        0.284738   -3.023226    1.518188
     19         17           0        3.127009   -0.874476    0.878909
     20          1           0       -1.646435   -1.817241    0.226329
     21          1           0       -3.472264   -3.037458   -0.863536
     22          1           0       -5.060663   -1.845615   -2.380890
     23          1           0       -4.764708    0.599884   -2.784744
     24          1           0       -2.944267    1.825655   -1.695577
     25          1           0       -0.715786    1.980284   -1.759489
     26          6           0        0.974958    2.270394   -0.507717
     27          1           0       -0.750009    4.264783   -0.280762
     28          1           0       -2.272317    3.405339   -0.560072
     29          1           0       -0.469183    3.282239    1.896320
     30          1           0       -2.218053    3.579840    1.875946
     31          1           0       -2.737981    1.276693    1.476316
     32          1           0        0.914512    1.720346    2.334630
     33          1           0        0.122246    1.730536    3.929928
     34          1           0        0.903249    0.236383    3.367722
     35          1           0       -1.015968   -1.341169    2.498333
     36          1           0       -1.365922   -0.660970    4.068325
     37          1           0       -2.644607   -0.618740    2.773324
     38          8           0        1.638460    1.731284   -1.528966
     39          8           0        1.499368    2.833526    0.436670
     40          6           0        3.097052    1.797807   -1.473846
     41          6           0        3.628575    0.906339   -2.573397
     42          1           0        3.382898    2.850813   -1.604325
     43          1           0        3.413000    1.464132   -0.480559
     44          1           0        4.727249    0.940653   -2.563408
     45          1           0        3.309890   -0.131482   -2.415969
     46          1           0        3.277187    1.239566   -3.559742
 ---------------------------------------------------------------------
 Rotational constants (GHZ):           0.2059895           0.1729208           0.1507392
 Leave Link  202 at Wed Jun  2 16:56:24 2021, MaxMem=  2147483648 cpu:               0.2 elap:               0.0
 (Enter /SFS/product/gaussian/g16.a03/x86_64/avx/g16/l301.exe)
 Standard basis: Jul-CC-pVDZ (5D, 7F)
 Ernie: Thresh=  0.10000D-02 Tol=  0.10000D-05 Strict=F.
 Ernie:  134 primitive shells out of 958 were deleted.
 There are   766 symmetry adapted cartesian basis functions of A   symmetry.
 There are   710 symmetry adapted basis functions of A   symmetry.
   710 basis functions,  1571 primitive gaussians,   766 cartesian basis functions
   115 alpha electrons      110 beta electrons
       nuclear repulsion energy      3413.2065337774 Hartrees.
 IExCor=  402 DFT=T Ex+Corr=B3LYP ExCW=0 ScaHFX=  0.200000
 ScaDFX=  0.800000  0.720000  1.000000  0.810000 ScalE2=  1.000000  1.000000
 IRadAn=      5 IRanWt=     -1 IRanGd=            0 ICorTp=0 IEmpDi=141
 NAtoms=   46 NActive=   46 NUniq=   46 SFac= 1.00D+00 NAtFMM=   60 NAOKFM=F Big=F
 Integral buffers will be    131072 words long.
 Raffenetti 2 integral format.
 Two-electron integral symmetry is turned on.
 R6Disp:  Grimme-D3(BJ) Dispersion energy=       -0.1244072856 Hartrees.
 Nuclear repulsion after empirical dispersion term =     3413.0821264918 Hartrees.
 Leave Link  301 at Wed Jun  2 16:56:25 2021, MaxMem=  2147483648 cpu:               1.0 elap:               0.1
 (Enter /SFS/product/gaussian/g16.a03/x86_64/avx/g16/l302.exe)
 NPDir=0 NMtPBC=     1 NCelOv=     1 NCel=       1 NClECP=     1 NCelD=      1
         NCelK=      1 NCelE2=     1 NClLst=     1 CellRange=     0.0.
 One-electron integrals computed using PRISM.
 One-electron integral symmetry used in STVInt
 NBasis=   710 RedAO= T EigKep=  1.62D-06  NBF=   710
 NBsUse=   710 1.00D-06 EigRej= -1.00D+00 NBFU=   710
 Precomputing XC quadrature grid using
 IXCGrd= 4 IRadAn=           5 IRanWt=          -1 IRanGd=           0 AccXCQ= 0.00D+00.
 Generated NRdTot=       0 NPtTot=           0 NUsed=           0 NTot=          32
 NSgBfM=   764   763   763   764   764 MxSgAt=    46 MxSgA2=    46.
 Leave Link  302 at Wed Jun  2 16:56:26 2021, MaxMem=  2147483648 cpu:              16.3 elap:               1.1
 (Enter /SFS/product/gaussian/g16.a03/x86_64/avx/g16/l303.exe)
 DipDrv:  MaxL=1.
 Leave Link  303 at Wed Jun  2 16:56:26 2021, MaxMem=  2147483648 cpu:               2.4 elap:               0.2
 (Enter /SFS/product/gaussian/g16.a03/x86_64/avx/g16/l401.exe)
 ExpMin= 1.40D-02 ExpMax= 4.32D+06 ExpMxC= 4.91D+03 IAcc=3 IRadAn=         5 AccDes= 0.00D+00
 Harris functional with IExCor=  402 and IRadAn=       5 diagonalized for initial guess.
 HarFok:  IExCor=  402 AccDes= 0.00D+00 IRadAn=         5 IDoV= 1 UseB2=F ITyADJ=14
 ICtDFT=  3500011 ScaDFX=  1.000000  1.000000  1.000000  1.000000
 FoFCou: FMM=F IPFlag=           0 FMFlag=      100000 FMFlg1=           0
         NFxFlg=           0 DoJE=T BraDBF=F KetDBF=T FulRan=T
         wScrn=  0.000000 ICntrl=       500 IOpCl=  0 I1Cent=   200000004 NGrid=           0
         NMat0=    1 NMatS0=      1 NMatT0=    0 NMatD0=    1 NMtDS0=    0 NMtDT0=    0
 Petite list used in FoFCou.
 Harris En= -3531.21079259125    
 JPrj=0 DoOrth=F DoCkMO=F.
 Initial guess <Sx>= 0.0000 <Sy>= 0.0000 <Sz>= 2.5000 <S**2>= 8.7500 S= 2.5000
 Leave Link  401 at Wed Jun  2 16:56:32 2021, MaxMem=  2147483648 cpu:              97.3 elap:               6.1
 (Enter /SFS/product/gaussian/g16.a03/x86_64/avx/g16/l502.exe)
 Integral symmetry usage will be decided dynamically.
 UHF open shell SCF:
 Using DIIS extrapolation, IDIIS=  1040.
 NGot=  2147483648 LenX=  2146290678 LenY=  2145703156
 Requested convergence on RMS density matrix=1.00D-08 within 128 cycles.
 Requested convergence on MAX density matrix=1.00D-06.
 Requested convergence on             energy=1.00D-06.
 No special actions if energy rises.
 Fock matrices will be formed incrementally for  20 cycles.

 Cycle   1  Pass 1  IDiag  1:
 FoFJK:  IHMeth= 1 ICntrl=       0 DoSepK=F KAlg= 0 I1Cent=           0 FoldK=F
 IRaf= 930000000 NMat=       1 IRICut=       1 DoRegI=T DoRafI=F ISym2E= 0 IDoP0=0 IntGTp=1.
 FoFCou: FMM=F IPFlag=           0 FMFlag=      100000 FMFlg1=           0
         NFxFlg=           0 DoJE=F BraDBF=F KetDBF=F FulRan=T
         wScrn=  0.000000 ICntrl=         0 IOpCl=  1 I1Cent=           0 NGrid=           0
         NMat0=    1 NMatS0=      1 NMatT0=    0 NMatD0=    1 NMtDS0=    0 NMtDT0=    0
 Symmetry not used in FoFCou.
 E= -3530.44619041532    
 DIIS: error= 1.93D-02 at cycle   1 NSaved=   1.
 NSaved= 1 IEnMin= 1 EnMin= -3530.44619041532     IErMin= 1 ErrMin= 1.93D-02
 ErrMax= 1.93D-02  0.00D+00 EMaxC= 1.00D-01 BMatC= 4.80D+00 BMatP= 4.80D+00
 IDIUse=3 WtCom= 8.07D-01 WtEn= 1.93D-01
 Coeff-Com:  0.100D+01
 Coeff-En:   0.100D+01
 Coeff:      0.100D+01
 Gap=     0.100 Goal=   None    Shift=    0.000
 Gap=     0.331 Goal=   None    Shift=    0.000
 GapD=    0.100 DampG=1.000 DampE=0.250 DampFc=0.2500 IDamp=-1.
 Damping current iteration by 2.50D-01
 RMSDP=3.46D-02 MaxDP=9.02D+00              OVMax= 8.19D-01

 Cycle   2  Pass 1  IDiag  1:
 RMSU=  4.75D-03    CP:  9.03D-01
 E= -3530.52331635717     Delta-E=       -0.077125941849 Rises=F Damp=T
 DIIS: error= 1.28D-02 at cycle   2 NSaved=   2.
 NSaved= 2 IEnMin= 2 EnMin= -3530.52331635717     IErMin= 2 ErrMin= 1.28D-02
 ErrMax= 1.28D-02  0.00D+00 EMaxC= 1.00D-01 BMatC= 1.35D+00 BMatP= 4.80D+00
 IDIUse=3 WtCom= 8.72D-01 WtEn= 1.28D-01
 Coeff-Com:  0.255D+00 0.745D+00
 Coeff-En:   0.469D+00 0.531D+00
 Coeff:      0.283D+00 0.717D+00
 Gap=     0.383 Goal=   None    Shift=    0.000
 Gap=     0.022 Goal=   None    Shift=    0.000
 RMSDP=2.50D-02 MaxDP=8.16D+00 DE=-7.71D-02 OVMax= 9.73D-01

 Cycle   3  Pass 1  IDiag  1:
 RMSU=  8.15D-03    CP:  5.89D-01  1.21D+00
 E= -3530.23742151563     Delta-E=        0.285894841545 Rises=F Damp=F
 DIIS: error= 3.45D-02 at cycle   3 NSaved=   3.
 NSaved= 3 IEnMin= 2 EnMin= -3530.52331635717     IErMin= 2 ErrMin= 1.28D-02
 ErrMax= 3.45D-02  0.00D+00 EMaxC= 1.00D-01 BMatC= 5.78D+00 BMatP= 1.35D+00
 IDIUse=2 WtCom= 0.00D+00 WtEn= 1.00D+00
 EnCoef did     4 forward-backward iterations
 Coeff-En:   0.796D-01 0.533D+00 0.387D+00
 Coeff:      0.796D-01 0.533D+00 0.387D+00
 Gap=    -0.187 Goal=   None    Shift=    0.000
 Gap=     0.258 Goal=   None    Shift=    0.000
 RMSDP=6.53D-03 MaxDP=5.58D-01 DE= 2.86D-01 OVMax= 6.23D-01

 Cycle   4  Pass 1  IDiag  1:
 RMSU=  5.11D-03    CP:  6.11D-01  1.42D+00  5.60D-01
 E= -3526.73419225590     Delta-E=        3.503229259731 Rises=F Damp=F
 DIIS: error= 6.33D-02 at cycle   4 NSaved=   4.
 NSaved= 4 IEnMin= 2 EnMin= -3530.52331635717     IErMin= 2 ErrMin= 1.28D-02
 ErrMax= 6.33D-02  0.00D+00 EMaxC= 1.00D-01 BMatC= 3.01D+01 BMatP= 1.35D+00
 IDIUse=2 WtCom= 0.00D+00 WtEn= 1.00D+00
 EnCoef did     5 forward-backward iterations
 Coeff-En:   0.176D+00 0.000D+00 0.541D+00 0.283D+00
 Coeff:      0.176D+00 0.000D+00 0.541D+00 0.283D+00
 Gap=     0.143 Goal=   None    Shift=    0.000
 Gap=    -0.004 Goal=   None    Shift=    0.000
 RMSDP=4.09D-03 MaxDP=4.47D-01 DE= 3.50D+00 OVMax= 8.33D-01

 Cycle   5  Pass 1  IDiag  1:
 RMSU=  2.84D-03    CP:  6.27D-01  1.08D+00  6.60D-01  6.15D-01
 E= -3531.38647222457     Delta-E=       -4.652279968668 Rises=F Damp=F
 DIIS: error= 7.52D-03 at cycle   5 NSaved=   5.
 NSaved= 5 IEnMin= 5 EnMin= -3531.38647222457     IErMin= 5 ErrMin= 7.52D-03
 ErrMax= 7.52D-03  0.00D+00 EMaxC= 1.00D-01 BMatC= 5.33D-01 BMatP= 1.35D+00
 IDIUse=3 WtCom= 9.25D-01 WtEn= 7.52D-02
 Coeff-Com: -0.394D-01 0.408D+00 0.259D+00-0.777D-02 0.381D+00
 Coeff-En:   0.000D+00 0.000D+00 0.115D+00 0.000D+00 0.885D+00
 Coeff:     -0.364D-01 0.377D+00 0.248D+00-0.719D-02 0.419D+00
 Gap=     0.030 Goal=   None    Shift=    0.000
 Gap=     0.192 Goal=   None    Shift=    0.000
 RMSDP=3.50D-03 MaxDP=4.84D-01 DE=-4.65D+00 OVMax= 1.69D-01

 Cycle   6  Pass 1  IDiag  1:
 RMSU=  2.50D-03    CP:  6.05D-01  1.01D+00  7.27D-01  6.04D-01  3.91D-01
 E= -3531.44448866724     Delta-E=       -0.058016442673 Rises=F Damp=F
 DIIS: error= 4.60D-03 at cycle   6 NSaved=   6.
 NSaved= 6 IEnMin= 6 EnMin= -3531.44448866724     IErMin= 6 ErrMin= 4.60D-03
 ErrMax= 4.60D-03  0.00D+00 EMaxC= 1.00D-01 BMatC= 3.38D-01 BMatP= 5.33D-01
 IDIUse=3 WtCom= 9.54D-01 WtEn= 4.60D-02
 Coeff-Com: -0.567D-01 0.191D+00 0.144D+00-0.303D-01 0.337D+00 0.415D+00
 Coeff-En:   0.000D+00 0.000D+00 0.000D+00 0.000D+00 0.353D+00 0.647D+00
 Coeff:     -0.541D-01 0.182D+00 0.137D+00-0.289D-01 0.338D+00 0.426D+00
 Gap=     0.077 Goal=   None    Shift=    0.000
 Gap=     0.139 Goal=   None    Shift=    0.000
 RMSDP=1.52D-03 MaxDP=1.30D-01 DE=-5.80D-02 OVMax= 1.34D-01

 Cycle   7  Pass 1  IDiag  1:
 RMSU=  1.05D-03    CP:  6.12D-01  1.03D+00  6.96D-01  5.74D-01  6.02D-01
                    CP:  7.11D-01
 E= -3531.52704099938     Delta-E=       -0.082552332138 Rises=F Damp=F
 DIIS: error= 9.80D-04 at cycle   7 NSaved=   7.
 NSaved= 7 IEnMin= 7 EnMin= -3531.52704099938     IErMin= 7 ErrMin= 9.80D-04
 ErrMax= 9.80D-04  0.00D+00 EMaxC= 1.00D-01 BMatC= 1.66D-02 BMatP= 3.38D-01
 IDIUse=3 WtCom= 9.90D-01 WtEn= 9.80D-03
 Coeff-Com: -0.114D-01 0.407D-01 0.275D-01-0.630D-02 0.663D-01 0.179D+00
 Coeff-Com:  0.705D+00
 Coeff-En:   0.000D+00 0.000D+00 0.000D+00 0.000D+00 0.000D+00 0.000D+00
 Coeff-En:   0.100D+01
 Coeff:     -0.113D-01 0.403D-01 0.272D-01-0.624D-02 0.656D-01 0.177D+00
 Coeff:      0.708D+00
 Gap=     0.112 Goal=   None    Shift=    0.000
 Gap=     0.129 Goal=   None    Shift=    0.000
 RMSDP=6.06D-04 MaxDP=5.74D-02 DE=-8.26D-02 OVMax= 3.76D-02

 Cycle   8  Pass 1  IDiag  1:
 RMSU=  5.74D-04    CP:  6.13D-01  1.01D+00  6.86D-01  5.82D-01  6.33D-01
                    CP:  7.23D-01  1.09D+00
 E= -3531.52995770509     Delta-E=       -0.002916705711 Rises=F Damp=F
 DIIS: error= 6.32D-04 at cycle   8 NSaved=   8.
 NSaved= 8 IEnMin= 8 EnMin= -3531.52995770509     IErMin= 8 ErrMin= 6.32D-04
 ErrMax= 6.32D-04  0.00D+00 EMaxC= 1.00D-01 BMatC= 8.54D-03 BMatP= 1.66D-02
 IDIUse=3 WtCom= 9.94D-01 WtEn= 6.32D-03
 Coeff-Com:  0.732D-03 0.668D-02-0.112D-01 0.344D-02-0.453D-01 0.224D-01
 Coeff-Com:  0.435D+00 0.588D+00
 Coeff-En:   0.000D+00 0.000D+00 0.000D+00 0.000D+00 0.000D+00 0.000D+00
 Coeff-En:   0.173D+00 0.827D+00
 Coeff:      0.728D-03 0.664D-02-0.111D-01 0.342D-02-0.450D-01 0.223D-01
 Coeff:      0.434D+00 0.589D+00
 Gap=     0.112 Goal=   None    Shift=    0.000
 Gap=     0.118 Goal=   None    Shift=    0.000
 RMSDP=3.15D-04 MaxDP=2.15D-02 DE=-2.92D-03 OVMax= 1.32D-02

 Cycle   9  Pass 1  IDiag  1:
 RMSU=  2.44D-04    CP:  6.12D-01  1.01D+00  6.89D-01  5.85D-01  6.18D-01
                    CP:  7.78D-01  1.19D+00  9.03D-01
 E= -3531.53160690304     Delta-E=       -0.001649197954 Rises=F Damp=F
 DIIS: error= 5.49D-04 at cycle   9 NSaved=   9.
 NSaved= 9 IEnMin= 9 EnMin= -3531.53160690304     IErMin= 9 ErrMin= 5.49D-04
 ErrMax= 5.49D-04  0.00D+00 EMaxC= 1.00D-01 BMatC= 2.40D-03 BMatP= 8.54D-03
 IDIUse=3 WtCom= 9.95D-01 WtEn= 5.49D-03
 Coeff-Com: -0.543D-02 0.115D-01-0.543D-02 0.198D-02-0.128D-01 0.127D-01
 Coeff-Com:  0.600D-01 0.205D+00 0.733D+00
 Coeff-En:   0.000D+00 0.000D+00 0.000D+00 0.000D+00 0.000D+00 0.000D+00
 Coeff-En:   0.000D+00 0.000D+00 0.100D+01
 Coeff:     -0.540D-02 0.114D-01-0.540D-02 0.197D-02-0.128D-01 0.126D-01
 Coeff:      0.597D-01 0.204D+00 0.734D+00
 Gap=     0.113 Goal=   None    Shift=    0.000
 Gap=     0.116 Goal=   None    Shift=    0.000
 RMSDP=1.36D-04 MaxDP=1.73D-02 DE=-1.65D-03 OVMax= 7.39D-03

 Cycle  10  Pass 1  IDiag  1:
 RMSU=  1.25D-04    CP:  6.12D-01  1.02D+00  6.88D-01  5.86D-01  6.12D-01
                    CP:  7.86D-01  1.21D+00  9.41D-01  9.81D-01
 E= -3531.53193102565     Delta-E=       -0.000324122604 Rises=F Damp=F
 DIIS: error= 3.66D-04 at cycle  10 NSaved=  10.
 NSaved=10 IEnMin=10 EnMin= -3531.53193102565     IErMin=10 ErrMin= 3.66D-04
 ErrMax= 3.66D-04  0.00D+00 EMaxC= 1.00D-01 BMatC= 9.72D-04 BMatP= 2.40D-03
 IDIUse=3 WtCom= 9.96D-01 WtEn= 3.66D-03
 Coeff-Com: -0.711D-02 0.806D-02 0.970D-03 0.320D-03 0.211D-01 0.116D-01
 Coeff-Com: -0.127D+00-0.123D+00 0.440D+00 0.776D+00
 Coeff-En:   0.000D+00 0.000D+00 0.000D+00 0.000D+00 0.000D+00 0.000D+00
 Coeff-En:   0.000D+00 0.000D+00 0.000D+00 0.100D+01
 Coeff:     -0.709D-02 0.803D-02 0.966D-03 0.319D-03 0.210D-01 0.116D-01
 Coeff:     -0.127D+00-0.122D+00 0.438D+00 0.776D+00
 Gap=     0.114 Goal=   None    Shift=    0.000
 Gap=     0.115 Goal=   None    Shift=    0.000
 RMSDP=1.09D-04 MaxDP=1.07D-02 DE=-3.24D-04 OVMax= 6.74D-03

 Cycle  11  Pass 1  IDiag  1:
 RMSU=  7.21D-05    CP:  6.12D-01  1.02D+00  6.84D-01  5.90D-01  6.13D-01
                    CP:  7.89D-01  1.23D+00  1.00D+00  1.16D+00  8.39D-01
 E= -3531.53212686927     Delta-E=       -0.000195843623 Rises=F Damp=F
 DIIS: error= 1.10D-04 at cycle  11 NSaved=  11.
 NSaved=11 IEnMin=11 EnMin= -3531.53212686927     IErMin=11 ErrMin= 1.10D-04
 ErrMax= 1.10D-04  0.00D+00 EMaxC= 1.00D-01 BMatC= 1.33D-04 BMatP= 9.72D-04
 IDIUse=3 WtCom= 9.99D-01 WtEn= 1.10D-03
 Coeff-Com: -0.366D-02 0.311D-02 0.129D-02-0.646D-04 0.164D-01 0.454D-02
 Coeff-Com: -0.792D-01-0.982D-01 0.136D+00 0.465D+00 0.554D+00
 Coeff-En:   0.000D+00 0.000D+00 0.000D+00 0.000D+00 0.000D+00 0.000D+00
 Coeff-En:   0.000D+00 0.000D+00 0.000D+00 0.000D+00 0.100D+01
 Coeff:     -0.366D-02 0.311D-02 0.128D-02-0.645D-04 0.164D-01 0.454D-02
 Coeff:     -0.791D-01-0.981D-01 0.136D+00 0.465D+00 0.555D+00
 Gap=     0.115 Goal=   None    Shift=    0.000
 Gap=     0.115 Goal=   None    Shift=    0.000
 RMSDP=4.04D-05 MaxDP=3.37D-03 DE=-1.96D-04 OVMax= 2.68D-03

 Cycle  12  Pass 1  IDiag  1:
 RMSU=  3.19D-05    CP:  6.12D-01  1.02D+00  6.84D-01  5.90D-01  6.15D-01
                    CP:  7.92D-01  1.23D+00  1.02D+00  1.17D+00  9.71D-01
                    CP:  8.67D-01
 E= -3531.53215428988     Delta-E=       -0.000027420610 Rises=F Damp=F
 DIIS: error= 4.66D-05 at cycle  12 NSaved=  12.
 NSaved=12 IEnMin=12 EnMin= -3531.53215428988     IErMin=12 ErrMin= 4.66D-05
 ErrMax= 4.66D-05  0.00D+00 EMaxC= 1.00D-01 BMatC= 4.09D-05 BMatP= 1.33D-04
 IDIUse=1 WtCom= 1.00D+00 WtEn= 0.00D+00
 Coeff-Com: -0.617D-03 0.178D-03 0.442D-03-0.800D-04 0.521D-02-0.423D-03
 Coeff-Com: -0.174D-01-0.236D-01 0.346D-02 0.128D+00 0.369D+00 0.536D+00
 Coeff:     -0.617D-03 0.178D-03 0.442D-03-0.800D-04 0.521D-02-0.423D-03
 Coeff:     -0.174D-01-0.236D-01 0.346D-02 0.128D+00 0.369D+00 0.536D+00
 Gap=     0.115 Goal=   None    Shift=    0.000
 Gap=     0.115 Goal=   None    Shift=    0.000
 RMSDP=2.00D-05 MaxDP=2.01D-03 DE=-2.74D-05 OVMax= 9.57D-04

 Cycle  13  Pass 1  IDiag  1:
 RMSU=  1.36D-05    CP:  6.12D-01  1.02D+00  6.84D-01  5.90D-01  6.16D-01
                    CP:  7.88D-01  1.24D+00  1.02D+00  1.19D+00  9.86D-01
                    CP:  9.39D-01  9.10D-01
 E= -3531.53216358967     Delta-E=       -0.000009299794 Rises=F Damp=F
 DIIS: error= 2.68D-05 at cycle  13 NSaved=  13.
 NSaved=13 IEnMin=13 EnMin= -3531.53216358967     IErMin=13 ErrMin= 2.68D-05
 ErrMax= 2.68D-05  0.00D+00 EMaxC= 1.00D-01 BMatC= 6.53D-06 BMatP= 4.09D-05
 IDIUse=1 WtCom= 1.00D+00 WtEn= 0.00D+00
 Coeff-Com:  0.216D-03-0.344D-03-0.401D-04-0.252D-04 0.400D-03-0.134D-02
 Coeff-Com: -0.891D-03 0.134D-02-0.428D-02 0.275D-01 0.137D+00 0.278D+00
 Coeff-Com:  0.562D+00
 Coeff:      0.216D-03-0.344D-03-0.401D-04-0.252D-04 0.400D-03-0.134D-02
 Coeff:     -0.891D-03 0.134D-02-0.428D-02 0.275D-01 0.137D+00 0.278D+00
 Coeff:      0.562D+00
 Gap=     0.115 Goal=   None    Shift=    0.000
 Gap=     0.115 Goal=   None    Shift=    0.000
 RMSDP=7.61D-06 MaxDP=9.56D-04 DE=-9.30D-06 OVMax= 3.32D-04

 Cycle  14  Pass 1  IDiag  1:
 RMSU=  6.30D-06    CP:  6.12D-01  1.02D+00  6.84D-01  5.90D-01  6.16D-01
                    CP:  7.89D-01  1.24D+00  1.02D+00  1.18D+00  9.85D-01
                    CP:  9.58D-01  9.39D-01  8.96D-01
 E= -3531.53216497050     Delta-E=       -0.000001380829 Rises=F Damp=F
 DIIS: error= 6.26D-06 at cycle  14 NSaved=  14.
 NSaved=14 IEnMin=14 EnMin= -3531.53216497050     IErMin=14 ErrMin= 6.26D-06
 ErrMax= 6.26D-06  0.00D+00 EMaxC= 1.00D-01 BMatC= 9.04D-07 BMatP= 6.53D-06
 IDIUse=1 WtCom= 1.00D+00 WtEn= 0.00D+00
 Coeff-Com:  0.196D-03-0.935D-04-0.163D-04-0.173D-04-0.613D-03-0.363D-03
 Coeff-Com:  0.645D-03 0.331D-02 0.201D-02-0.120D-02-0.999D-02 0.176D-01
 Coeff-Com:  0.277D+00 0.712D+00
 Coeff:      0.196D-03-0.935D-04-0.163D-04-0.173D-04-0.613D-03-0.363D-03
 Coeff:      0.645D-03 0.331D-02 0.201D-02-0.120D-02-0.999D-02 0.176D-01
 Coeff:      0.277D+00 0.712D+00
 Gap=     0.115 Goal=   None    Shift=    0.000
 Gap=     0.115 Goal=   None    Shift=    0.000
 RMSDP=4.89D-06 MaxDP=4.95D-04 DE=-1.38D-06 OVMax= 3.92D-04

 Cycle  15  Pass 1  IDiag  1:
 RMSU=  3.77D-06    CP:  6.12D-01  1.02D+00  6.84D-01  5.90D-01  6.16D-01
                    CP:  7.89D-01  1.24D+00  1.02D+00  1.18D+00  9.94D-01
                    CP:  9.64D-01  9.71D-01  9.63D-01  1.10D+00
 E= -3531.53216527917     Delta-E=       -0.000000308665 Rises=F Damp=F
 DIIS: error= 4.25D-06 at cycle  15 NSaved=  15.
 NSaved=15 IEnMin=15 EnMin= -3531.53216527917     IErMin=15 ErrMin= 4.25D-06
 ErrMax= 4.25D-06  0.00D+00 EMaxC= 1.00D-01 BMatC= 3.31D-07 BMatP= 9.04D-07
 IDIUse=1 WtCom= 1.00D+00 WtEn= 0.00D+00
 Coeff-Com:  0.676D-04 0.105D-04 0.785D-05-0.601D-05-0.446D-03 0.256D-03
 Coeff-Com:  0.200D-03 0.776D-03 0.332D-02-0.741D-02-0.524D-01-0.860D-01
 Coeff-Com: -0.536D-01 0.453D+00 0.742D+00
 Coeff:      0.676D-04 0.105D-04 0.785D-05-0.601D-05-0.446D-03 0.256D-03
 Coeff:      0.200D-03 0.776D-03 0.332D-02-0.741D-02-0.524D-01-0.860D-01
 Coeff:     -0.536D-01 0.453D+00 0.742D+00
 Gap=     0.115 Goal=   None    Shift=    0.000
 Gap=     0.115 Goal=   None    Shift=    0.000
 RMSDP=3.56D-06 MaxDP=3.28D-04 DE=-3.09D-07 OVMax= 2.82D-04

 Cycle  16  Pass 1  IDiag  1:
 RMSU=  2.06D-06    CP:  6.12D-01  1.02D+00  6.84D-01  5.90D-01  6.16D-01
                    CP:  7.89D-01  1.24D+00  1.02D+00  1.19D+00  1.00D+00
                    CP:  9.77D-01  9.89D-01  1.05D+00  1.28D+00  1.10D+00
 E= -3531.53216541729     Delta-E=       -0.000000138119 Rises=F Damp=F
 DIIS: error= 1.60D-06 at cycle  16 NSaved=  16.
 NSaved=16 IEnMin=16 EnMin= -3531.53216541729     IErMin=16 ErrMin= 1.60D-06
 ErrMax= 1.60D-06  0.00D+00 EMaxC= 1.00D-01 BMatC= 4.69D-08 BMatP= 3.31D-07
 IDIUse=1 WtCom= 1.00D+00 WtEn= 0.00D+00
 Coeff-Com: -0.137D-04 0.269D-04 0.174D-04-0.758D-06-0.825D-04 0.122D-03
 Coeff-Com: -0.304D-03-0.887D-03 0.905D-03-0.218D-02-0.192D-01-0.397D-01
 Coeff-Com: -0.940D-01 0.736D-01 0.375D+00 0.707D+00
 Coeff:     -0.137D-04 0.269D-04 0.174D-04-0.758D-06-0.825D-04 0.122D-03
 Coeff:     -0.304D-03-0.887D-03 0.905D-03-0.218D-02-0.192D-01-0.397D-01
 Coeff:     -0.940D-01 0.736D-01 0.375D+00 0.707D+00
 Gap=     0.115 Goal=   None    Shift=    0.000
 Gap=     0.115 Goal=   None    Shift=    0.000
 RMSDP=1.53D-06 MaxDP=2.66D-04 DE=-1.38D-07 OVMax= 1.39D-04

 Cycle  17  Pass 1  IDiag  1:
 RMSU=  7.26D-07    CP:  6.12D-01  1.02D+00  6.84D-01  5.90D-01  6.16D-01
                    CP:  7.89D-01  1.24D+00  1.02D+00  1.19D+00  1.01D+00
                    CP:  9.81D-01  9.99D-01  1.07D+00  1.39D+00  1.24D+00
                    CP:  1.07D+00
 E= -3531.53216544060     Delta-E=       -0.000000023309 Rises=F Damp=F
 DIIS: error= 6.98D-07 at cycle  17 NSaved=  17.
 NSaved=17 IEnMin=17 EnMin= -3531.53216544060     IErMin=17 ErrMin= 6.98D-07
 ErrMax= 6.98D-07  0.00D+00 EMaxC= 1.00D-01 BMatC= 4.97D-09 BMatP= 4.69D-08
 IDIUse=1 WtCom= 1.00D+00 WtEn= 0.00D+00
 Coeff-Com: -0.909D-05 0.689D-05 0.630D-05 0.744D-06-0.136D-04-0.958D-06
 Coeff-Com:  0.402D-06-0.309D-03-0.288D-03-0.916D-03-0.281D-02-0.770D-02
 Coeff-Com: -0.337D-01-0.209D-01 0.825D-01 0.296D+00 0.688D+00
 Coeff:     -0.909D-05 0.689D-05 0.630D-05 0.744D-06-0.136D-04-0.958D-06
 Coeff:      0.402D-06-0.309D-03-0.288D-03-0.916D-03-0.281D-02-0.770D-02
 Coeff:     -0.337D-01-0.209D-01 0.825D-01 0.296D+00 0.688D+00
 Gap=     0.115 Goal=   None    Shift=    0.000
 Gap=     0.115 Goal=   None    Shift=    0.000
 RMSDP=5.15D-07 MaxDP=1.17D-04 DE=-2.33D-08 OVMax= 4.33D-05

 Cycle  18  Pass 1  IDiag  1:
 RMSU=  3.19D-07    CP:  6.12D-01  1.02D+00  6.84D-01  5.90D-01  6.16D-01
                    CP:  7.89D-01  1.24D+00  1.02D+00  1.19D+00  1.01D+00
                    CP:  9.82D-01  1.00D+00  1.07D+00  1.41D+00  1.29D+00
                    CP:  1.12D+00  1.09D+00
 E= -3531.53216544295     Delta-E=       -0.000000002352 Rises=F Damp=F
 DIIS: error= 6.38D-07 at cycle  18 NSaved=  18.
 NSaved=18 IEnMin=18 EnMin= -3531.53216544295     IErMin=18 ErrMin= 6.38D-07
 ErrMax= 6.38D-07  0.00D+00 EMaxC= 1.00D-01 BMatC= 2.38D-09 BMatP= 4.97D-09
 IDIUse=1 WtCom= 1.00D+00 WtEn= 0.00D+00
 Coeff-Com: -0.316D-05 0.433D-05 0.212D-05-0.119D-06 0.105D-04-0.183D-04
 Coeff-Com:  0.729D-04 0.123D-04-0.480D-03-0.334D-03 0.199D-02 0.357D-02
 Coeff-Com:  0.508D-02-0.202D-01-0.250D-01-0.115D-01 0.314D+00 0.733D+00
 Coeff:     -0.316D-05 0.433D-05 0.212D-05-0.119D-06 0.105D-04-0.183D-04
 Coeff:      0.729D-04 0.123D-04-0.480D-03-0.334D-03 0.199D-02 0.357D-02
 Coeff:      0.508D-02-0.202D-01-0.250D-01-0.115D-01 0.314D+00 0.733D+00
 Gap=     0.115 Goal=   None    Shift=    0.000
 Gap=     0.115 Goal=   None    Shift=    0.000
 RMSDP=2.61D-07 MaxDP=4.59D-05 DE=-2.35D-09 OVMax= 2.05D-05

 Cycle  19  Pass 1  IDiag  1:
 RMSU=  1.88D-07    CP:  6.12D-01  1.02D+00  6.84D-01  5.90D-01  6.16D-01
                    CP:  7.89D-01  1.24D+00  1.02D+00  1.19D+00  1.01D+00
                    CP:  9.83D-01  1.00D+00  1.07D+00  1.41D+00  1.30D+00
                    CP:  1.16D+00  1.16D+00  1.21D+00
 E= -3531.53216544380     Delta-E=       -0.000000000854 Rises=F Damp=F
 DIIS: error= 3.70D-07 at cycle  19 NSaved=  19.
 NSaved=19 IEnMin=19 EnMin= -3531.53216544380     IErMin=19 ErrMin= 3.70D-07
 ErrMax= 3.70D-07  0.00D+00 EMaxC= 1.00D-01 BMatC= 4.38D-10 BMatP= 2.38D-09
 IDIUse=1 WtCom= 1.00D+00 WtEn= 0.00D+00
 Coeff-Com:  0.979D-06-0.592D-06-0.160D-05-0.217D-07 0.494D-05-0.126D-04
 Coeff-Com:  0.587D-04 0.850D-04-0.255D-03-0.977D-04 0.168D-02 0.352D-02
 Coeff-Com:  0.106D-01-0.789D-02-0.302D-01-0.698D-01 0.367D-01 0.397D+00
 Coeff-Com:  0.658D+00
 Coeff:      0.979D-06-0.592D-06-0.160D-05-0.217D-07 0.494D-05-0.126D-04
 Coeff:      0.587D-04 0.850D-04-0.255D-03-0.977D-04 0.168D-02 0.352D-02
 Coeff:      0.106D-01-0.789D-02-0.302D-01-0.698D-01 0.367D-01 0.397D+00
 Coeff:      0.658D+00
 Gap=     0.115 Goal=   None    Shift=    0.000
 Gap=     0.115 Goal=   None    Shift=    0.000
 RMSDP=1.63D-07 MaxDP=3.32D-05 DE=-8.54D-10 OVMax= 1.12D-05

 Cycle  20  Pass 1  IDiag  1:
 RMSU=  1.01D-07    CP:  6.12D-01  1.02D+00  6.84D-01  5.90D-01  6.16D-01
[...]
 9,0.00001898,0.00000017,0.00001460,-0.00000854,-0.00000704,-0.00001210
 ,-0.00000393,0.00003394,-0.00000081,-0.00001227,0.00000065,-0.00005715
 ,0.00004685,-0.00000053,0.00001332,-0.00000200,-0.00002117,-0.00000947
 ,-0.00000604,0.00002003,-0.00005561,0.00004764,0.00003886,-0.00001244,
 0.00001211,0.00000430,0.00000285,0.00000647,0.00000407,-0.03248695,0.0
 1315457,-0.02850070,0.00147548,0.00161236,0.00284506,-0.06487317,0.018
 43938,-0.06021010,0.00530851,-0.00456068,0.01165781,0.00494826,-0.0020
 5347,0.00754703,0.08495206,-0.00000130,0.00003358,0.00000052,0.0000473
 7,-0.00008808,0.00004608,-0.00001774,0.00000504,-0.00002656,0.00000674
 ,-0.00002125,0.00000272,-0.00000261,-0.00000418,0.00000018,0.00001327,
 -0.00001132,0.00001834,-0.00023529,0.00039405,-0.00020470,-0.00017863,
 -0.00013609,-0.00011733,0.00000459,-0.00006032,0.00000066,0.00003834,0
 .00004647,0.00000727,0.00003798,-0.00003799,0.00012599,-0.00005324,0.0
 0019697,0.00007426,0.00001915,-0.00014693,-0.00003439,0.00059404,-0.00
 064061,-0.00014954,-0.00175226,-0.00029291,-0.00044147,0.00007027,0.00
 007475,0.00037307,-0.00002288,-0.00003811,-0.00006830,0.00026782,0.000
 12782,-0.00015508,0.00085848,-0.00111795,0.00111991,-0.00003054,0.0000
 0693,-0.00000408,-0.00000766,-0.00000251,-0.00000206,0.00000282,-0.000
 00139,0.00000245,0.00000514,0.00000028,0.00000292,0.00001365,-0.000015
 50,0.00000910,-0.00007203,-0.00002630,0.00000165,0.00175099,0.00178343
 ,0.00213251,0.00002638,-0.00003514,0.00002232,-0.00003338,0.00000914,0
 .00000560,0.00002344,-0.00000890,-0.00005238,-0.00003158,-0.00002471,0
 .00000642,0.00000036,-0.00002689,-0.00001266,0.00004851,0.00010164,-0.
 00006054,0.00000797,0.00000593,-0.00001378,-0.00002145,-0.00000036,0.0
 0005585,-0.00009287,0.00009732,0.00006085,-0.00001088,0.00001682,0.000
 00398,-0.00000154,-0.00000308,0.00000364,-0.00217486,0.00176036,-0.005
 09029,-0.00166263,-0.00045157,-0.00048856,0.02482264,-0.07892115,0.081
 15646,-0.00598674,0.00716912,-0.01924579,0.00809120,-0.00894188,0.0267
 9410,-0.02529287,0.07969469,0.00000277,0.00000480,0.00000301,-0.000027
 16,0.00003878,-0.00001430,0.00001688,0.00000491,0.00000998,-0.00000129
 ,0.00000290,-0.00000194,0.00000061,0.00000164,0.00000211,0.00000413,-0
 .00000231,0.00000129,0.00018331,0.00001978,-0.00003206,-0.00015063,0.0
 0048115,-0.00036807,-0.00000111,0.00000962,0.00002404,0.00000405,0.000
 00139,0.00001483,-0.00000900,0.00000977,-0.00007156,0.00009455,-0.0000
 2220,0.00004494,-0.00001701,0.00001537,0.00000110,-0.00000626,-0.00001
 314,0.00000101,-0.00007421,-0.00013569,-0.00002403,0.00000417,0.000025
 51,0.00006731,-0.00001525,0.00000858,-0.00003523,0.00001596,0.00001867
 ,-0.00001689,0.00028459,0.00208982,-0.00157979,-0.00000313,0.00000366,
 -0.00000552,0.00000132,0.00000091,-0.00000051,0.00000118,-0.00000007,-
 0.00000016,0.00000191,-0.00000039,0.00000075,0.00000092,-0.00000427,-0
 .00000345,-0.00004525,-0.00000485,0.00003909,0.00170463,-0.00107938,0.
 00046358,0.00000137,-0.00000264,0.00000410,0.00000409,-0.00000212,-0.0
 0000423,-0.00000007,0.00000145,-0.00000287,0.00000049,-0.00000540,-0.0
 0000056,0.00000022,0.00000068,-0.00000495,0.00008061,-0.00001508,-0.00
 002579,-0.00000830,0.00000014,0.00000957,0.00000172,0.00001389,-0.0000
 0322,0.00000218,0.00001386,0.00000069,0.00000448,0.00000095,-0.0000010
 5,-0.00000235,-0.00000360,-0.00000135,-0.00241319,-0.00187064,0.002920
 76,0.00125717,-0.00038258,-0.00009452,-0.07121817,0.07984056,-0.276434
 01,-0.00502519,0.00637281,-0.01890358,-0.00008786,-0.00008336,-0.00152
 128,0.07342734,-0.08309918,0.29581933,-0.00000620,0.00000040,0.0000005
 9,0.00000469,-0.00001925,0.00003833,-0.00001561,0.00000069,-0.00001229
 ,-0.00000019,-0.00000044,0.00000334,0.00000068,-0.00000312,-0.00000331
 ,0.00000289,-0.00000409,0.00001111,0.00003471,0.00008196,-0.00011826,-
 0.00000725,0.00003100,0.00019181,-0.00003273,-0.00005254,-0.00003136,0
 .00000453,0.00001220,-0.00001261,-0.00000068,0.00000039,0.00008846,-0.
 00003166,0.00005446,-0.00007990,0.00001432,-0.00004470,0.00000109,-0.0
 0000096,-0.00011928,0.00006571,-0.00015620,0.00012408,-0.00040797,-0.0
 0007069,-0.00011042,0.00020616,0.00000970,0.00000060,0.00001921,0.0000
 0075,-0.00004624,0.00004892,0.00027085,0.00002347,0.00007505,0.0000015
 8,0.00000429,-0.00000438,-0.00000046,-0.00000372,-0.00000119,-0.000003
 05,-0.00000269,-0.00000242,-0.00000144,0.00000169,-0.00000339,0.000013
 02,-0.00000610,0.00000430,0.00003042,-0.00001105,-0.00000148,0.0002741
 1,-0.00068224,-0.00158596,0.00001261,-0.00000506,0.00000489,-0.0000286
 1,0.00002052,0.00001556,0.00001306,-0.00000814,-0.00001767,-0.00001585
 ,-0.00000210,0.00001354,-0.00000335,-0.00000597,0.00000208,0.00000527,
 0.00001957,-0.00004623,-0.00000275,0.00000086,-0.00000373,-0.00000590,
 -0.00000719,0.00000041,-0.00001245,0.00001024,0.00000278,-0.00000577,0
 .00000599,0.00000090,-0.00000055,0.00000167,-0.00000056,-0.00043121,0.
 00222442,0.00321896,0.00021309,0.00036076,0.00066991,-0.01158068,-0.00
 290372,-0.00292891,-0.31045727,-0.00854948,-0.00245165,0.00032803,0.00
 050029,-0.00003708,0.00031207,-0.00004472,0.00039208,0.33804435,0.0000
 0194,-0.00001144,0.00000382,-0.00001255,0.00002804,-0.00003309,0.00001
 094,0.00000070,0.00001915,-0.00000069,0.00001093,0.00000012,0.00000255
 ,0.00000243,0.00000531,-0.00000310,0.00000609,-0.00000535,0.00005953,-
 0.00013984,0.00008156,0.00015723,-0.00015442,-0.00035491,0.00009968,0.
 00007089,0.00004323,-0.00000971,-0.00000980,0.00001505,-0.00001512,0.0
 0000631,-0.00004817,0.00002550,-0.00005666,0.00000804,-0.00001046,0.00
 004151,0.00000756,-0.00009945,0.00018114,0.00003875,0.00000712,-0.0001
 6031,-0.00060124,-0.00026769,-0.00025748,0.00039568,-0.00000015,0.0000
 0812,-0.00000020,-0.00002425,-0.00000977,0.00006209,0.00024374,0.00002
 083,0.00007461,0.00000498,-0.00000173,-0.00000816,0.00000444,0.0000021
 7,-0.00000052,0.00000057,0.00000113,-0.00000091,0.00000092,-0.00000013
 ,-0.00000046,-0.00000710,0.00000397,-0.00000712,-0.00002536,-0.0000072
 0,-0.00000498,0.00106600,0.00089546,0.00109381,-0.00001080,0.00000348,
 -0.00000317,0.00003074,-0.00003598,-0.00002011,-0.00000597,0.00000472,
 0.00000705,0.00000724,0.00000415,-0.00001167,0.00000072,0.00000633,0.0
 0000246,-0.00000322,-0.00001178,0.00001943,0.00000245,0.00000022,0.000
 00276,0.00000108,0.00000118,-0.00000305,0.00002080,-0.00002221,-0.0000
 1403,0.00000276,-0.00000357,-0.00000086,0.00000067,-0.00000081,-0.0000
 0088,0.00330137,-0.00232691,-0.00460737,-0.00036491,-0.00030234,-0.000
 32856,0.01822984,0.00056566,0.00299025,-0.01048996,-0.04610120,-0.0007
 5023,-0.00052772,0.00011852,0.00072417,-0.00029694,0.00061328,0.000080
 51,0.00884341,0.04618307,0.00000054,-0.00001259,0.00000616,-0.00002066
 ,0.00004461,-0.00005107,0.00002184,0.00000160,0.00001838,-0.00000292,0
 .00001073,0.00000077,0.00000418,0.00000458,0.00000327,-0.00000463,0.00
 000705,-0.00000180,0.00008967,-0.00016872,0.00012801,0.00018002,-0.000
 04001,-0.00051363,0.00010362,0.00007160,0.00004816,-0.00001067,-0.0000
 1044,0.00001872,-0.00001298,0.00000763,-0.00008208,0.00004462,-0.00007
 025,0.00003873,-0.00001584,0.00005534,0.00000870,-0.00011692,0.0002248
 6,-0.00000373,0.00024807,-0.00016775,0.00004411,0.00001378,0.00002930,
 0.00005877,-0.00000553,0.00000711,-0.00001198,-0.00004860,-0.00000813,
 0.00003163,-0.00027862,-0.00006194,-0.00000247,0.00000502,-0.00000344,
 -0.00000147,0.00000419,0.00000224,0.00000042,0.00000140,0.00000125,-0.
 00000077,0.00000279,-0.00000063,-0.00000078,-0.00000691,0.00000220,-0.
 00001134,-0.00002298,-0.00000508,-0.00001553,0.00126055,0.00061523,0.0
 0191417,-0.00001263,0.00000300,-0.00000562,0.00003992,-0.00004066,-0.0
 0002074,-0.00000898,0.00000528,0.00001151,0.00000931,0.00000350,-0.000
 01160,0.00000109,0.00000632,0.00000015,-0.00000046,-0.00002554,0.00003
 558,0.00000039,-0.00000036,0.00000625,0.00000835,0.00000413,-0.0000097
 6,0.00002633,-0.00002619,-0.00001684,0.00000640,-0.00000596,-0.0000018
 4,-0.00000022,-0.00000152,-0.00000184,0.00431119,-0.00426038,-0.004781
 32,-0.00049638,-0.00022086,-0.00052335,0.02205509,0.00373162,0.0017192
 5,-0.00488327,-0.00084846,-0.04652888,-0.00038242,-0.00004191,0.000740
 25,-0.00047905,0.00071674,0.00028493,0.00234034,0.00254334,0.04739776,
 0.00000342,0.00001029,-0.00000247,0.00001172,-0.00000715,-0.00000844,0
 .00000179,0.00000201,-0.00000973,0.00000387,-0.00001174,-0.00000442,-0
 .00000429,0.00000093,-0.00000254,-0.00000046,-0.00000388,-0.00000149,-
 0.00010164,0.00006676,0.00003786,0.00004150,-0.00005437,-0.00003996,0.
 00001302,0.00001677,0.00000445,0.00000699,0.00000274,0.00000009,0.0000
 1589,-0.00001369,-0.00002659,0.00002168,0.00002371,0.00007085,-0.00000
 120,-0.00001668,-0.00001017,0.00011582,-0.00010973,-0.00015039,0.00023
 004,0.00008357,0.00134445,-0.00028932,-0.00029072,-0.00056954,-0.00001
 598,-0.00001547,-0.00002638,0.00003013,0.00005533,-0.00012844,-0.00065
 156,-0.00013508,-0.00000691,-0.00000761,-0.00000190,0.00001588,-0.0000
 0509,-0.00000006,0.00000213,0.00000227,0.00000144,0.00000267,0.0000023
 9,-0.00000128,0.00000286,-0.00000185,-0.00000096,0.00000111,-0.0000178
 3,0.00001043,-0.00000880,0.00019189,0.00033543,0.00064458,-0.00000018,
 -0.00000955,-0.00000252,0.00000629,-0.00000539,-0.00000398,-0.00000380
 ,-0.00000038,-0.00000185,0.00000172,-0.00000547,-0.00000530,0.00000133
 ,-0.00000431,-0.00000470,0.00000685,0.00000616,0.00000245,-0.00000231,
 0.00000128,0.00000145,0.00000483,0.00000179,0.00000356,-0.00001656,0.0
 0002268,0.00001534,0.00000171,0.00000098,-0.00000014,-0.00000235,-0.00
 000176,0.00000149,0.00198996,-0.00025631,-0.00094364,-0.00033613,-0.00
 020861,-0.00025699,0.00217797,0.01366181,-0.00157418,-0.06979718,-0.07
 691992,0.01107131,-0.00030923,0.00178532,0.00211798,0.00008429,-0.0006
 0507,-0.00033557,-0.00801782,-0.03014767,0.00483182,0.07168184,-0.0000
 0449,-0.00000682,0.00000696,-0.00000936,0.00000988,-0.00000905,0.00000
 238,0.00000185,0.00000191,-0.00000005,0.00000127,-0.00000507,-0.000002
 92,0.00000070,0.00000235,0.00000217,0.00000195,-0.00000197,0.00004119,
 -0.00005259,0.00000932,-0.00003238,-0.00005353,0.00001117,0.00000573,-
 0.00000039,0.00000451,-0.00001030,-0.00000677,0.00000453,-0.00000806,0
 .00000734,-0.00000718,0.00000952,-0.00002079,-0.00001020,-0.00000241,0
 .00001373,0.00000206,-0.00009718,0.00006788,0.00003154,0.00018200,0.00
 016909,0.00018921,-0.00067327,-0.00096436,0.00007878,-0.00000306,0.000
 00083,0.00001221,-0.00001990,-0.00000888,0.00001213,-0.00017206,-0.000
 12184,0.00025627,0.00000395,-0.00000108,0.00000364,0.00000039,-0.00000
 022,0.00000038,0.00000011,0.00000014,-0.00000083,0.00000015,-0.0000007
 9,-0.00000148,0.00000013,0.00000014,-0.00000269,0.00001947,-0.00001126
 ,0.00000363,-0.00003829,-0.00012699,-0.00045790,-0.00000602,0.00001018
 ,0.00000260,0.00000366,0.00000035,-0.00000329,-0.00000271,-0.00000083,
 0.00000738,0.00000129,0.00000513,0.00000027,-0.00000068,0.00000490,0.0
 0000151,-0.00000324,-0.00001162,0.00000458,-0.00000065,0.00000042,0.00
 000158,0.00000545,-0.00000120,-0.00000824,0.00001041,-0.00001110,-0.00
 000720,0.00000112,-0.00000137,-0.00000092,0.00000161,0.00000095,-0.000
 00032,-0.00086681,0.00158902,0.00094555,0.00024924,0.00023566,0.000290
 60,-0.00575881,-0.01976146,0.00203373,-0.07417607,-0.28820545,0.039112
 69,0.00142249,-0.00048953,-0.00295373,0.00014418,0.00085770,0.00026719
 ,0.00089355,0.00162523,-0.00028741,0.08135120,0.31252265,0.00000084,-0
 .00001613,-0.00000211,-0.00002178,0.00002616,-0.00002116,0.00000853,-0
 .00000058,0.00000083,-0.00000352,0.00001007,-0.00000080,0.00000099,-0.
 00000098,-0.00000230,-0.00000775,0.00000239,-0.00001030,0.00007937,-0.
 00010791,0.00009750,-0.00000829,-0.00003326,0.00001084,0.00000696,0.00
 001834,-0.00000288,-0.00001027,-0.00001833,0.00000541,-0.00001802,0.00
 001304,-0.00007268,0.00004791,-0.00006500,0.00000897,-0.00000985,0.000
 04590,0.00000943,-0.00022065,0.00024006,0.00001545,0.00117392,0.000431
 66,0.00003348,0.00003276,-0.00001124,-0.00067397,-0.00000989,0.0000019
 5,0.00000551,-0.00009759,-0.00005954,0.00003741,-0.00045666,-0.0001288
 4,0.00017735,0.00001243,-0.00000220,0.00000760,0.00000133,0.00000039,0
 .00000239,-0.00000277,0.00000056,-0.00000031,-0.00000358,0.00000048,-0
 .00000055,-0.00000480,0.00000574,-0.00000190,0.00000361,0.00001342,-0.
 00000039,-0.00046569,-0.00009615,-0.00011622,-0.00001163,0.00001457,-0
 .00000323,0.00001007,-0.00000403,-0.00000337,-0.00000256,0.00000078,0.
 00001351,0.00000851,0.00000874,-0.00000513,-0.00000441,0.00000957,0.00
 000711,-0.00000117,-0.00003091,0.00002153,-0.00000406,0.00000257,0.000
 00907,0.00001335,0.00000197,-0.00002122,0.00003039,-0.00003034,-0.0000
 2030,0.00000550,-0.00000456,-0.00000282,-0.00000094,-0.00000024,-0.000
 00126,-0.00099401,0.00141512,0.00111009,0.00034432,0.00019507,-0.00014
 786,-0.00871651,-0.02670565,0.00352526,0.01264288,0.04199254,-0.054596
 16,0.00270442,-0.00303572,-0.00325019,-0.00053626,0.00029129,0.0010043
 2,-0.00029721,-0.00083755,-0.00102572,-0.01465754,-0.03998359,0.057493
 37,0.00000590,-0.00000295,-0.00000631,0.00000019,0.00001327,-0.0000155
 3,0.00000553,0.00000019,0.00000621,-0.00000032,0.00000017,0.00000028,0
 .00000066,-0.00000009,-0.00000038,-0.00000414,0.00000164,-0.00000687,-
 0.00000698,-0.00004025,0.00005984,0.00005207,0.00001787,-0.00008500,0.
 00000568,0.00002889,-0.00000068,-0.00000063,-0.00000182,0.00000560,-0.
 00000293,-0.00000124,-0.00005297,0.00002535,-0.00002737,0.00004112,-0.
 00000823,0.00002026,-0.00000082,-0.00000635,0.00004521,-0.00003079,0.0
 0008658,-0.00000385,0.00000671,-0.00003088,0.00003627,-0.00008194,-0.0
 0000152,-0.00000132,-0.00001249,0.00000462,0.00002047,-0.00001586,0.00
 000715,-0.00002868,0.00004790,-0.00000027,-0.00000172,0.00000079,0.000
 00044,0.00000197,0.00000030,0.00000153,0.00000176,0.00000143,-0.000000
 03,-0.00000086,0.00000171,-0.00000795,0.00000504,0.00000104,-0.0000387
 9,0.00000138,-0.00000984,0.00004612,0.00043554,0.00077880,-0.00000007,
 -0.00000472,-0.00000013,0.00001006,-0.00000766,-0.00000227,-0.00000553
 ,0.00000352,0.00000190,0.00000504,-0.00000118,-0.00000959,0.00000167,0
 .00000147,-0.00000049,0.00000066,-0.00000332,0.00001223,-0.00000075,0.
 00000003,0.00000155,-0.00000044,0.00000220,0.00000132,0.00000423,-0.00
 000339,-0.00000087,0.00000229,-0.00000217,-0.00000037,0.00000013,-0.00
 000110,0.00000027,0.00225932,-0.00082331,-0.00061802,-0.00041342,-0.00
 014701,-0.00030801,0.00232666,-0.00386565,0.01286438,-0.07410673,0.026
 04964,-0.07823667,0.00009990,-0.00033731,-0.00069847,-0.00028586,0.001
 58160,0.00194826,-0.00870141,0.01019663,-0.02879985,0.00293317,-0.0024
 6271,0.00943931,0.07573824,0.00000473,-0.00000372,-0.00000570,-0.00000
 567,0.00000705,-0.00000813,0.00000180,-0.00000009,0.00000353,-0.000002
 51,0.00000295,-0.00000106,0.00000058,-0.00000169,-0.00000263,-0.000005
 45,-0.00000065,-0.00000662,0.00003843,-0.00004219,0.00005508,0.0000084
 5,0.00001586,0.00002955,0.00000329,0.00001856,-0.00000865,-0.00000274,
 -0.00001208,-0.00000214,-0.00000496,0.00000463,-0.00003818,0.00002043,
 -0.00003588,0.00000180,-0.00000329,0.00002405,0.00000688,-0.00009870,0
 .00011543,0.00000288,0.00043715,0.00008377,-0.00001353,-0.00016923,-0.
 00005319,-0.00022870,-0.00000296,0.00000144,0.00000602,-0.00004090,-0.
 00001853,0.00001653,-0.00023646,0.00009387,0.00016433,0.00000687,-0.00
 000090,0.00000151,0.00000066,0.00000009,0.00000196,-0.00000265,0.00000
 004,0.00000071,-0.00000391,0.00000159,0.00000080,-0.00000227,0.0000043
 4,0.00000231,-0.00000292,0.00001642,0.00000418,-0.00040215,-0.00020478
 ,-0.00029232,-0.00000400,0.00000281,-0.00000500,0.00000237,-0.00000071
 ,0.00000044,-0.00000151,0.00000197,0.00000678,0.00000646,0.00000460,-0
 .00000181,-0.00000532,0.00000367,0.00000460,-0.00000894,-0.00001287,0.
 00001488,-0.00000138,0.00000073,0.00000268,0.00000625,-0.00000048,-0.0
 0000907,0.00001703,-0.00001487,-0.00000973,0.00000208,-0.00000323,-0.0
 0000144,-0.00000105,0.00000084,-0.00000027,-0.00107104,0.00058296,0.00
 150639,0.00048238,-0.00012529,-0.00002411,-0.00796587,0.00644671,-0.02
 133440,0.02714187,-0.07434158,0.07632181,-0.00063256,0.00103470,0.0004
 7384,0.00239067,-0.00194020,-0.00260241,-0.00058424,-0.00079197,-0.001
 79104,0.01138653,-0.00726811,0.02643040,-0.03069535,0.07640393,-0.0000
 0744,0.00001662,0.00001260,0.00001037,0.00000069,-0.00001157,0.0000016
 7,-0.00000079,0.00000803,0.00000492,-0.00000548,0.00000243,0.00000303,
 0.00000323,0.00000658,0.00000675,0.00000568,0.00000626,-0.00006147,0.0
 0001514,-0.00005197,-0.00003818,0.00000848,-0.00007998,0.00000805,0.00
 001872,0.00002099,-0.00000660,-0.00000297,-0.00000897,0.00000591,-0.00
 000833,0.00006466,-0.00006999,0.00002659,-0.00001652,0.00000473,-0.000
 00695,-0.00000257,0.00015566,-0.00008905,0.00001018,-0.00048289,-0.000
 18387,-0.00019540,0.00008415,0.00004708,0.00021528,0.00002032,0.000005
 65,0.00001618,0.00006218,0.00004188,-0.00002986,0.00028471,0.00020863,
 0.00004475,-0.00000892,-0.00000259,-0.00000430,0.00000015,0.00000067,-
 0.00000141,0.00000352,0.00000086,0.00000017,0.00000864,-0.00000129,0.0
 0000008,0.00000252,-0.00000685,-0.00001152,0.00005099,0.00000010,0.000
 00488,-0.00025387,-0.00033661,-0.00048180,-0.00001388,0.00000113,-0.00
 001170,0.00002105,-0.00000202,-0.00000944,-0.00000712,0.00000785,0.000
 01786,0.00000787,-0.00000283,0.00000294,0.00000641,-0.00000201,-0.0000
 0588,-0.00002559,-0.00000203,0.00002467,0.00000547,-0.00000488,-0.0000
 0518,-0.00000370,0.00000017,0.00000679,-0.00001163,0.00001072,0.000007
 39,-0.00000207,-0.00000099,0.00000333,0.00000389,0.00000070,0.00000074
 ,-0.00073143,0.00050781,0.00212258,0.00064842,0.00013259,0.00038050,-0
 .00892788,0.00829480,-0.02348209,-0.07596288,0.07411199,-0.25643398,0.
 00002736,-0.00023373,0.00107405,0.00216115,-0.00376819,-0.00156583,0.0
 0063204,-0.00057617,0.00110847,-0.00138966,0.00044280,-0.00361359,0.08
 377326,-0.07867293,0.28086116\\-0.00000055,0.00000036,-0.00000025,0.00
 000005,0.00000099,-0.00000006,-0.00000068,0.00000106,-0.00000025,-0.00
 000114,0.00000046,0.00000024,-0.00000119,0.00000177,0.00000008,-0.0000
 0009,0.00000239,0.00000032,-0.00000276,-0.00000319,0.00000093,0.000000
 09,0.00000102,0.00000117,0.00000107,-0.00000011,0.00000033,-0.00000033
 ,0.00000109,-0.00000032,0.00000180,-0.00000087,0.00000110,0.00000068,0
 .00000020,-0.00000165,-0.00000069,-0.00000061,0.00000111,0.00000513,0.
 00000570,-0.00000296,-0.00000267,-0.00000336,0.00000077,-0.00000161,-0
 .00000038,-0.00000081,0.00000076,-0.00000077,-0.00000089,-0.00000236,0
 .00000063,-0.00000048,-0.00000034,-0.00000170,-0.00000085,-0.00000047,
 0.00000016,0.00000004,-0.00000152,0.00000118,0.,-0.00000103,0.00000201
 ,0.00000034,-0.00000033,0.00000187,0.00000054,0.00000008,0.00000076,0.
 00000052,0.00000022,0.00000015,0.00000024,0.00000111,0.00000016,-0.000
 00153,0.00000156,0.00000009,0.00000034,0.00000119,0.00000106,0.0000006
 1,0.00000125,0.00000020,0.00000053,0.00000150,0.,-0.00000004,0.0000000
 9,0.00000034,0.00000071,0.00000053,-0.00000043,0.00000044,0.00000081,-
 0.00000097,0.00000097,0.00000049,-0.00000091,-0.00000096,-0.00000026,0
 .00000029,-0.00000043,-0.00000002,-0.00000023,0.00000027,-0.00000060,0
 .00000057,0.00000019,-0.00000069,-0.00000227,0.00000045,0.00000111,-0.
 00000039,0.00000007,0.00000013,0.00000176,-0.00000010,0.00000017,-0.00
 000237,0.00000108,0.00000013,-0.00000145,-0.00000009,0.00000077,-0.000
 00187,-0.00000076,-0.00000019,-0.00000168,-0.00000021,-0.00000112,-0.0
 0000147,-0.00000051,-0.00000005,-0.00000124,-0.00000025\\\@


 ASKING FOR EFFICIENCY AND ADAPTABILITY IN THE SAME PROGRAM IS LIKE
 ASKING FOR A BEAUTIFUL AND MODEST WIFE ...
 WE'LL PROBABLY HAVE TO SETTLE FOR ONE OR THE OTHER.

             -- THE PSYCHOLOGY OF COMPUTER PROGRAMMING
                GERALD M. WEINBERG
 Job cpu time:       2 days 17 hours 59 minutes 17.7 seconds.
 Elapsed time:       0 days  4 hours  8 minutes  3.5 seconds.
 File lengths (MBytes):  RWF=   4241 Int=      0 D2E=      0 Chk=     50 Scr=      1
 Normal termination of Gaussian 16 at Thu Jun  3 00:22:30 2021.
