 Entering Gaussian System, Link 0=g16
 Input=prenyl-first_betaine-gs2-b3lyp_d3bj-juldz-gas.gjf
 Output=prenyl-first_betaine-gs2-b3lyp_d3bj-juldz-gas.out
 Initial command:
 /SFS/product/gaussian/g16.a03/x86_64/avx/g16/l1.exe "/scratch/kwaneu.2872752.bmbhpcps002/Gau-25346.inp" -scrdir="/scratch/kwaneu.2872752.bmbhpcps002/"
 Entering Link 1 = /SFS/product/gaussian/g16.a03/x86_64/avx/g16/l1.exe PID=     25347.
  
 Copyright (c) 1988,1990,1992,1993,1995,1998,2003,2009,2016,
            Gaussian, Inc.  All Rights Reserved.
  
 This is part of the Gaussian(R) 16 program.  It is based on
 the Gaussian(R) 09 system (copyright 2009, Gaussian, Inc.),
 the Gaussian(R) 03 system (copyright 2003, Gaussian, Inc.),
 the Gaussian(R) 98 system (copyright 1998, Gaussian, Inc.),
 the Gaussian(R) 94 system (copyright 1995, Gaussian, Inc.),
 the Gaussian 92(TM) system (copyright 1992, Gaussian, Inc.),
 the Gaussian 90(TM) system (copyright 1990, Gaussian, Inc.),
 the Gaussian 88(TM) system (copyright 1988, Gaussian, Inc.),
 the Gaussian 86(TM) system (copyright 1986, Carnegie Mellon
 University), and the Gaussian 82(TM) system (copyright 1983,
 Carnegie Mellon University). Gaussian is a federally registered
 trademark of Gaussian, Inc.
  
 This software contains proprietary and confidential information,
 including trade secrets, belonging to Gaussian, Inc.
  
 This software is provided under written license and may be
 used, copied, transmitted, or stored only in accord with that
 written license.
  
 The following legend is applicable only to US Government
 contracts under FAR:
  
                    RESTRICTED RIGHTS LEGEND
  
 Use, reproduction and disclosure by the US Government is
 subject to restrictions as set forth in subparagraphs (a)
 and (c) of the Commercial Computer Software - Restricted
 Rights clause in FAR 52.227-19.
  
 Gaussian, Inc.
 340 Quinnipiac St., Bldg. 40, Wallingford CT 06492
  
  
 ---------------------------------------------------------------
 Warning -- This program may not be used in any manner that
 competes with the business of Gaussian, Inc. or will provide
 assistance to any competitor of Gaussian, Inc.  The licensee
 of this program is prohibited from giving any competitor of
 Gaussian, Inc. access to this program.  By using this program,
 the user acknowledges that Gaussian, Inc. is engaged in the
 business of creating and licensing software in the field of
 computational chemistry and represents and warrants to the
 licensee that it is not a competitor of Gaussian, Inc. and that
 it will not use this program in any manner prohibited above.
 ---------------------------------------------------------------
  

 Cite this work as:
 Gaussian 16, Revision A.03,
 M. J. Frisch, G. W. Trucks, H. B. Schlegel, G. E. Scuseria, 
 M. A. Robb, J. R. Cheeseman, G. Scalmani, V. Barone, 
 G. A. Petersson, H. Nakatsuji, X. Li, M. Caricato, A. V. Marenich, 
 J. Bloino, B. G. Janesko, R. Gomperts, B. Mennucci, H. P. Hratchian, 
 J. V. Ortiz, A. F. Izmaylov, J. L. Sonnenberg, D. Williams-Young, 
 F. Ding, F. Lipparini, F. Egidi, J. Goings, B. Peng, A. Petrone, 
 T. Henderson, D. Ranasinghe, V. G. Zakrzewski, J. Gao, N. Rega, 
 G. Zheng, W. Liang, M. Hada, M. Ehara, K. Toyota, R. Fukuda, 
 J. Hasegawa, M. Ishida, T. Nakajima, Y. Honda, O. Kitao, H. Nakai, 
 T. Vreven, K. Throssell, J. A. Montgomery, Jr., J. E. Peralta, 
 F. Ogliaro, M. J. Bearpark, J. J. Heyd, E. N. Brothers, K. N. Kudin, 
 V. N. Staroverov, T. A. Keith, R. Kobayashi, J. Normand, 
 K. Raghavachari, A. P. Rendell, J. C. Burant, S. S. Iyengar, 
 J. Tomasi, M. Cossi, J. M. Millam, M. Klene, C. Adamo, R. Cammi, 
 J. W. Ochterski, R. L. Martin, K. Morokuma, O. Farkas, 
 J. B. Foresman, and D. J. Fox, Gaussian, Inc., Wallingford CT, 2016.
 
 ******************************************
 Gaussian 16:  ES64L-G16RevA.03 25-Dec-2016
                15-Jun-2021 
 ******************************************
 %mem=16GB
 %nprocshared=16
 Will use up to   16 processors via shared memory.
 ----------------------------------------------------------------------
 #p opt=(maxstep=3) freq=noraman ub3lyp empiricaldispersion=gd3bj jul-c
 c-pvdz pop=cm5
 ----------------------------------------------------------------------
 1/8=3,18=20,19=15,26=3,38=1/1,3;
 2/9=110,12=2,17=6,18=5,40=1/2;
 3/5=16,7=50,11=2,25=1,30=1,71=1,74=-5,116=2,124=41/1,2,3;
 4//1;
 5/5=2,38=5/2;
 6/7=2,8=2,9=2,10=2,28=1,79=1/1;
 7//1,2,3,16;
 1/8=3,18=20,19=15,26=3/3(2);
 2/9=110/2;
 99//99;
 2/9=110/2;
 3/5=16,7=50,11=2,25=1,30=1,71=1,74=-5,116=2,124=41/1,2,3;
 4/5=5,16=3,69=1/1;
 5/5=2,38=5/2;
 7//1,2,3,16;
 1/8=3,18=20,19=15,26=3/3(-5);
 2/9=110/2;
 6/7=2,8=2,9=2,10=2,19=2,28=1,79=1/1;
 99/9=1/99;
 Leave Link    1 at Tue Jun 15 12:07:19 2021, MaxMem=  2147483648 cpu:               2.1 elap:               0.2
 (Enter /SFS/product/gaussian/g16.a03/x86_64/avx/g16/l101.exe)
 -----
 title
 -----
 Symbolic Z-matrix:
 Charge =  0 Multiplicity = 6
 C                     2.69416   1.34024   1.21027 
 C                     1.83669   0.39195   0.64032 
 C                     1.95799  -0.94675   1.0378 
 C                     2.89321  -1.32101   2.00226 
 C                     3.73465  -0.36588   2.57909 
 C                     3.63415   0.96659   2.17508 
 C                     0.81061   0.72117  -0.44993 
 C                     1.49585   0.51964  -1.87983 
 C                     1.51238   1.87935  -2.59005 
 C                     1.28394   2.94339  -1.50759 
 C                     0.40698   2.25259  -0.40643 
 C                    -1.00373   2.54306  -0.71942 
 C                    -1.73418   1.94553  -1.80929 
 O                    -0.31619  -0.08609  -0.33876 
 Fe                   -1.45101  -0.55248   1.04929 
 Cl                   -3.49986  -0.10059   0.199 
 C                    -1.72271   3.4237    0.20707 
 Cl                   -1.22866  -2.67812   1.60056 
 Cl                   -1.06031   0.93212   2.67965 
 H                     1.30827  -1.69725   0.59626 
 H                     2.95513  -2.36536   2.30957 
 H                     4.46015  -0.65665   3.33963 
 H                     4.28189   1.72456   2.61725 
 H                     2.64454   2.3905    0.92636 
 H                     2.5097    0.14679  -1.70849 
 C                     0.72971  -0.5531   -2.63064 
 H                     0.72005   1.90571  -3.34656 
 H                     2.45832   2.05631  -3.11728 
 H                     0.83608   3.86383  -1.90675 
 H                     2.22356   3.23345  -1.02208 
 H                     0.62481   2.65897   0.58381 
 H                    -1.08467   4.22996   0.5928 
 H                    -1.90871   2.76377   1.08742 
 H                    -2.67822   3.79399  -0.17491 
 H                    -2.49693   2.61551  -2.22533 
 H                    -2.3345    1.16374  -1.24588 
 H                    -1.16082   1.39502  -2.55666 
 O                     1.07938  -1.77014  -2.20593 
 O                    -0.11592  -0.33557  -3.47776 
 C                     0.23045  -2.87469  -2.62663 
 C                     0.57808  -4.0653   -1.75941 
 H                     0.41321  -3.06004  -3.69402 
 H                    -0.8138   -2.56265  -2.50291 
 H                    -0.02197  -4.93064  -2.07458 
 H                     0.35166  -3.8555   -0.70581 
 H                     1.64103  -4.3261   -1.85633 
 
 ITRead=  0  0  0  0  0  0  0  0  0  0  0  0  0  0  0  0  0  0  0  0
 ITRead=  0  0  0  0  0  0  0  0  0  0  0  0  0  0  0  0  0  0  0  0
 ITRead=  0  0  0  0  0  0
 MicOpt= -1 -1 -1 -1 -1 -1 -1 -1 -1 -1 -1 -1 -1 -1 -1 -1 -1 -1 -1 -1
 MicOpt= -1 -1 -1 -1 -1 -1 -1 -1 -1 -1 -1 -1 -1 -1 -1 -1 -1 -1 -1 -1
 MicOpt= -1 -1 -1 -1 -1 -1
 NAtoms=     46 NQM=       46 NQMF=       0 NMMI=      0 NMMIF=      0
                NMic=       0 NMicF=      0.
                    Isotopes and Nuclear Properties:
 (Nuclear quadrupole moments (NQMom) in fm**2, nuclear magnetic moments (NMagM)
  in nuclear magnetons)

  Atom         1           2           3           4           5           6           7           8           9          10
 IAtWgt=          12          12          12          12          12          12          12          12          12          12
 AtmWgt=  12.0000000  12.0000000  12.0000000  12.0000000  12.0000000  12.0000000  12.0000000  12.0000000  12.0000000  12.0000000
 NucSpn=           0           0           0           0           0           0           0           0           0           0
 AtZEff=  -0.0000000  -0.0000000  -0.0000000  -0.0000000  -0.0000000  -0.0000000  -0.0000000  -0.0000000  -0.0000000  -0.0000000
 NQMom=    0.0000000   0.0000000   0.0000000   0.0000000   0.0000000   0.0000000   0.0000000   0.0000000   0.0000000   0.0000000
 NMagM=    0.0000000   0.0000000   0.0000000   0.0000000   0.0000000   0.0000000   0.0000000   0.0000000   0.0000000   0.0000000
 AtZNuc=   6.0000000   6.0000000   6.0000000   6.0000000   6.0000000   6.0000000   6.0000000   6.0000000   6.0000000   6.0000000

  Atom        11          12          13          14          15          16          17          18          19          20
 IAtWgt=          12          12          12          16          56          35          12          35          35           1
 AtmWgt=  12.0000000  12.0000000  12.0000000  15.9949146  55.9349393  34.9688527  12.0000000  34.9688527  34.9688527   1.0078250
 NucSpn=           0           0           0           0           0           3           0           3           3           1
 AtZEff=  -0.0000000  -0.0000000  -0.0000000  -0.0000000  -0.0000000  -0.0000000  -0.0000000  -0.0000000  -0.0000000  -0.0000000
 NQMom=    0.0000000   0.0000000   0.0000000   0.0000000   0.0000000  -8.1650000   0.0000000  -8.1650000  -8.1650000   0.0000000
 NMagM=    0.0000000   0.0000000   0.0000000   0.0000000   0.0000000   0.8218740   0.0000000   0.8218740   0.8218740   2.7928460
 AtZNuc=   6.0000000   6.0000000   6.0000000   8.0000000  26.0000000  17.0000000   6.0000000  17.0000000  17.0000000   1.0000000

  Atom        21          22          23          24          25          26          27          28          29          30
 IAtWgt=           1           1           1           1           1          12           1           1           1           1
 AtmWgt=   1.0078250   1.0078250   1.0078250   1.0078250   1.0078250  12.0000000   1.0078250   1.0078250   1.0078250   1.0078250
 NucSpn=           1           1           1           1           1           0           1           1           1           1
 AtZEff=  -0.0000000  -0.0000000  -0.0000000  -0.0000000  -0.0000000  -0.0000000  -0.0000000  -0.0000000  -0.0000000  -0.0000000
 NQMom=    0.0000000   0.0000000   0.0000000   0.0000000   0.0000000   0.0000000   0.0000000   0.0000000   0.0000000   0.0000000
 NMagM=    2.7928460   2.7928460   2.7928460   2.7928460   2.7928460   0.0000000   2.7928460   2.7928460   2.7928460   2.7928460
 AtZNuc=   1.0000000   1.0000000   1.0000000   1.0000000   1.0000000   6.0000000   1.0000000   1.0000000   1.0000000   1.0000000

  Atom        31          32          33          34          35          36          37          38          39          40
 IAtWgt=           1           1           1           1           1           1           1          16          16          12
 AtmWgt=   1.0078250   1.0078250   1.0078250   1.0078250   1.0078250   1.0078250   1.0078250  15.9949146  15.9949146  12.0000000
 NucSpn=           1           1           1           1           1           1           1           0           0           0
 AtZEff=  -0.0000000  -0.0000000  -0.0000000  -0.0000000  -0.0000000  -0.0000000  -0.0000000  -0.0000000  -0.0000000  -0.0000000
 NQMom=    0.0000000   0.0000000   0.0000000   0.0000000   0.0000000   0.0000000   0.0000000   0.0000000   0.0000000   0.0000000
 NMagM=    2.7928460   2.7928460   2.7928460   2.7928460   2.7928460   2.7928460   2.7928460   0.0000000   0.0000000   0.0000000
 AtZNuc=   1.0000000   1.0000000   1.0000000   1.0000000   1.0000000   1.0000000   1.0000000   8.0000000   8.0000000   6.0000000

  Atom        41          42          43          44          45          46
 IAtWgt=          12           1           1           1           1           1
 AtmWgt=  12.0000000   1.0078250   1.0078250   1.0078250   1.0078250   1.0078250
 NucSpn=           0           1           1           1           1           1
 AtZEff=  -0.0000000  -0.0000000  -0.0000000  -0.0000000  -0.0000000  -0.0000000
 NQMom=    0.0000000   0.0000000   0.0000000   0.0000000   0.0000000   0.0000000
 NMagM=    0.0000000   2.7928460   2.7928460   2.7928460   2.7928460   2.7928460
 AtZNuc=   6.0000000   1.0000000   1.0000000   1.0000000   1.0000000   1.0000000
 Leave Link  101 at Tue Jun 15 12:07:19 2021, MaxMem=  2147483648 cpu:               6.3 elap:               0.4
 (Enter /SFS/product/gaussian/g16.a03/x86_64/avx/g16/l103.exe)

 GradGradGradGradGradGradGradGradGradGradGradGradGradGradGradGradGradGrad
 Berny optimization.
 Initialization pass.
                           ----------------------------
                           !    Initial Parameters    !
                           ! (Angstroms and Degrees)  !
 --------------------------                            --------------------------
 ! Name  Definition              Value          Derivative Info.                !
 --------------------------------------------------------------------------------
 ! R1    R(1,2)                  1.3998         estimate D2E/DX2                !
 ! R2    R(1,6)                  1.3979         estimate D2E/DX2                !
 ! R3    R(1,24)                 1.0891         estimate D2E/DX2                !
 ! R4    R(2,3)                  1.4017         estimate D2E/DX2                !
 ! R5    R(2,7)                  1.5329         estimate D2E/DX2                !
 ! R6    R(3,4)                  1.3946         estimate D2E/DX2                !
 ! R7    R(3,20)                 1.0864         estimate D2E/DX2                !
 ! R8    R(4,5)                  1.3975         estimate D2E/DX2                !
 ! R9    R(4,21)                 1.0904         estimate D2E/DX2                !
 ! R10   R(5,6)                  1.396          estimate D2E/DX2                !
 ! R11   R(5,22)                 1.0906         estimate D2E/DX2                !
 ! R12   R(6,23)                 1.0907         estimate D2E/DX2                !
 ! R13   R(7,8)                  1.5984         estimate D2E/DX2                !
 ! R14   R(7,11)                 1.5843         estimate D2E/DX2                !
 ! R15   R(7,14)                 1.3906         estimate D2E/DX2                !
 ! R16   R(8,9)                  1.5341         estimate D2E/DX2                !
 ! R17   R(8,25)                 1.0937         estimate D2E/DX2                !
 ! R18   R(8,26)                 1.5171         estimate D2E/DX2                !
 ! R19   R(9,10)                 1.535          estimate D2E/DX2                !
 ! R20   R(9,27)                 1.0958         estimate D2E/DX2                !
 ! R21   R(9,28)                 1.0973         estimate D2E/DX2                !
 ! R22   R(10,11)                1.5681         estimate D2E/DX2                !
 ! R23   R(10,29)                1.0987         estimate D2E/DX2                !
 ! R24   R(10,30)                1.0967         estimate D2E/DX2                !
 ! R25   R(11,12)                1.4739         estimate D2E/DX2                !
 ! R26   R(11,31)                1.0923         estimate D2E/DX2                !
 ! R27   R(12,13)                1.4417         estimate D2E/DX2                !
 ! R28   R(12,17)                1.4666         estimate D2E/DX2                !
 ! R29   R(13,35)                1.0972         estimate D2E/DX2                !
 ! R30   R(13,36)                1.1354         estimate D2E/DX2                !
 ! R31   R(13,37)                1.091          estimate D2E/DX2                !
 ! R32   R(14,15)                1.8526         estimate D2E/DX2                !
 ! R33   R(15,16)                2.2638         estimate D2E/DX2                !
 ! R34   R(15,18)                2.2072         estimate D2E/DX2                !
 ! R35   R(15,19)                2.2394         estimate D2E/DX2                !
 ! R36   R(17,32)                1.0982         estimate D2E/DX2                !
 ! R37   R(17,33)                1.1159         estimate D2E/DX2                !
 ! R38   R(17,34)                1.0936         estimate D2E/DX2                !
 ! R39   R(26,38)                1.3356         estimate D2E/DX2                !
 ! R40   R(26,39)                1.2166         estimate D2E/DX2                !
 ! R41   R(38,40)                1.4552         estimate D2E/DX2                !
 ! R42   R(40,41)                1.5134         estimate D2E/DX2                !
 ! R43   R(40,42)                1.0987         estimate D2E/DX2                !
 ! R44   R(40,43)                1.0969         estimate D2E/DX2                !
 ! R45   R(41,44)                1.0992         estimate D2E/DX2                !
 ! R46   R(41,45)                1.0979         estimate D2E/DX2                !
 ! R47   R(41,46)                1.0988         estimate D2E/DX2                !
 ! A1    A(2,1,6)              120.7892         estimate D2E/DX2                !
 ! A2    A(2,1,24)             121.2816         estimate D2E/DX2                !
 ! A3    A(6,1,24)             117.926          estimate D2E/DX2                !
 ! A4    A(1,2,3)              118.5893         estimate D2E/DX2                !
 ! A5    A(1,2,7)              123.6513         estimate D2E/DX2                !
 ! A6    A(3,2,7)              117.6915         estimate D2E/DX2                !
 ! A7    A(2,3,4)              120.6931         estimate D2E/DX2                !
 ! A8    A(2,3,20)             119.5208         estimate D2E/DX2                !
 ! A9    A(4,3,20)             119.7829         estimate D2E/DX2                !
 ! A10   A(3,4,5)              120.3847         estimate D2E/DX2                !
 ! A11   A(3,4,21)             119.3425         estimate D2E/DX2                !
 ! A12   A(5,4,21)             120.2701         estimate D2E/DX2                !
 ! A13   A(4,5,6)              119.3111         estimate D2E/DX2                !
 ! A14   A(4,5,22)             120.4092         estimate D2E/DX2                !
 ! A15   A(6,5,22)             120.2793         estimate D2E/DX2                !
 ! A16   A(1,6,5)              120.2178         estimate D2E/DX2                !
 ! A17   A(1,6,23)             119.565          estimate D2E/DX2                !
 ! A18   A(5,6,23)             120.2145         estimate D2E/DX2                !
 ! A19   A(2,7,8)              108.7967         estimate D2E/DX2                !
 ! A20   A(2,7,11)             111.0139         estimate D2E/DX2                !
 ! A21   A(2,7,14)             111.1526         estimate D2E/DX2                !
 ! A22   A(8,7,11)             104.8131         estimate D2E/DX2                !
 ! A23   A(8,7,14)             110.2255         estimate D2E/DX2                !
 ! A24   A(11,7,14)            110.6406         estimate D2E/DX2                !
 ! A25   A(7,8,9)              107.8797         estimate D2E/DX2                !
 ! A26   A(7,8,25)             107.4719         estimate D2E/DX2                !
 ! A27   A(7,8,26)             108.3849         estimate D2E/DX2                !
 ! A28   A(9,8,25)             111.3882         estimate D2E/DX2                !
 ! A29   A(9,8,26)             113.7689         estimate D2E/DX2                !
 ! A30   A(25,8,26)            107.7344         estimate D2E/DX2                !
 ! A31   A(8,9,10)             106.638          estimate D2E/DX2                !
 ! A32   A(8,9,27)             109.4594         estimate D2E/DX2                !
 ! A33   A(8,9,28)             112.0031         estimate D2E/DX2                !
 ! A34   A(10,9,27)            111.2579         estimate D2E/DX2                !
 ! A35   A(10,9,28)            110.8143         estimate D2E/DX2                !
 ! A36   A(27,9,28)            106.7219         estimate D2E/DX2                !
 ! A37   A(9,10,11)            105.8469         estimate D2E/DX2                !
 ! A38   A(9,10,29)            112.6563         estimate D2E/DX2                !
 ! A39   A(9,10,30)            111.594          estimate D2E/DX2                !
 ! A40   A(11,10,29)           113.343          estimate D2E/DX2                !
 ! A41   A(11,10,30)           106.5465         estimate D2E/DX2                !
 ! A42   A(29,10,30)           106.7687         estimate D2E/DX2                !
 ! A43   A(7,11,10)            105.3118         estimate D2E/DX2                !
 ! A44   A(7,11,12)            115.3728         estimate D2E/DX2                !
 ! A45   A(7,11,31)            109.4937         estimate D2E/DX2                !
 ! A46   A(10,11,12)           107.4174         estimate D2E/DX2                !
 ! A47   A(10,11,31)           111.1732         estimate D2E/DX2                !
 ! A48   A(12,11,31)           108.0626         estimate D2E/DX2                !
 ! A49   A(11,12,13)           124.3184         estimate D2E/DX2                !
 ! A50   A(11,12,17)           116.9624         estimate D2E/DX2                !
 ! A51   A(13,12,17)           118.5594         estimate D2E/DX2                !
 ! A52   A(12,13,35)           112.6942         estimate D2E/DX2                !
 ! A53   A(12,13,36)           100.262          estimate D2E/DX2                !
 ! A54   A(12,13,37)           117.4339         estimate D2E/DX2                !
 ! A55   A(35,13,36)           103.9496         estimate D2E/DX2                !
 ! A56   A(35,13,37)           114.438          estimate D2E/DX2                !
 ! A57   A(36,13,37)           105.685          estimate D2E/DX2                !
 ! A58   A(7,14,15)            134.6214         estimate D2E/DX2                !
 ! A59   A(14,15,16)           102.8692         estimate D2E/DX2                !
 ! A60   A(14,15,18)           111.5847         estimate D2E/DX2                !
 ! A61   A(14,15,19)           105.7666         estimate D2E/DX2                !
 ! A62   A(16,15,18)           112.1616         estimate D2E/DX2                !
 ! A63   A(16,15,19)           107.3985         estimate D2E/DX2                !
 ! A64   A(18,15,19)           116.0428         estimate D2E/DX2                !
 ! A65   A(12,17,32)           112.2057         estimate D2E/DX2                !
 ! A66   A(12,17,33)           103.0027         estimate D2E/DX2                !
 ! A67   A(12,17,34)           114.2672         estimate D2E/DX2                !
 ! A68   A(32,17,33)           104.7104         estimate D2E/DX2                !
 ! A69   A(32,17,34)           112.4413         estimate D2E/DX2                !
 ! A70   A(33,17,34)           109.2788         estimate D2E/DX2                !
 ! A71   A(8,26,38)            110.7779         estimate D2E/DX2                !
 ! A72   A(8,26,39)            124.6961         estimate D2E/DX2                !
 ! A73   A(38,26,39)           124.4955         estimate D2E/DX2                !
 ! A74   A(26,38,40)           116.5501         estimate D2E/DX2                !
 ! A75   A(38,40,41)           107.3053         estimate D2E/DX2                !
 ! A76   A(38,40,42)           108.1721         estimate D2E/DX2                !
 ! A77   A(38,40,43)           107.8693         estimate D2E/DX2                !
 ! A78   A(41,40,42)           112.6917         estimate D2E/DX2                !
 ! A79   A(41,40,43)           112.2003         estimate D2E/DX2                !
 ! A80   A(42,40,43)           108.4175         estimate D2E/DX2                !
 ! A81   A(40,41,44)           109.2462         estimate D2E/DX2                !
 ! A82   A(40,41,45)           110.6219         estimate D2E/DX2                !
 ! A83   A(40,41,46)           111.0018         estimate D2E/DX2                !
 ! A84   A(44,41,45)           108.2414         estimate D2E/DX2                !
 ! A85   A(44,41,46)           108.4188         estimate D2E/DX2                !
 ! A86   A(45,41,46)           109.2399         estimate D2E/DX2                !
 ! D1    D(6,1,2,3)             -1.2581         estimate D2E/DX2                !
 ! D2    D(6,1,2,7)           -178.1871         estimate D2E/DX2                !
 ! D3    D(24,1,2,3)           179.4057         estimate D2E/DX2                !
 ! D4    D(24,1,2,7)             2.4767         estimate D2E/DX2                !
 ! D5    D(2,1,6,5)              0.346          estimate D2E/DX2                !
 ! D6    D(2,1,6,23)          -179.0577         estimate D2E/DX2                !
 ! D7    D(24,1,6,5)           179.7039         estimate D2E/DX2                !
 ! D8    D(24,1,6,23)            0.3002         estimate D2E/DX2                !
 ! D9    D(1,2,3,4)              1.3934         estimate D2E/DX2                !
 ! D10   D(1,2,3,20)          -179.2648         estimate D2E/DX2                !
 ! D11   D(7,2,3,4)            178.5065         estimate D2E/DX2                !
 ! D12   D(7,2,3,20)            -2.1516         estimate D2E/DX2                !
 ! D13   D(1,2,7,8)             90.6187         estimate D2E/DX2                !
 ! D14   D(1,2,7,11)           -24.2196         estimate D2E/DX2                !
 ! D15   D(1,2,7,14)          -147.8294         estimate D2E/DX2                !
 ! D16   D(3,2,7,8)            -86.336          estimate D2E/DX2                !
 ! D17   D(3,2,7,11)           158.8257         estimate D2E/DX2                !
 ! D18   D(3,2,7,14)            35.2159         estimate D2E/DX2                !
 ! D19   D(2,3,4,5)             -0.6187         estimate D2E/DX2                !
 ! D20   D(2,3,4,21)           178.7805         estimate D2E/DX2                !
 ! D21   D(20,3,4,5)          -179.9588         estimate D2E/DX2                !
 ! D22   D(20,3,4,21)           -0.5596         estimate D2E/DX2                !
 ! D23   D(3,4,5,6)             -0.3175         estimate D2E/DX2                !
 ! D24   D(3,4,5,22)           179.4632         estimate D2E/DX2                !
 ! D25   D(21,4,5,6)          -179.7111         estimate D2E/DX2                !
 ! D26   D(21,4,5,22)            0.0696         estimate D2E/DX2                !
 ! D27   D(4,5,6,1)              0.4528         estimate D2E/DX2                !
 ! D28   D(4,5,6,23)           179.8526         estimate D2E/DX2                !
 ! D29   D(22,5,6,1)          -179.3283         estimate D2E/DX2                !
 ! D30   D(22,5,6,23)            0.0716         estimate D2E/DX2                !
 ! D31   D(2,7,8,9)           -117.3183         estimate D2E/DX2                !
 ! D32   D(2,7,8,25)             2.8982         estimate D2E/DX2                !
 ! D33   D(2,7,8,26)           119.0741         estimate D2E/DX2                !
 ! D34   D(11,7,8,9)             1.4867         estimate D2E/DX2                !
 ! D35   D(11,7,8,25)          121.7031         estimate D2E/DX2                !
 ! D36   D(11,7,8,26)         -122.1209         estimate D2E/DX2                !
 ! D37   D(14,7,8,9)           120.5659         estimate D2E/DX2                !
 ! D38   D(14,7,8,25)         -119.2177         estimate D2E/DX2                !
 ! D39   D(14,7,8,26)           -3.0417         estimate D2E/DX2                !
 ! D40   D(2,7,11,10)           97.9816         estimate D2E/DX2                !
 ! D41   D(2,7,11,12)         -143.768          estimate D2E/DX2                !
 ! D42   D(2,7,11,31)          -21.6336         estimate D2E/DX2                !
 ! D43   D(8,7,11,10)          -19.3166         estimate D2E/DX2                !
 ! D44   D(8,7,11,12)           98.9338         estimate D2E/DX2                !
 ! D45   D(8,7,11,31)         -138.9318         estimate D2E/DX2                !
 ! D46   D(14,7,11,10)        -138.1161         estimate D2E/DX2                !
 ! D47   D(14,7,11,12)         -19.8658         estimate D2E/DX2                !
 ! D48   D(14,7,11,31)         102.2687         estimate D2E/DX2                !
 ! D49   D(2,7,14,15)           49.5814         estimate D2E/DX2                !
 ! D50   D(8,7,14,15)          170.2951         estimate D2E/DX2                !
 ! D51   D(11,7,14,15)         -74.2411         estimate D2E/DX2                !
 ! D52   D(7,8,9,10)            17.4297         estimate D2E/DX2                !
 ! D53   D(7,8,9,27)          -103.0292         estimate D2E/DX2                !
 ! D54   D(7,8,9,28)           138.8128         estimate D2E/DX2                !
 ! D55   D(25,8,9,10)         -100.2908         estimate D2E/DX2                !
 ! D56   D(25,8,9,27)          139.2504         estimate D2E/DX2                !
 ! D57   D(25,8,9,28)           21.0924         estimate D2E/DX2                !
 ! D58   D(26,8,9,10)          137.7076         estimate D2E/DX2                !
 ! D59   D(26,8,9,27)           17.2488         estimate D2E/DX2                !
 ! D60   D(26,8,9,28)         -100.9092         estimate D2E/DX2                !
 ! D61   D(7,8,26,38)          -79.0041         estimate D2E/DX2                !
 ! D62   D(7,8,26,39)           99.0594         estimate D2E/DX2                !
 ! D63   D(9,8,26,38)          161.0029         estimate D2E/DX2                !
 ! D64   D(9,8,26,39)          -20.9336         estimate D2E/DX2                !
 ! D65   D(25,8,26,38)          37.0017         estimate D2E/DX2                !
 ! D66   D(25,8,26,39)        -144.9348         estimate D2E/DX2                !
 ! D67   D(8,9,10,11)          -29.8072         estimate D2E/DX2                !
 ! D68   D(8,9,10,29)         -154.1967         estimate D2E/DX2                !
 ! D69   D(8,9,10,30)           85.7075         estimate D2E/DX2                !
 ! D70   D(27,9,10,11)          89.4899         estimate D2E/DX2                !
 ! D71   D(27,9,10,29)         -34.8996         estimate D2E/DX2                !
 ! D72   D(27,9,10,30)        -154.9953         estimate D2E/DX2                !
 ! D73   D(28,9,10,11)        -151.9433         estimate D2E/DX2                !
 ! D74   D(28,9,10,29)          83.6672         estimate D2E/DX2                !
 ! D75   D(28,9,10,30)         -36.4286         estimate D2E/DX2                !
 ! D76   D(9,10,11,7)           30.5007         estimate D2E/DX2                !
 ! D77   D(9,10,11,12)         -92.9705         estimate D2E/DX2                !
 ! D78   D(9,10,11,31)         148.9956         estimate D2E/DX2                !
 ! D79   D(29,10,11,7)         154.4609         estimate D2E/DX2                !
 ! D80   D(29,10,11,12)         30.9897         estimate D2E/DX2                !
 ! D81   D(29,10,11,31)        -87.0442         estimate D2E/DX2                !
 ! D82   D(30,10,11,7)         -88.4087         estimate D2E/DX2                !
 ! D83   D(30,10,11,12)        148.1201         estimate D2E/DX2                !
 ! D84   D(30,10,11,31)         30.0862         estimate D2E/DX2                !
 ! D85   D(7,11,12,13)         -44.3206         estimate D2E/DX2                !
 ! D86   D(7,11,12,17)         131.0042         estimate D2E/DX2                !
 ! D87   D(10,11,12,13)         72.75           estimate D2E/DX2                !
 ! D88   D(10,11,12,17)       -111.9252         estimate D2E/DX2                !
 ! D89   D(31,11,12,13)       -167.2183         estimate D2E/DX2                !
 ! D90   D(31,11,12,17)          8.1065         estimate D2E/DX2                !
 ! D91   D(11,12,13,35)       -148.3647         estimate D2E/DX2                !
 ! D92   D(11,12,13,36)        101.6817         estimate D2E/DX2                !
 ! D93   D(11,12,13,37)        -12.1177         estimate D2E/DX2                !
 ! D94   D(17,12,13,35)         36.3797         estimate D2E/DX2                !
 ! D95   D(17,12,13,36)        -73.5738         estimate D2E/DX2                !
 ! D96   D(17,12,13,37)        172.6267         estimate D2E/DX2                !
 ! D97   D(11,12,17,32)         37.1935         estimate D2E/DX2                !
 ! D98   D(11,12,17,33)        -74.8776         estimate D2E/DX2                !
 ! D99   D(11,12,17,34)        166.7109         estimate D2E/DX2                !
 ! D100  D(13,12,17,32)       -147.2021         estimate D2E/DX2                !
 ! D101  D(13,12,17,33)        100.7268         estimate D2E/DX2                !
 ! D102  D(13,12,17,34)        -17.6847         estimate D2E/DX2                !
 ! D103  D(7,14,15,16)         128.3995         estimate D2E/DX2                !
 ! D104  D(7,14,15,18)        -111.1692         estimate D2E/DX2                !
 ! D105  D(7,14,15,19)          15.8664         estimate D2E/DX2                !
 ! D106  D(8,26,38,40)         167.2798         estimate D2E/DX2                !
 ! D107  D(39,26,38,40)        -10.7884         estimate D2E/DX2                !
 ! D108  D(26,38,40,41)       -165.3413         estimate D2E/DX2                !
 ! D109  D(26,38,40,42)         72.819          estimate D2E/DX2                !
 ! D110  D(26,38,40,43)        -44.2591         estimate D2E/DX2                !
 ! D111  D(38,40,41,44)       -178.0368         estimate D2E/DX2                !
 ! D112  D(38,40,41,45)         62.9091         estimate D2E/DX2                !
 ! D113  D(38,40,41,46)        -58.5308         estimate D2E/DX2                !
 ! D114  D(42,40,41,44)        -59.0673         estimate D2E/DX2                !
 ! D115  D(42,40,41,45)       -178.1214         estimate D2E/DX2                !
 ! D116  D(42,40,41,46)         60.4387         estimate D2E/DX2                !
 ! D117  D(43,40,41,44)         63.6509         estimate D2E/DX2                !
 ! D118  D(43,40,41,45)        -55.4032         estimate D2E/DX2                !
 ! D119  D(43,40,41,46)       -176.8431         estimate D2E/DX2                !
 --------------------------------------------------------------------------------
 Trust Radius=3.00D-02 FncErr=1.00D-07 GrdErr=1.00D-06 EigMax=2.50D+02 EigMin=1.00D-04
 Number of steps in this run=    262 maximum allowed number of steps=    276.
 GradGradGradGradGradGradGradGradGradGradGradGradGradGradGradGradGradGrad

 Leave Link  103 at Tue Jun 15 12:07:19 2021, MaxMem=  2147483648 cpu:               0.4 elap:               0.1
 (Enter /SFS/product/gaussian/g16.a03/x86_64/avx/g16/l202.exe)
                          Input orientation:                          
 ---------------------------------------------------------------------
 Center     Atomic      Atomic             Coordinates (Angstroms)
 Number     Number       Type             X           Y           Z
 ---------------------------------------------------------------------
      1          6           0        2.694164    1.340235    1.210272
      2          6           0        1.836694    0.391951    0.640315
      3          6           0        1.957987   -0.946747    1.037802
      4          6           0        2.893213   -1.321013    2.002256
      5          6           0        3.734651   -0.365879    2.579091
      6          6           0        3.634153    0.966594    2.175077
      7          6           0        0.810611    0.721170   -0.449933
      8          6           0        1.495854    0.519638   -1.879830
      9          6           0        1.512377    1.879349   -2.590047
     10          6           0        1.283936    2.943392   -1.507586
     11          6           0        0.406979    2.252587   -0.406425
     12          6           0       -1.003732    2.543062   -0.719420
     13          6           0       -1.734177    1.945534   -1.809293
     14          8           0       -0.316187   -0.086093   -0.338759
     15         26           0       -1.451012   -0.552478    1.049285
     16         17           0       -3.499858   -0.100585    0.199000
     17          6           0       -1.722708    3.423704    0.207065
     18         17           0       -1.228664   -2.678122    1.600563
     19         17           0       -1.060311    0.932118    2.679653
     20          1           0        1.308266   -1.697249    0.596264
     21          1           0        2.955133   -2.365361    2.309565
     22          1           0        4.460153   -0.656652    3.339627
     23          1           0        4.281893    1.724564    2.617254
     24          1           0        2.644539    2.390495    0.926359
     25          1           0        2.509696    0.146785   -1.708491
     26          6           0        0.729713   -0.553097   -2.630644
     27          1           0        0.720045    1.905709   -3.346555
     28          1           0        2.458319    2.056310   -3.117285
     29          1           0        0.836083    3.863829   -1.906746
     30          1           0        2.223555    3.233448   -1.022077
     31          1           0        0.624807    2.658966    0.583807
     32          1           0       -1.084668    4.229959    0.592803
     33          1           0       -1.908712    2.763768    1.087424
     34          1           0       -2.678216    3.793988   -0.174910
     35          1           0       -2.496928    2.615506   -2.225334
     36          1           0       -2.334500    1.163738   -1.245877
     37          1           0       -1.160823    1.395018   -2.556660
     38          8           0        1.079384   -1.770135   -2.205929
     39          8           0       -0.115918   -0.335571   -3.477761
     40          6           0        0.230450   -2.874690   -2.626629
     41          6           0        0.578084   -4.065299   -1.759406
     42          1           0        0.413211   -3.060042   -3.694017
     43          1           0       -0.813802   -2.562654   -2.502912
     44          1           0       -0.021974   -4.930641   -2.074584
     45          1           0        0.351660   -3.855502   -0.705806
     46          1           0        1.641027   -4.326099   -1.856327
 ---------------------------------------------------------------------
                    Distance matrix (angstroms):
                    1          2          3          4          5
     1  C    0.000000
     2  C    1.399767   0.000000
     3  C    2.408732   1.401720   0.000000
     4  C    2.783721   2.430095   1.394595   0.000000
     5  C    2.422210   2.816984   2.422708   1.397511   0.000000
     6  C    1.397868   2.432400   2.786360   2.410810   1.395998
     7  C    2.585980   1.532929   2.512324   3.810639   4.348180
     8  C    3.414390   2.546293   3.297943   4.517876   5.067379
     9  C    4.016178   3.571102   4.620246   5.765264   6.058014
    10  C    3.456242   3.380661   4.697502   5.752731   5.801569
    11  C    2.945728   2.569380   3.837598   4.975311   5.181030
    12  C    4.341076   3.813683   4.902895   6.125747   6.464858
    13  C    5.393919   4.600578   5.486649   6.827223   7.382996
    14  O    3.673707   2.412884   2.794193   4.160003   5.000142
    15  Fe   4.559689   3.445027   3.431742   4.513434   5.409827
    16  Cl   6.439297   5.377373   5.586381   6.753705   7.620586
    17  C    4.985582   4.695591   5.773949   6.858701   7.054801
    18  Cl   5.629218   4.443405   3.670028   4.358093   5.562237
    19  Cl   4.052372   3.583758   3.916112   4.600632   4.968558
    20  H    3.394706   2.155443   1.086437   2.151842   3.404628
    21  H    3.874015   3.411755   2.150383   1.090383   2.162920
    22  H    3.411807   3.907479   3.412241   2.164541   1.090558
    23  H    2.155966   3.415134   3.876998   3.403262   2.161222
    24  H    1.089089   2.174537   3.408953   3.872297   3.393739
    25  H    3.158723   2.455591   3.007045   4.008885   4.488507
    26  C    4.711307   3.580181   3.888588   5.170512   6.017146
    27  H    4.998158   4.408344   5.375090   6.613938   7.025756
    28  H    4.392737   4.156449   5.151061   6.148589   6.320184
    29  H    4.420044   4.420710   5.750711   6.811363   6.812845
    30  H    2.964643   3.314712   4.667725   5.508008   5.311024
    31  H    2.532538   2.571229   3.871001   4.795612   4.775141
    32  H    4.797014   4.823579   6.021134   6.973047   6.949310
    33  H    4.819544   4.455725   5.359267   6.370309   6.623240
    34  H    6.066473   5.711642   6.740891   7.870458   8.124892
    35  H    6.354301   5.651232   6.571451   7.900780   8.414495
    36  H    5.599221   4.642438   5.300451   6.637269   7.335169
    37  H    5.390149   4.495765   5.303866   6.678005   7.310428
    38  O    4.894113   3.653661   3.460015   4.604401   5.649672
    39  O    5.716865   4.615250   5.006489   6.329025   7.177274
    40  C    6.209452   4.891205   4.486580   5.561546   6.758186
    41  C    6.520474   5.216305   4.410654   5.200099   6.517068
    42  H    6.972606   5.720926   5.407630   6.451524   7.592257
    43  H    6.428538   5.063072   4.778140   5.964912   7.165263
    44  H    7.582320   6.257420   5.429420   6.176435   7.523694
    45  H    6.012850   4.696618   3.752507   4.496301   5.866229
    46  H    6.528435   5.341489   4.460546   5.048482   6.303930
                    6          7          8          9         10
     6  C    0.000000
     7  C    3.863069   0.000000
     8  C    4.605905   1.598367   0.000000
     9  C    5.295419   2.532576   1.534111   0.000000
    10  C    4.795128   2.506180   2.461312   1.534958   0.000000
    11  C    4.328115   1.584314   2.521841   2.475766   1.568063
    12  C    5.689758   2.585296   3.418878   3.204772   2.452528
    13  C    6.756663   3.134146   3.531466   3.339771   3.193079
    14  O    4.799240   1.390578   2.454649   3.503556   3.619990
    15  Fe   5.425301   2.997461   4.291057   5.285848   5.122366
    16  Cl   7.479162   4.435824   5.446407   6.068066   5.921395
    17  C    6.213407   3.762053   4.811223   4.546938   3.494372
    18  Cl   6.104180   4.462999   5.455438   6.770898   6.897476
    19  Cl   4.721629   3.652281   5.243377   5.940177   5.203238
    20  H    3.872785   2.681593   3.328786   4.794402   5.095324
    21  H    3.403098   4.662668   5.291856   6.641183   6.748807
    22  H    2.161800   5.438595   6.116654   7.090960   6.822327
    23  H    1.090691   4.739645   5.425645   5.900014   5.242861
    24  H    2.136850   2.836215   3.562903   3.729366   2.842714
    25  H    4.125359   2.191067   1.093733   2.184849   3.060043
    26  C    5.817232   2.527014   1.517054   2.555583   3.714008
    27  H    6.313666   3.130775   2.162026   1.095805   2.185536
    28  H    5.529843   3.407684   2.195221   1.097316   2.181105
    29  H    5.734496   3.463995   3.408759   2.205093   1.098683
    30  H    4.165358   2.938588   2.937695   2.190408   1.096693
    31  H    3.801635   2.204131   3.377122   3.386581   2.211170
    32  H    5.951505   4.122012   5.151649   4.732921   3.417188
    33  H    5.927578   3.732344   5.042994   5.099984   4.118172
    34  H    7.304971   4.657227   5.572341   5.201903   4.265933
    35  H    7.724810   4.204803   4.522648   4.092612   3.862331
    36  H    6.882340   3.274312   3.935527   4.137313   4.040883
    37  H    6.750161   2.962925   2.877902   2.716926   3.078127
    38  O    5.762790   3.059798   2.350074   3.695100   4.769367
    39  O    6.907477   3.338098   2.425402   2.888815   4.073424
    40  C    7.028303   4.243207   3.698705   4.923978   6.017655
    41  C    7.080936   4.967804   4.677441   6.074678   7.048645
    42  H    7.812460   4.997957   4.156621   5.179237   6.448245
    43  H    7.356866   4.199636   3.901700   5.014987   5.975594
    44  H    8.136600   5.939331   5.661031   6.999707   8.001705
    45  H    6.505909   4.606738   4.672190   6.147044   6.909193
    46  H    6.945313   5.304947   4.847968   6.249998   7.286606
                   11         12         13         14         15
    11  C    0.000000
    12  C    1.473922   0.000000
    13  C    2.578152   1.441670   0.000000
    14  O    2.448872   2.744099   2.881089   0.000000
    15  Fe   3.666008   3.593152   3.806798   1.852568   0.000000
    16  Cl   4.600797   3.750068   3.367116   3.228801   2.263838
    17  C    2.506681   1.466571   2.500164   3.820327   4.073472
    18  Cl   5.569131   5.717839   5.767223   3.363361   2.207195
    19  Cl   3.663394   3.761920   4.650994   3.271282   2.239369
    20  H    4.173597   5.005656   5.320999   2.471627   3.021480
    21  H    5.932549   6.995711   7.585409   4.786462   4.928384
    22  H    6.238974   7.521175   8.464778   6.055533   6.340220
    23  H    4.943319   6.304059   7.472365   5.758371   6.364719
    24  H    2.608066   4.005215   5.182175   4.062008   5.044773
    25  H    3.248261   4.366301   4.610436   3.148970   4.876628
    26  C    3.594881   4.030361   3.603960   2.562174   4.277551
    27  H    2.977029   3.206160   2.896199   3.753384   5.484485
    28  H    3.405185   4.239396   4.393192   4.473028   6.280840
    29  H    2.243032   2.557164   3.208674   4.403203   5.785559
    30  H    2.154313   3.314154   4.235809   4.235158   5.668000
    31  H    1.092315   2.089013   3.435217   3.044987   3.852151
    32  H    2.670855   2.138715   3.377947   4.481816   4.818121
    33  H    2.802734   2.032827   3.015118   3.562561   3.347900
    34  H    3.456580   2.159908   2.641817   4.545443   4.679364
    35  H    3.445695   2.121947   1.097152   3.951384   4.674740
    36  H    3.066917   1.987620   1.135355   2.541363   2.998953
    37  H    2.795879   2.172126   1.091036   2.797532   4.108502
    38  O    4.457873   5.015252   4.677568   2.875750   4.299071
    39  O    4.050319   4.084506   3.256684   3.155262   4.724793
    40  C    5.590120   5.874750   5.269000   3.648210   4.661794
    41  C    6.463398   6.874165   6.440431   4.318801   4.934155
    42  H    6.247586   6.500056   5.763614   4.542483   5.679975
    43  H    5.391856   5.411585   4.653166   3.326339   4.130974
    44  H    7.386848   7.658757   7.091107   5.154541   5.564981
    45  H    6.115672   6.540558   6.262621   3.845671   4.152100
    46  H    6.848664   7.447998   7.122331   4.910331   5.678336
                   16         17         18         19         20
    16  Cl   0.000000
    17  C    3.947017   0.000000
    18  Cl   3.710310   6.278391   0.000000
    19  Cl   3.629257   3.572179   3.771818   0.000000
    20  H    5.081851   5.963425   2.899438   4.106609   0.000000
    21  H    7.158953   7.734079   4.254957   5.209042   2.468592
    22  H    8.575227   8.043011   6.282780   5.782325   4.306190
    23  H    8.350735   6.689643   7.126257   5.401019   4.963433
    24  H    6.669943   4.545080   6.414603   4.350496   4.313263
    25  H    6.309870   5.685138   5.736312   5.711174   3.186815
    26  C    5.108906   5.466435   5.123874   5.797353   3.472282
    27  H    5.865472   4.571604   7.020182   6.358674   5.373372
    28  H    7.151910   5.513806   7.633268   6.873795   5.403913
    29  H    6.241084   3.348032   7.704643   5.764225   6.116666
    30  H    6.735300   4.137630   7.330942   5.457353   5.269588
    31  H    4.977556   2.497516   5.740527   3.195966   4.409522
    32  H    4.974116   1.098151   6.982686   3.902729   6.392022
    33  H    3.394932   1.115861   5.508171   2.570976   5.521853
    34  H    3.997825   1.093623   6.865982   4.353900   6.829380
    35  H    3.776296   2.677530   6.653456   5.381130   6.406307
    36  H    2.245939   2.755499   4.907645   4.133641   4.984824
    37  H    3.911723   3.474112   5.820445   5.257695   5.059589
    38  O    5.435121   6.375753   4.543227   5.979078   2.812470
    39  O    5.002483   5.503805   5.702203   6.357095   4.525500
    40  C    5.440132   7.177354   4.476249   6.656912   3.596539
    41  C    6.015307   8.077488   4.059309   6.882133   3.419065
    42  H    6.263072   7.862541   5.556455   7.663699   4.589645
    43  H    4.536189   6.633745   4.126009   6.255652   3.854477
    44  H    6.371366   8.825729   4.476231   7.619242   4.399749
    45  H    5.454564   7.623856   3.033642   6.031277   2.696023
    46  H    6.964771   8.696651   4.785503   7.451254   3.610649
                   21         22         23         24         25
    21  H    0.000000
    22  H    2.499160   0.000000
    23  H    4.310737   2.494752   0.000000
    24  H    4.962650   4.290154   2.446123   0.000000
    25  H    4.759629   5.471132   4.933775   3.463358   0.000000
    26  C    5.713358   7.040671   6.733955   4.998356   2.123332
    27  H    7.431645   8.078312   6.948855   4.711315   2.996651
    28  H    7.017742   7.284176   6.026642   4.061701   2.373526
    29  H    7.814759   7.816205   6.075906   3.669838   4.081262
    30  H    6.556044   6.257772   4.445022   2.164301   3.174985
    31  H    5.801079   5.770420   4.287457   2.066092   3.888250
    32  H    7.922469   7.884735   6.259024   4.171555   5.906582
    33  H    7.173464   7.571931   6.460953   4.571364   5.847057
    34  H    8.708893   9.116824   7.779577   5.613760   6.524446
    35  H    8.665986   9.490879   8.378356   6.034773   5.606068
    36  H    7.285323   8.396903   7.682120   5.569055   4.971362
    37  H    7.400114   8.400650   7.516724   5.253872   3.968650
    38  O    4.925689   6.589585   6.762550   5.437994   2.442912
    39  O    6.858903   8.217074   7.793209   5.869228   3.202629
    40  C    5.661212   7.642401   8.066327   6.795125   3.894515
    41  C    5.009658   7.258751   8.148366   7.291148   4.634152
    42  H    6.556443   8.463225   8.814267   7.485656   4.315241
    43  H    6.115859   8.098315   8.400146   6.946489   4.360941
    44  H    5.887664   8.226185   9.210232   8.349550   5.685388
    45  H    4.253358   6.593776   7.591218   6.850820   4.656264
    46  H    4.788113   6.957748   7.974812   7.339143   4.558852
                   26         27         28         29         30
    26  C    0.000000
    27  H    2.560927   0.000000
    28  H    3.167634   1.759785   0.000000
    29  H    4.477117   2.433259   2.713702   0.000000
    30  H    4.376868   3.070282   2.414677   1.762129   0.000000
    31  H    4.545443   4.003025   4.174092   2.774741   2.337710
    32  H    6.046504   4.917079   5.571558   3.173497   3.813818
    33  H    5.637988   5.225591   6.103363   4.208217   4.663285
    34  H    6.044978   5.017281   6.169367   3.918473   5.005922
    35  H    4.540433   3.479923   5.065841   3.573342   4.910462
    36  H    3.775514   3.780690   5.222065   4.216614   5.010953
    37  H    2.715649   2.102951   3.721531   3.241149   4.145936
    38  O    1.335603   3.865486   4.168179   5.647146   5.267492
    39  O    1.216559   2.395701   3.532384   4.583596   4.923557
    40  C    2.374673   4.859034   5.433130   6.803871   6.622417
    41  C    3.621824   6.179978   6.546237   7.934692   7.518174
    42  H    2.741479   4.987340   5.540049   7.163320   7.072809
    43  H    2.537139   4.799030   5.693774   6.661623   6.709188
    44  H    4.476285   6.993153   7.487093   8.837824   8.532439
    45  H    3.841068   6.348292   6.723300   7.827196   7.338749
    46  H    3.957980   6.473362   6.556914   8.229544   7.627717
                   31         32         33         34         35
    31  H    0.000000
    32  H    2.321725   0.000000
    33  H    2.585214   1.753116   0.000000
    34  H    3.574058   1.821771   1.801937   0.000000
    35  H    4.199808   3.541586   3.367840   2.371903   0.000000
    36  H    3.786944   3.787418   2.861064   2.860651   1.758792
    37  H    3.827345   4.238137   3.963857   3.705438   1.839713
    38  O    5.254161   6.965425   6.350682   7.014561   5.658996
    39  O    5.100222   6.192902   5.801804   5.876007   3.993324
    40  C    6.409662   7.910140   7.082543   7.677404   6.143442
    41  C    7.120995   8.781169   7.805431   8.653468   7.369257
    42  H    7.145040   8.588631   7.884812   8.301732   6.545058
    43  H    6.233999   7.469700   6.516142   7.021576   5.451908
    44  H    8.067683   9.600045   8.530065   9.315768   7.943076
    45  H    6.646503   8.314091   7.220782   8.244798   7.231692
    46  H    7.468473   9.307727   8.457691   9.349804   8.089791
                   36         37         38         39         40
    36  H    0.000000
    37  H    1.774587   0.000000
    38  O    4.602599   3.893550   0.000000
    39  O    3.485877   2.221529   2.259265   0.000000
    40  C    4.979392   4.491207   1.455239   2.700282   0.000000
    41  C    6.007469   5.785713   2.391331   4.164763   1.513432
    42  H    5.602109   4.859910   2.078955   2.783790   1.098669
    43  H    4.216474   3.973220   2.073750   2.529283   1.096875
    44  H    6.570844   6.445412   3.349483   4.805455   2.143690
    45  H    5.718383   5.768988   2.669964   4.504695   2.160149
    46  H    6.805569   6.408745   2.640192   4.651905   2.165567
                   41         42         43         44         45
    41  C    0.000000
    42  H    2.186423   0.000000
    43  H    2.179011   1.780923   0.000000
    44  H    1.099192   2.512188   2.533341   0.000000
    45  H    1.097887   3.092887   2.501869   1.780191   0.000000
    46  H    1.098753   2.547064   3.090954   1.782885   1.790985
                   46
    46  H    0.000000
 Stoichiometry    C17H22Cl3FeO3(6)
 Framework group  C1[X(C17H22Cl3FeO3)]
 Deg. of freedom   132
 Full point group                 C1      NOp   1
 Largest Abelian subgroup         C1      NOp   1
 Largest concise Abelian subgroup C1      NOp   1
                         Standard orientation:                         
 ---------------------------------------------------------------------
 Center     Atomic      Atomic             Coordinates (Angstroms)
 Number     Number       Type             X           Y           Z
 ---------------------------------------------------------------------
      1          6           0        2.694160   -1.340242   -1.210272
      2          6           0        1.836693   -0.391956   -0.640315
      3          6           0        1.957989    0.946742   -1.037802
      4          6           0        2.893216    1.321005   -2.002256
      5          6           0        3.734652    0.365869   -2.579091
      6          6           0        3.634150   -0.966604   -2.175077
      7          6           0        0.810609   -0.721172    0.449933
      8          6           0        1.495853   -0.519642    1.879830
      9          6           0        1.512372   -1.879353    2.590047
     10          6           0        1.283928   -2.943395    1.507586
     11          6           0        0.406973   -2.252588    0.406425
     12          6           0       -1.003739   -2.543059    0.719420
     13          6           0       -1.734182   -1.945529    1.809293
     14          8           0       -0.316187    0.086094    0.338759
     15         26           0       -1.451011    0.552482   -1.049285
     16         17           0       -3.499858    0.100594   -0.199000
     17          6           0       -1.722717   -3.423700   -0.207065
     18         17           0       -1.228657    2.678125   -1.600563
     19         17           0       -1.060314   -0.932115   -2.679653
     20          1           0        1.308270    1.697246   -0.596264
     21          1           0        2.955139    2.365353   -2.309565
     22          1           0        4.460155    0.656640   -3.339627
     23          1           0        4.281888   -1.724575   -2.617254
     24          1           0        2.644533   -2.390502   -0.926359
     25          1           0        2.509696   -0.146792    1.708491
     26          6           0        0.729714    0.553095    2.630644
     27          1           0        0.720040   -1.905711    3.346555
     28          1           0        2.458314   -2.056316    3.117285
     29          1           0        0.836073   -3.863831    1.906746
     30          1           0        2.223546   -3.233454    1.022077
     31          1           0        0.624800   -2.658968   -0.583807
     32          1           0       -1.084679   -4.229956   -0.592803
     33          1           0       -1.908719   -2.763763   -1.087424
     34          1           0       -2.678226   -3.793981    0.174910
     35          1           0       -2.496935   -2.615499    2.225334
     36          1           0       -2.334503   -1.163732    1.245877
     37          1           0       -1.160827   -1.395015    2.556660
     38          8           0        1.079389    1.770132    2.205929
     39          8           0       -0.115917    0.335571    3.477761
     40          6           0        0.230457    2.874689    2.626629
     41          6           0        0.578095    4.065297    1.759406
     42          1           0        0.413219    3.060041    3.694017
     43          1           0       -0.813795    2.562656    2.502912
     44          1           0       -0.021961    4.930641    2.074584
     45          1           0        0.351670    3.855501    0.705806
     46          1           0        1.641038    4.326095    1.856327
 ---------------------------------------------------------------------
 Rotational constants (GHZ):           0.1826138           0.1726515           0.1717338
 Leave Link  202 at Tue Jun 15 12:07:19 2021, MaxMem=  2147483648 cpu:               0.2 elap:               0.0
 (Enter /SFS/product/gaussian/g16.a03/x86_64/avx/g16/l301.exe)
 Standard basis: Jul-CC-pVDZ (5D, 7F)
 Ernie: Thresh=  0.10000D-02 Tol=  0.10000D-05 Strict=F.
 Ernie:  134 primitive shells out of 958 were deleted.
 There are   766 symmetry adapted cartesian basis functions of A   symmetry.
 There are   710 symmetry adapted basis functions of A   symmetry.
   710 basis functions,  1571 primitive gaussians,   766 cartesian basis functions
   115 alpha electrons      110 beta electrons
       nuclear repulsion energy      3412.9223300077 Hartrees.
 IExCor=  402 DFT=T Ex+Corr=B3LYP ExCW=0 ScaHFX=  0.200000
 ScaDFX=  0.800000  0.720000  1.000000  0.810000 ScalE2=  1.000000  1.000000
 IRadAn=      5 IRanWt=     -1 IRanGd=            0 ICorTp=0 IEmpDi=141
 NAtoms=   46 NActive=   46 NUniq=   46 SFac= 1.00D+00 NAtFMM=   60 NAOKFM=F Big=F
 Integral buffers will be    131072 words long.
 Raffenetti 2 integral format.
 Two-electron integral symmetry is turned on.
 R6Disp:  Grimme-D3(BJ) Dispersion energy=       -0.1246641842 Hartrees.
 Nuclear repulsion after empirical dispersion term =     3412.7976658235 Hartrees.
 Leave Link  301 at Tue Jun 15 12:07:19 2021, MaxMem=  2147483648 cpu:               1.4 elap:               0.1
 (Enter /SFS/product/gaussian/g16.a03/x86_64/avx/g16/l302.exe)
 NPDir=0 NMtPBC=     1 NCelOv=     1 NCel=       1 NClECP=     1 NCelD=      1
         NCelK=      1 NCelE2=     1 NClLst=     1 CellRange=     0.0.
 One-electron integrals computed using PRISM.
 One-electron integral symmetry used in STVInt
 NBasis=   710 RedAO= T EigKep=  1.30D-06  NBF=   710
 NBsUse=   710 1.00D-06 EigRej= -1.00D+00 NBFU=   710
 Precomputing XC quadrature grid using
 IXCGrd= 4 IRadAn=           5 IRanWt=          -1 IRanGd=           0 AccXCQ= 0.00D+00.
 Generated NRdTot=       0 NPtTot=           0 NUsed=           0 NTot=          32
 NSgBfM=   764   764   764   764   764 MxSgAt=    46 MxSgA2=    46.
 Leave Link  302 at Tue Jun 15 12:07:21 2021, MaxMem=  2147483648 cpu:              22.0 elap:               1.4
 (Enter /SFS/product/gaussian/g16.a03/x86_64/avx/g16/l303.exe)
 DipDrv:  MaxL=1.
 Leave Link  303 at Tue Jun 15 12:07:21 2021, MaxMem=  2147483648 cpu:               3.3 elap:               0.3
 (Enter /SFS/product/gaussian/g16.a03/x86_64/avx/g16/l401.exe)
 ExpMin= 1.40D-02 ExpMax= 4.32D+06 ExpMxC= 4.91D+03 IAcc=3 IRadAn=         5 AccDes= 0.00D+00
 Harris functional with IExCor=  402 and IRadAn=       5 diagonalized for initial guess.
 HarFok:  IExCor=  402 AccDes= 0.00D+00 IRadAn=         5 IDoV= 1 UseB2=F ITyADJ=14
 ICtDFT=  3500011 ScaDFX=  1.000000  1.000000  1.000000  1.000000
 FoFCou: FMM=F IPFlag=           0 FMFlag=      100000 FMFlg1=           0
         NFxFlg=           0 DoJE=T BraDBF=F KetDBF=T FulRan=T
         wScrn=  0.000000 ICntrl=       500 IOpCl=  0 I1Cent=   200000004 NGrid=           0
         NMat0=    1 NMatS0=      1 NMatT0=    0 NMatD0=    1 NMtDS0=    0 NMtDT0=    0
 Petite list used in FoFCou.
 Harris En= -3531.20401410349    
 JPrj=0 DoOrth=F DoCkMO=F.
 Initial guess <Sx>= 0.0000 <Sy>= 0.0000 <Sz>= 2.5000 <S**2>= 8.7500 S= 2.5000
 Leave Link  401 at Tue Jun 15 12:07:30 2021, MaxMem=  2147483648 cpu:             131.3 elap:               8.3
 (Enter /SFS/product/gaussian/g16.a03/x86_64/avx/g16/l502.exe)
 Integral symmetry usage will be decided dynamically.
 UHF open shell SCF:
 Using DIIS extrapolation, IDIIS=  1040.
 NGot=  2147483648 LenX=  2146290678 LenY=  2145703156
 Requested convergence on RMS density matrix=1.00D-08 within 128 cycles.
 Requested convergence on MAX density matrix=1.00D-06.
 Requested convergence on             energy=1.00D-06.
 No special actions if energy rises.
 Fock matrices will be formed incrementally for  20 cycles.

 Cycle   1  Pass 1  IDiag  1:
 FoFJK:  IHMeth= 1 ICntrl=       0 DoSepK=F KAlg= 0 I1Cent=           0 FoldK=F
 IRaf= 930000000 NMat=       1 IRICut=       1 DoRegI=T DoRafI=F ISym2E= 0 IDoP0=0 IntGTp=1.
 FoFCou: FMM=F IPFlag=           0 FMFlag=      100000 FMFlg1=           0
         NFxFlg=           0 DoJE=F BraDBF=F KetDBF=F FulRan=T
         wScrn=  0.000000 ICntrl=         0 IOpCl=  1 I1Cent=           0 NGrid=           0
         NMat0=    1 NMatS0=      1 NMatT0=    0 NMatD0=    1 NMtDS0=    0 NMtDT0=    0
 Symmetry not used in FoFCou.
 E= -3530.43645689128    
 DIIS: error= 1.80D-02 at cycle   1 NSaved=   1.
 NSaved= 1 IEnMin= 1 EnMin= -3530.43645689128     IErMin= 1 ErrMin= 1.80D-02
 ErrMax= 1.80D-02  0.00D+00 EMaxC= 1.00D-01 BMatC= 4.87D+00 BMatP= 4.87D+00
 IDIUse=3 WtCom= 8.20D-01 WtEn= 1.80D-01
 Coeff-Com:  0.100D+01
 Coeff-En:   0.100D+01
 Coeff:      0.100D+01
 Gap=     0.046 Goal=   None    Shift=    0.000
 Gap=    -0.084 Goal=   None    Shift=    0.000
 GapD=   -0.084 DampG=0.250 DampE=0.250 DampFc=0.1250 IDamp=-1.
 Damping current iteration by 1.25D-01
 RMSDP=3.66D-02 MaxDP=1.03D+01              OVMax= 8.26D-01

 Cycle   2  Pass 1  IDiag  1:
 RMSU=  2.22D-03    CP:  9.53D-01
 E= -3530.78642676172     Delta-E=       -0.349969870439 Rises=F Damp=T
 DIIS: error= 8.30D-03 at cycle   2 NSaved=   2.
 NSaved= 2 IEnMin= 2 EnMin= -3530.78642676172     IErMin= 2 ErrMin= 8.30D-03
 ErrMax= 8.30D-03  0.00D+00 EMaxC= 1.00D-01 BMatC= 1.26D+00 BMatP= 4.87D+00
 IDIUse=3 WtCom= 9.17D-01 WtEn= 8.30D-02
 Coeff-Com: -0.457D+00 0.146D+01
 Coeff-En:   0.000D+00 0.100D+01
 Coeff:     -0.419D+00 0.142D+01
 Gap=     0.415 Goal=   None    Shift=    0.000
 Gap=    -0.005 Goal=   None    Shift=    0.000
 RMSDP=3.27D-02 MaxDP=1.10D+01 DE=-3.50D-01 OVMax= 9.53D-01

 Cycle   3  Pass 1  IDiag  1:
 RMSU=  8.58D-03    CP:  5.87D-01  3.00D+00
 E= -3530.38990874297     Delta-E=        0.396518018752 Rises=F Damp=F
 DIIS: error= 2.86D-02 at cycle   3 NSaved=   3.
 NSaved= 3 IEnMin= 2 EnMin= -3530.78642676172     IErMin= 2 ErrMin= 8.30D-03
 ErrMax= 2.86D-02  0.00D+00 EMaxC= 1.00D-01 BMatC= 5.04D+00 BMatP= 1.26D+00
 IDIUse=2 WtCom= 0.00D+00 WtEn= 1.00D+00
 Coeff-En:   0.000D+00 0.685D+00 0.315D+00
 Coeff:      0.000D+00 0.685D+00 0.315D+00
 Gap=    -0.340 Goal=   None    Shift=    0.000
 Gap=     0.262 Goal=   None    Shift=    0.000
 RMSDP=8.62D-03 MaxDP=1.08D+00 DE= 3.97D-01 OVMax= 8.39D-01

 Cycle   4  Pass 1  IDiag  1:
 RMSU=  6.32D-03    CP:  5.92D-01  3.00D+00  3.18D-01
 E= -3521.52148366138     Delta-E=        8.868425081586 Rises=F Damp=F
 DIIS: error= 1.02D-01 at cycle   4 NSaved=   4.
 NSaved= 4 IEnMin= 2 EnMin= -3530.78642676172     IErMin= 2 ErrMin= 8.30D-03
 ErrMax= 1.02D-01  0.00D+00 EMaxC= 1.00D-01 BMatC= 4.99D+01 BMatP= 1.26D+00
 IDIUse=2 WtCom= 0.00D+00 WtEn= 1.00D+00
 EnCoef did   100 forward-backward iterations
 Coeff-En:   0.303D+00 0.385D-01 0.486D+00 0.172D+00
 Coeff:      0.303D+00 0.385D-01 0.486D+00 0.172D+00
 Gap=     0.164 Goal=   None    Shift=    0.000
 Gap=    -0.010 Goal=   None    Shift=    0.000
 RMSDP=6.91D-03 MaxDP=1.32D+00 DE= 8.87D+00 OVMax= 9.67D-01

 Cycle   5  Pass 1  IDiag  1:
 RMSU=  4.33D-03    CP:  6.18D-01  2.71D+00  5.96D-01  4.19D-01
 E= -3530.09304391342     Delta-E=       -8.571560252039 Rises=F Damp=F
 DIIS: error= 5.69D-02 at cycle   5 NSaved=   5.
 NSaved= 5 IEnMin= 2 EnMin= -3530.78642676172     IErMin= 2 ErrMin= 8.30D-03
 ErrMax= 5.69D-02  0.00D+00 EMaxC= 1.00D-01 BMatC= 9.56D+00 BMatP= 1.26D+00
 IDIUse=2 WtCom= 0.00D+00 WtEn= 1.00D+00
 Coeff-En:   0.000D+00 0.000D+00 0.537D+00 0.000D+00 0.463D+00
 Coeff:      0.000D+00 0.000D+00 0.537D+00 0.000D+00 0.463D+00
 Gap=     0.110 Goal=   None    Shift=    0.000
 Gap=     0.129 Goal=   None    Shift=    0.000
 RMSDP=4.40D-03 MaxDP=6.11D-01 DE=-8.57D+00 OVMax= 4.00D-01

 Cycle   6  Pass 1  IDiag  1:
 RMSU=  3.41D-03    CP:  6.36D-01  2.33D+00  5.78D-01  2.50D-01  5.77D-01
 E= -3531.40439031433     Delta-E=       -1.311346400908 Rises=F Damp=F
 DIIS: error= 6.49D-03 at cycle   6 NSaved=   6.
 NSaved= 6 IEnMin= 6 EnMin= -3531.40439031433     IErMin= 6 ErrMin= 6.49D-03
 ErrMax= 6.49D-03  0.00D+00 EMaxC= 1.00D-01 BMatC= 5.23D-01 BMatP= 1.26D+00
 IDIUse=3 WtCom= 9.35D-01 WtEn= 6.49D-02
 Coeff-Com: -0.443D+00 0.771D+00 0.268D+00-0.230D-02 0.602D-01 0.346D+00
 Coeff-En:   0.000D+00 0.000D+00 0.000D+00 0.000D+00 0.673D-01 0.933D+00
 Coeff:     -0.414D+00 0.721D+00 0.250D+00-0.215D-02 0.607D-01 0.384D+00
 Gap=     0.080 Goal=   None    Shift=    0.000
 Gap=     0.124 Goal=   None    Shift=    0.000
 RMSDP=4.15D-03 MaxDP=7.13D-01 DE=-1.31D+00 OVMax= 1.67D-01

 Cycle   7  Pass 1  IDiag  1:
 RMSU=  1.72D-03    CP:  6.09D-01  2.52D+00  7.14D-01  3.19D-01  7.18D-01
                    CP:  2.34D-01
 E= -3531.43850905042     Delta-E=       -0.034118736095 Rises=F Damp=F
 DIIS: error= 8.40D-03 at cycle   7 NSaved=   7.
 NSaved= 7 IEnMin= 7 EnMin= -3531.43850905042     IErMin= 6 ErrMin= 6.49D-03
 ErrMax= 8.40D-03  0.00D+00 EMaxC= 1.00D-01 BMatC= 3.90D-01 BMatP= 5.23D-01
 IDIUse=3 WtCom= 9.35D-01 WtEn= 6.49D-02
 Coeff-Com: -0.198D+00 0.284D+00 0.953D-01 0.729D-02-0.896D-01 0.311D+00
 Coeff-Com:  0.590D+00
 Coeff-En:   0.000D+00 0.000D+00 0.000D+00 0.000D+00 0.000D+00 0.424D+00
 Coeff-En:   0.576D+00
 Coeff:     -0.185D+00 0.266D+00 0.891D-01 0.681D-02-0.838D-01 0.318D+00
 Coeff:      0.589D+00
 Gap=     0.086 Goal=   None    Shift=    0.000
 Gap=     0.160 Goal=   None    Shift=    0.000
 RMSDP=1.50D-03 MaxDP=2.24D-01 DE=-3.41D-02 OVMax= 1.16D-01

 Cycle   8  Pass 1  IDiag  1:
 RMSU=  8.64D-04    CP:  6.16D-01  2.46D+00  7.06D-01  2.72D-01  6.38D-01
                    CP:  5.08D-01  8.82D-01
 E= -3531.52167634541     Delta-E=       -0.083167294990 Rises=F Damp=F
 DIIS: error= 1.95D-03 at cycle   8 NSaved=   8.
 NSaved= 8 IEnMin= 8 EnMin= -3531.52167634541     IErMin= 8 ErrMin= 1.95D-03
 ErrMax= 1.95D-03  0.00D+00 EMaxC= 1.00D-01 BMatC= 3.11D-02 BMatP= 3.90D-01
 IDIUse=3 WtCom= 9.80D-01 WtEn= 1.95D-02
 Coeff-Com: -0.101D+00 0.138D+00 0.343D-01 0.683D-02-0.538D-01 0.158D+00
 Coeff-Com:  0.360D+00 0.458D+00
 Coeff-En:   0.000D+00 0.000D+00 0.000D+00 0.000D+00 0.000D+00 0.000D+00
 Coeff-En:   0.321D-02 0.997D+00
 Coeff:     -0.989D-01 0.135D+00 0.337D-01 0.669D-02-0.527D-01 0.155D+00
 Coeff:      0.353D+00 0.468D+00
 Gap=     0.096 Goal=   None    Shift=    0.000
 Gap=     0.108 Goal=   None    Shift=    0.000
 RMSDP=4.14D-04 MaxDP=3.22D-02 DE=-8.32D-02 OVMax= 1.99D-02

 Cycle   9  Pass 1  IDiag  1:
 RMSU=  3.65D-04    CP:  6.15D-01  2.48D+00  7.00D-01  2.70D-01  6.32D-01
                    CP:  5.35D-01  9.49D-01  9.07D-01
 E= -3531.52701069390     Delta-E=       -0.005334348486 Rises=F Damp=F
 DIIS: error= 1.32D-03 at cycle   9 NSaved=   9.
 NSaved= 9 IEnMin= 9 EnMin= -3531.52701069390     IErMin= 9 ErrMin= 1.32D-03
 ErrMax= 1.32D-03  0.00D+00 EMaxC= 1.00D-01 BMatC= 9.17D-03 BMatP= 3.11D-02
 IDIUse=3 WtCom= 9.87D-01 WtEn= 1.32D-02
 Coeff-Com: -0.211D-01 0.270D-01-0.121D-01 0.249D-02 0.792D-02-0.301D-01
 Coeff-Com: -0.112D-01 0.204D+00 0.833D+00
 Coeff-En:   0.000D+00 0.000D+00 0.000D+00 0.000D+00 0.000D+00 0.000D+00
 Coeff-En:   0.000D+00 0.000D+00 0.100D+01
 Coeff:     -0.208D-01 0.267D-01-0.119D-01 0.246D-02 0.782D-02-0.297D-01
 Coeff:     -0.111D-01 0.201D+00 0.835D+00
 Gap=     0.103 Goal=   None    Shift=    0.000
 Gap=     0.105 Goal=   None    Shift=    0.000
 RMSDP=2.88D-04 MaxDP=3.63D-02 DE=-5.33D-03 OVMax= 1.37D-02

 Cycle  10  Pass 1  IDiag  1:
 RMSU=  2.47D-04    CP:  6.16D-01  2.49D+00  6.99D-01  2.72D-01  6.35D-01
                    CP:  5.33D-01  9.89D-01  1.03D+00  1.17D+00
 E= -3531.52840849481     Delta-E=       -0.001397800915 Rises=F Damp=F
 DIIS: error= 7.07D-04 at cycle  10 NSaved=  10.
 NSaved=10 IEnMin=10 EnMin= -3531.52840849481     IErMin=10 ErrMin= 7.07D-04
 ErrMax= 7.07D-04  0.00D+00 EMaxC= 1.00D-01 BMatC= 3.13D-03 BMatP= 9.17D-03
 IDIUse=3 WtCom= 9.93D-01 WtEn= 7.07D-03
 Coeff-Com:  0.153D-02-0.364D-02-0.134D-01 0.874D-03 0.138D-01-0.386D-01
 Coeff-Com: -0.431D-01-0.515D-02 0.451D+00 0.636D+00
 Coeff-En:   0.000D+00 0.000D+00 0.000D+00 0.000D+00 0.000D+00 0.000D+00
 Coeff-En:   0.000D+00 0.000D+00 0.000D+00 0.100D+01
 Coeff:      0.152D-02-0.361D-02-0.133D-01 0.868D-03 0.137D-01-0.383D-01
 Coeff:     -0.428D-01-0.512D-02 0.448D+00 0.639D+00
 Gap=     0.105 Goal=   None    Shift=    0.000
 Gap=     0.105 Goal=   None    Shift=    0.000
 RMSDP=1.65D-04 MaxDP=2.97D-02 DE=-1.40D-03 OVMax= 6.75D-03

 Cycle  11  Pass 1  IDiag  1:
 RMSU=  1.20D-04    CP:  6.17D-01  2.49D+00  6.95D-01  2.71D-01  6.36D-01
                    CP:  5.40D-01  9.80D-01  1.10D+00  1.27D+00  9.52D-01
 E= -3531.52878048313     Delta-E=       -0.000371988320 Rises=F Damp=F
 DIIS: error= 2.45D-04 at cycle  11 NSaved=  11.
 NSaved=11 IEnMin=11 EnMin= -3531.52878048313     IErMin=11 ErrMin= 2.45D-04
 ErrMax= 2.45D-04  0.00D+00 EMaxC= 1.00D-01 BMatC= 9.02D-04 BMatP= 3.13D-03
 IDIUse=3 WtCom= 9.98D-01 WtEn= 2.45D-03
 Coeff-Com:  0.316D-02-0.391D-02-0.376D-02 0.190D-03 0.132D-02-0.441D-02
 Coeff-Com:  0.173D-01-0.586D-01-0.225D-01 0.440D+00 0.631D+00
 Coeff-En:   0.000D+00 0.000D+00 0.000D+00 0.000D+00 0.000D+00 0.000D+00
 Coeff-En:   0.000D+00 0.000D+00 0.000D+00 0.156D+00 0.844D+00
 Coeff:      0.316D-02-0.390D-02-0.375D-02 0.190D-03 0.132D-02-0.440D-02
 Coeff:      0.173D-01-0.585D-01-0.225D-01 0.440D+00 0.631D+00
 Gap=     0.105 Goal=   None    Shift=    0.000
 Gap=     0.104 Goal=   None    Shift=    0.000
 RMSDP=1.18D-04 MaxDP=2.63D-02 DE=-3.72D-04 OVMax= 4.42D-03

 Cycle  12  Pass 1  IDiag  1:
 RMSU=  7.16D-05    CP:  6.16D-01  2.49D+00  6.94D-01  2.75D-01  6.39D-01
                    CP:  5.31D-01  9.92D-01  1.07D+00  1.30D+00  1.03D+00
                    CP:  7.66D-01
 E= -3531.52897679227     Delta-E=       -0.000196309134 Rises=F Damp=F
 DIIS: error= 1.04D-04 at cycle  12 NSaved=  12.
 NSaved=12 IEnMin=12 EnMin= -3531.52897679227     IErMin=12 ErrMin= 1.04D-04
 ErrMax= 1.04D-04  0.00D+00 EMaxC= 1.00D-01 BMatC= 1.25D-04 BMatP= 9.02D-04
 IDIUse=3 WtCom= 9.99D-01 WtEn= 1.04D-03
 Coeff-Com:  0.131D-02-0.124D-02-0.894D-03 0.680D-04-0.975D-03 0.199D-02
 Coeff-Com:  0.186D-01-0.360D-01-0.690D-01 0.202D+00 0.404D+00 0.480D+00
 Coeff-En:   0.000D+00 0.000D+00 0.000D+00 0.000D+00 0.000D+00 0.000D+00
 Coeff-En:   0.000D+00 0.000D+00 0.000D+00 0.000D+00 0.000D+00 0.100D+01
 Coeff:      0.131D-02-0.124D-02-0.894D-03 0.679D-04-0.974D-03 0.199D-02
 Coeff:      0.186D-01-0.359D-01-0.689D-01 0.202D+00 0.403D+00 0.481D+00
 Gap=     0.104 Goal=   None    Shift=    0.000
 Gap=     0.104 Goal=   None    Shift=    0.000
 RMSDP=3.61D-05 MaxDP=8.66D-03 DE=-1.96D-04 OVMax= 1.61D-03

 Cycle  13  Pass 1  IDiag  1:
 RMSU=  2.36D-05    CP:  6.16D-01  2.49D+00  6.94D-01  2.75D-01  6.40D-01
                    CP:  5.32D-01  9.93D-01  1.06D+00  1.30D+00  1.08D+00
                    CP:  7.92D-01  7.55D-01
 E= -3531.52900772389     Delta-E=       -0.000030931626 Rises=F Damp=F
 DIIS: error= 2.25D-05 at cycle  13 NSaved=  13.
 NSaved=13 IEnMin=13 EnMin= -3531.52900772389     IErMin=13 ErrMin= 2.25D-05
 ErrMax= 2.25D-05  0.00D+00 EMaxC= 1.00D-01 BMatC= 6.84D-06 BMatP= 1.25D-04
 IDIUse=1 WtCom= 1.00D+00 WtEn= 0.00D+00
 Coeff-Com:  0.251D-03-0.273D-03 0.137D-03 0.442D-05-0.632D-03 0.201D-02
 Coeff-Com:  0.648D-02-0.568D-02-0.217D-01 0.298D-01 0.761D-01 0.203D+00
 Coeff-Com:  0.711D+00
 Coeff:      0.251D-03-0.273D-03 0.137D-03 0.442D-05-0.632D-03 0.201D-02
 Coeff:      0.648D-02-0.568D-02-0.217D-01 0.298D-01 0.761D-01 0.203D+00
 Coeff:      0.711D+00
 Gap=     0.105 Goal=   None    Shift=    0.000
 Gap=     0.104 Goal=   None    Shift=    0.000
 RMSDP=1.16D-05 MaxDP=1.53D-03 DE=-3.09D-05 OVMax= 6.68D-04

 Cycle  14  Pass 1  IDiag  1:
 RMSU=  9.83D-06    CP:  6.16D-01  2.49D+00  6.94D-01  2.75D-01  6.40D-01
                    CP:  5.31D-01  9.92D-01  1.07D+00  1.30D+00  1.09D+00
                    CP:  8.14D-01  8.03D-01  9.05D-01
 E= -3531.52900966731     Delta-E=       -0.000001943415 Rises=F Damp=F
 DIIS: error= 1.29D-05 at cycle  14 NSaved=  14.
 NSaved=14 IEnMin=14 EnMin= -3531.52900966731     IErMin=14 ErrMin= 1.29D-05
 ErrMax= 1.29D-05  0.00D+00 EMaxC= 1.00D-01 BMatC= 2.21D-06 BMatP= 6.84D-06
 IDIUse=1 WtCom= 1.00D+00 WtEn= 0.00D+00
 Coeff-Com:  0.270D-03-0.402D-03 0.485D-04-0.302D-04 0.168D-03-0.486D-03
 Coeff-Com: -0.328D-02 0.540D-02 0.983D-02-0.300D-01-0.650D-01-0.106D-01
 Coeff-Com:  0.366D+00 0.728D+00
 Coeff:      0.270D-03-0.402D-03 0.485D-04-0.302D-04 0.168D-03-0.486D-03
 Coeff:     -0.328D-02 0.540D-02 0.983D-02-0.300D-01-0.650D-01-0.106D-01
 Coeff:      0.366D+00 0.728D+00
 Gap=     0.105 Goal=   None    Shift=    0.000
 Gap=     0.104 Goal=   None    Shift=    0.000
 RMSDP=7.36D-06 MaxDP=6.65D-04 DE=-1.94D-06 OVMax= 3.78D-04

 Cycle  15  Pass 1  IDiag  1:
 RMSU=  4.70D-06    CP:  6.16D-01  2.49D+00  6.94D-01  2.75D-01  6.40D-01
                    CP:  5.31D-01  9.93D-01  1.07D+00  1.31D+00  1.09D+00
                    CP:  8.13D-01  8.26D-01  1.07D+00  1.03D+00
 E= -3531.52901054268     Delta-E=       -0.000000875368 Rises=F Damp=F
 DIIS: error= 8.06D-06 at cycle  15 NSaved=  15.
 NSaved=15 IEnMin=15 EnMin= -3531.52901054268     IErMin=15 ErrMin= 8.06D-06
 ErrMax= 8.06D-06  0.00D+00 EMaxC= 1.00D-01 BMatC= 5.28D-07 BMatP= 2.21D-06
 IDIUse=1 WtCom= 1.00D+00 WtEn= 0.00D+00
 Coeff-Com: -0.898D-05 0.802D-04 0.639D-04-0.166D-04 0.131D-03-0.588D-03
 Coeff-Com: -0.239D-02 0.368D-02 0.893D-02-0.160D-01-0.408D-01-0.409D-01
 Coeff-Com: -0.158D-01 0.298D+00 0.805D+00
 Coeff:     -0.898D-05 0.802D-04 0.639D-04-0.166D-04 0.131D-03-0.588D-03
 Coeff:     -0.239D-02 0.368D-02 0.893D-02-0.160D-01-0.408D-01-0.409D-01
 Coeff:     -0.158D-01 0.298D+00 0.805D+00
 Gap=     0.105 Goal=   None    Shift=    0.000
 Gap=     0.104 Goal=   None    Shift=    0.000
 RMSDP=3.87D-06 MaxDP=8.14D-04 DE=-8.75D-07 OVMax= 1.90D-04

 Cycle  16  Pass 1  IDiag  1:
 RMSU=  2.44D-06    CP:  6.16D-01  2.49D+00  6.94D-01  2.75D-01  6.40D-01
                    CP:  5.31D-01  9.93D-01  1.07D+00  1.31D+00  1.09D+00
                    CP:  8.12D-01  8.53D-01  1.12D+00  1.15D+00  1.03D+00
 E= -3531.52901069819     Delta-E=       -0.000000155514 Rises=F Damp=F
 DIIS: error= 3.76D-06 at cycle  16 NSaved=  16.
 NSaved=16 IEnMin=16 EnMin= -3531.52901069819     IErMin=16 ErrMin= 3.76D-06
 ErrMax= 3.76D-06  0.00D+00 EMaxC= 1.00D-01 BMatC= 1.16D-07 BMatP= 5.28D-07
 IDIUse=1 WtCom= 1.00D+00 WtEn= 0.00D+00
 Coeff-Com: -0.899D-05 0.750D-04 0.103D-04-0.579D-05 0.650D-04-0.367D-03
 Coeff-Com: -0.973D-03 0.103D-02 0.369D-02-0.325D-02-0.117D-01-0.221D-01
 Coeff-Com: -0.867D-01 0.293D-01 0.491D+00 0.600D+00
 Coeff:     -0.899D-05 0.750D-04 0.103D-04-0.579D-05 0.650D-04-0.367D-03
 Coeff:     -0.973D-03 0.103D-02 0.369D-02-0.325D-02-0.117D-01-0.221D-01
 Coeff:     -0.867D-01 0.293D-01 0.491D+00 0.600D+00
 Gap=     0.105 Goal=   None    Shift=    0.000
 Gap=     0.104 Goal=   None    Shift=    0.000
 RMSDP=1.66D-06 MaxDP=1.82D-04 DE=-1.56D-07 OVMax= 7.99D-05

 Cycle  17  Pass 1  IDiag  1:
 RMSU=  1.02D-06    CP:  6.16D-01  2.49D+00  6.94D-01  2.75D-01  6.40D-01
                    CP:  5.31D-01  9.93D-01  1.07D+00  1.31D+00  1.09D+00
                    CP:  8.15D-01  8.56D-01  1.13D+00  1.22D+00  1.16D+00
                    CP:  7.93D-01
 E= -3531.52901073513     Delta-E=       -0.000000036943 Rises=F Damp=F
 DIIS: error= 1.42D-06 at cycle  17 NSaved=  17.
 NSaved=17 IEnMin=17 EnMin= -3531.52901073513     IErMin=17 ErrMin= 1.42D-06
 ErrMax= 1.42D-06  0.00D+00 EMaxC= 1.00D-01 BMatC= 1.38D-08 BMatP= 1.16D-07
 IDIUse=1 WtCom= 1.00D+00 WtEn= 0.00D+00
 Coeff-Com:  0.763D-05 0.121D-04-0.736D-05-0.916D-06 0.181D-04-0.113D-03
 Coeff-Com: -0.150D-03-0.144D-03 0.390D-03 0.981D-03 0.799D-03-0.393D-02
 Coeff-Com: -0.391D-01-0.363D-01 0.121D+00 0.323D+00 0.634D+00
 Coeff:      0.763D-05 0.121D-04-0.736D-05-0.916D-06 0.181D-04-0.113D-03
 Coeff:     -0.150D-03-0.144D-03 0.390D-03 0.981D-03 0.799D-03-0.393D-02
 Coeff:     -0.391D-01-0.363D-01 0.121D+00 0.323D+00 0.634D+00
 Gap=     0.105 Goal=   None    Shift=    0.000
 Gap=     0.104 Goal=   None    Shift=    0.000
 RMSDP=5.91D-07 MaxDP=5.74D-05 DE=-3.69D-08 OVMax= 3.06D-05

 Cycle  18  Pass 1  IDiag  1:
 RMSU=  3.86D-07    CP:  6.16D-01  2.49D+00  6.94D-01  2.75D-01  6.40D-01
                    CP:  5.31D-01  9.93D-01  1.07D+00  1.31D+00  1.09D+00
                    CP:  8.15D-01  8.56D-01  1.14D+00  1.24D+00  1.19D+00
                    CP:  8.63D-01  7.77D-01
 E= -3531.52901073949     Delta-E=       -0.000000004360 Rises=F Damp=F
 DIIS: error= 5.18D-07 at cycle  18 NSaved=  18.
 NSaved=18 IEnMin=18 EnMin= -3531.52901073949     IErMin=18 ErrMin= 5.18D-07
 ErrMax= 5.18D-07  0.00D+00 EMaxC= 1.00D-01 BMatC= 2.11D-09 BMatP= 1.38D-08
 IDIUse=1 WtCom= 1.00D+00 WtEn= 0.00D+00
 Coeff-Com:  0.811D-06 0.261D-05-0.963D-06 0.529D-06-0.148D-05-0.285D-06
 Coeff-Com:  0.698D-04-0.238D-03-0.350D-03 0.962D-03 0.220D-02 0.766D-03
 Coeff-Com: -0.989D-02-0.245D-01 0.393D-02 0.100D+00 0.331D+00 0.596D+00
 Coeff:      0.811D-06 0.261D-05-0.963D-06 0.529D-06-0.148D-05-0.285D-06
 Coeff:      0.698D-04-0.238D-03-0.350D-03 0.962D-03 0.220D-02 0.766D-03
 Coeff:     -0.989D-02-0.245D-01 0.393D-02 0.100D+00 0.331D+00 0.596D+00
 Gap=     0.105 Goal=   None    Shift=    0.000
 Gap=     0.104 Goal=   None    Shift=    0.000
 RMSDP=2.12D-07 MaxDP=1.96D-05 DE=-4.36D-09 OVMax= 9.89D-06

 Cycle  19  Pass 1  IDiag  1:
 RMSU=  1.57D-07    CP:  6.16D-01  2.49D+00  6.94D-01  2.75D-01  6.40D-01
                    CP:  5.31D-01  9.93D-01  1.07D+00  1.31D+00  1.09D+00
                    CP:  8.15D-01  8.56D-01  1.14D+00  1.24D+00  1.20D+00
                    CP:  8.81D-01  8.54D-01  8.96D-01
 E= -3531.52901074012     Delta-E=       -0.000000000624 Rises=F Damp=F
 DIIS: error= 2.38D-07 at cycle  19 NSaved=  19.
 NSaved=19 IEnMin=19 EnMin= -3531.52901074012     IErMin=19 ErrMin= 2.38D-07
 ErrMax= 2.38D-07  0.00D+00 EMaxC= 1.00D-01 BMatC= 5.81D-10 BMatP= 2.11D-09
 IDIUse=1 WtCom= 1.00D+00 WtEn= 0.00D+00
 Coeff-Com: -0.263D-05 0.691D-06 0.500D-06 0.265D-06-0.149D-05 0.136D-04
 Coeff-Com:  0.368D-04-0.824D-04-0.227D-03 0.114D-03 0.717D-03 0.847D-03
 Coeff-Com:  0.409D-02-0.259D-02-0.207D-01-0.148D-01 0.213D-01 0.266D+00
 Coeff-Com:  0.745D+00
 Coeff:     -0.263D-05 0.691D-06 0.500D-06 0.265D-06-0.149D-05 0.136D-04
 Coeff:      0.368D-04-0.824D-04-0.227D-03 0.114D-03 0.717D-03 0.847D-03
 Coeff:      0.409D-02-0.259D-02-0.207D-01-0.148D-01 0.213D-01 0.266D+00
 Coeff:      0.745D+00
 Gap=     0.105 Goal=   None    Shift=    0.000
 Gap=     0.104 Goal=   None    Shift=    0.000
 RMSDP=1.11D-07 MaxDP=1.93D-05 DE=-6.24D-10 OVMax= 5.75D-06

 Cycle  20  Pass 1  IDiag  1:
 RMSU=  8.27D-08    CP:  6.16D-01  2.49D+00  6.94D-01  2.75D-01  6.40D-01
[...]
 019,0.00000050,-0.00000144,-0.00000098,0.00000185,-0.00000413,-0.00000
 093,0.00000387,0.00017049,0.00000580,0.00006786,-0.00296338,0.00584111
 ,-0.00372608,0.00002045,-0.00002815,0.00003549,0.00000441,-0.00000802,
 -0.00000608,0.00000978,-0.00001874,-0.00001475,0.00000395,0.00000074,-
 0.00001019,0.00000185,-0.00000795,-0.00000332,0.00000052,0.00000109,0.
 00000363,0.00000105,-0.00001512,0.00001115,0.00000270,-0.00000304,-0.0
 0000038,-0.00000328,-0.00000436,0.00000036,-0.00002237,-0.00005529,0.0
 0003604,-0.00002968,0.00000381,0.00002279,-0.02322531,-0.01017023,-0.0
 0121348,0.00269326,0.00029002,0.00189464,-0.28528499,0.07452781,0.0340
 0590,-0.00288826,0.00236125,0.00066484,-0.00365395,0.00294186,0.000800
 00,0.31306877,0.00001188,0.00002130,-0.00001250,0.00009186,-0.00000229
 ,0.00000413,0.00000065,0.00002931,-0.00004568,0.00001356,-0.00003122,0
 .00002989,-0.00002417,-0.00000265,-0.00001380,-0.00000735,0.00001129,0
 .00000370,-0.00037034,-0.00033887,0.00022163,0.00073578,-0.00012695,-0
 .00101761,0.00006693,0.00005180,-0.00001948,0.00001200,0.00000839,0.00
 004003,0.00010048,-0.00004978,-0.00011510,-0.00012689,-0.00004611,-0.0
 0007149,0.00006692,0.00004356,0.00001858,0.00019107,0.00025912,0.00028
 759,0.00002416,0.00011445,-0.00014170,-0.00002686,0.00000067,0.0000479
 7,0.00001775,0.00001250,-0.00000482,-0.00004915,-0.00007300,-0.0000433
 3,0.00000175,0.00000028,0.00000613,-0.00000760,-0.00004708,0.00003396,
 -0.00000043,0.00000538,-0.00002081,-0.00000144,-0.00000145,-0.00000442
 ,-0.00000271,0.00000071,-0.00000195,0.00000334,0.00000039,0.00000279,0
 .00020278,0.00002883,0.00014608,-0.00632238,0.00421161,-0.00246112,0.0
 0000445,-0.00005747,0.00000354,-0.00000683,-0.00001253,0.00000003,0.00
 000440,-0.00001873,-0.00000744,0.00000100,0.00000354,-0.00000723,0.000
 01930,-0.00004834,-0.00000473,0.00000026,0.00000577,0.00000672,0.00000
 321,-0.00000280,0.00000140,0.00000601,-0.00000155,-0.00000214,-0.00000
 829,-0.00000670,0.00000532,0.00000691,-0.00005719,-0.00001397,-0.00003
 523,-0.00003495,0.00000405,-0.03390219,-0.00636255,0.00205196,0.001676
 49,-0.00092127,0.00160435,0.08470245,-0.07156763,-0.01320014,0.0244742
 3,-0.00631436,-0.00340524,0.00526686,0.00000672,0.00059424,-0.07633571
 ,0.08351959,0.00001308,-0.00001041,-0.00000749,0.00007507,0.00004218,-
 0.00002121,0.00001478,-0.00000079,-0.00004023,0.00001752,0.00000851,0.
 00000066,0.00000380,0.00000259,-0.00000015,0.00000011,0.00000633,0.000
 01129,-0.00047734,-0.00023620,0.00026155,-0.00007263,-0.00014697,-0.00
 045048,0.00005945,0.00002747,-0.00003814,-0.00002964,0.00001557,0.0000
 3155,0.00008585,0.00004136,-0.00007074,-0.00001051,-0.00001165,0.00002
 857,0.00001724,0.00001593,-0.00002041,0.00039051,0.00051657,0.00004944
 ,0.00004198,-0.00053730,-0.00025624,-0.00011503,0.00015102,-0.00003194
 ,0.00000309,-0.00000944,-0.00004203,-0.00000376,0.00018653,0.00025299,
 0.00002551,0.00011722,0.00007063,-0.00006261,-0.00002096,0.00002521,-0
 .00000662,0.00000087,0.00000819,0.00000056,0.00000173,0.00000262,-0.00
 000034,0.00000018,0.00000323,-0.00000208,0.00000576,0.00000384,0.00003
 634,-0.00001795,0.00000048,0.00115950,0.00093267,0.00174416,0.00001961
 ,0.00005405,0.00001001,-0.00000861,0.00000084,-0.00001271,0.00001199,-
 0.00000589,-0.00001033,0.00000541,-0.00000850,-0.00001983,-0.00000093,
 -0.00001430,-0.00000597,0.00000294,-0.00000453,0.00000107,0.00000282,-
 0.00003416,0.00002416,-0.00000188,-0.00000140,0.00000225,0.00000573,0.
 00000156,-0.00000595,-0.00004023,-0.00008154,0.00007850,-0.00003635,0.
 00007264,0.00006556,-0.01533057,-0.00096954,0.00098139,-0.00071176,-0.
 00083398,-0.00043567,0.03755021,-0.01165025,-0.05704776,-0.01853541,0.
 00633134,0.00260800,0.02932307,-0.00874225,-0.00327562,-0.03215842,0.0
 1250399,0.05551797,-0.00000761,-0.00001022,0.00000164,-0.00001336,0.00
 001328,-0.00001761,0.00006245,0.00000553,-0.00000551,0.00001018,0.0000
 0589,-0.00000332,0.00001905,0.00000544,0.00001267,-0.00000110,-0.00001
 201,0.00000267,0.00000964,0.00005441,-0.00001734,-0.00011700,0.0001408
 0,0.00003092,0.00001753,0.00002794,0.00003182,-0.00000378,0.00001389,-
 0.00000126,0.00000809,-0.00000731,0.00000354,-0.00001102,0.00000646,0.
 00000945,-0.00000518,-0.00000464,-0.00000232,-0.00000030,-0.00000934,0
 .00000997,-0.00000845,0.00005766,-0.00000153,0.00001089,-0.00002002,0.
 00000086,0.00000102,0.00000007,-0.00000667,-0.00001290,-0.00005375,-0.
 00002681,0.00000367,-0.00002056,-0.00001429,-0.00009244,0.00000734,0.0
 0002104,0.00000036,-0.00000652,0.00002262,-0.00000411,-0.00000036,-0.0
 0000179,-0.00000156,-0.00000409,-0.00000027,-0.00000330,-0.00000528,-0
 .00000027,-0.00000298,0.00000341,-0.00001762,0.00075827,0.00046822,0.0
 0016266,0.00000270,0.00000080,0.00000168,-0.00000263,0.00000235,-0.000
 00281,0.00000066,0.00000144,0.00000294,0.00000040,0.00000344,-0.000000
 86,-0.00000296,0.00000302,-0.00000030,-0.00000047,0.00000031,0.0000012
 5,0.00000047,0.00000231,-0.00000078,0.00000117,0.00000025,0.00000079,0
 .00000117,-0.00000041,-0.00000068,0.00000302,0.00001160,-0.00000501,-0
 .00000010,0.00000381,-0.00000036,0.00106353,0.00236086,-0.00104649,-0.
 00008956,-0.00016664,0.00004775,0.00249015,0.00573363,0.00268209,-0.12
 567251,-0.11461470,-0.04271435,0.00026876,-0.00025308,0.00027575,0.000
 08830,-0.00045089,0.00037514,0.13284667,0.00000157,0.00000602,-0.00001
 080,0.00004065,-0.00000642,0.00001004,0.00002172,0.00002151,-0.0000155
 0,-0.00001080,-0.00001385,0.00002340,-0.00000583,0.00000425,-0.0000184
 0,-0.00000423,0.00000549,0.00000498,-0.00015692,-0.00001649,0.00017773
 ,0.00025434,-0.00034907,0.00005477,-0.00002532,-0.00002426,-0.00015120
 ,-0.00000906,-0.00002901,0.00007146,0.00007123,-0.00001149,-0.00004737
 ,-0.00008741,0.00000682,-0.00000755,0.00003477,0.00002546,-0.00000244,
 0.00019960,0.00001379,-0.00023644,-0.00020929,-0.00013300,0.00017040,0
 .00007730,0.00003439,0.00000899,0.00001033,-0.00000422,-0.00003687,0.0
 0007344,0.00013096,-0.00002942,0.00001600,0.00000871,-0.00001996,0.000
 01207,0.00000887,0.00006114,0.00000043,0.00000419,-0.00000561,-0.00000
 582,-0.00000192,-0.00000501,-0.00000369,-0.00000279,-0.00000241,0.0000
 0075,-0.00000079,0.00000450,0.00002297,0.00003179,0.00001931,-0.002155
 18,0.00123383,-0.00130278,0.00001691,0.00002373,0.00000691,-0.00001227
 ,-0.00002143,0.00000340,0.00001056,-0.00002668,-0.00001514,0.00000137,
 -0.00000294,-0.00001756,0.00000793,-0.00001968,-0.00000563,0.00000174,
 0.00000038,0.00000630,0.00000018,-0.00001322,0.00001324,0.00000282,-0.
 00000328,0.00000212,0.00000270,-0.00001588,-0.00000657,-0.00004465,-0.
 00003508,0.00003444,-0.00004114,0.00005056,0.00002566,0.00179397,-0.00
 685523,0.00417508,0.00084297,-0.00022927,0.00067993,-0.01533485,-0.016
 54144,-0.01114446,-0.11273752,-0.20911067,-0.05919890,-0.00024917,0.00
 079224,0.00043660,0.00063622,0.00038367,-0.00034784,0.12514370,0.22838
 244,0.00000015,-0.00003849,0.00002564,-0.00008902,-0.00000450,-0.00009
 115,0.00016837,0.00006162,0.00008334,-0.00001956,-0.00006742,-0.000026
 97,0.00000559,0.00001309,0.00000764,-0.00000871,-0.00002783,-0.0000028
 5,0.00006090,0.00008141,-0.00012449,-0.00014905,0.00036445,-0.00010285
 ,0.00003738,0.00004158,0.00011396,-0.00000261,0.00002636,-0.00003636,0
 .00000623,-0.00002064,0.00002486,-0.00001484,-0.00000396,-0.00000747,0
 .00000823,0.00000695,0.00000163,-0.00000287,-0.00007930,0.00006469,-0.
 00012653,0.00009769,0.00001495,0.00003953,-0.00000172,0.00001856,0.000
 00053,0.00000451,0.00000333,0.00019900,0.00001822,-0.00009683,0.000013
 63,-0.00000536,-0.00000266,-0.00003232,0.00015868,0.00008592,0.0000154
 3,0.00000390,0.00002526,-0.00001072,-0.00000616,-0.00000554,-0.0000007
 5,-0.00000605,-0.00000017,-0.00001242,-0.00002038,-0.00000667,-0.00000
 539,-0.00001060,-0.00003264,0.00122835,0.00032102,0.00117522,-0.000006
 63,-0.00001097,-0.00000183,0.00000279,0.00001386,-0.00000279,-0.000004
 73,0.00001413,0.00001474,0.00000212,0.00000597,0.00000327,-0.00000993,
 0.00001079,0.00000296,-0.00000040,0.00000117,-0.00000051,-0.00000146,0
 .00000376,-0.00000537,0.00000046,0.00000005,0.00000030,-0.00000254,0.0
 0000061,0.00000426,-0.00000200,0.00000037,0.00000019,0.00001080,-0.000
 01384,-0.00000597,-0.00077299,0.00572546,-0.00182026,-0.00029071,-0.00
 011262,-0.00034390,0.01156868,0.01244272,0.00512728,-0.04367539,-0.061
 58481,-0.06870429,0.00032493,-0.00081378,0.00026497,-0.00016140,-0.000
 41933,0.00054709,0.04747522,0.06448994,0.07082332,-0.00000232,0.000077
 82,-0.00002989,0.00005515,-0.00002080,0.00013310,-0.00030944,-0.000062
 70,-0.00004444,0.00003354,0.00002443,0.00006808,-0.00002383,-0.0000059
 5,-0.00002138,0.00001139,0.00003705,-0.00001219,0.00032405,0.00004750,
 -0.00003350,-0.00002044,0.00002974,-0.00002641,-0.00001437,0.00000331,
 0.00003179,0.00002507,0.00000450,-0.00004498,-0.00011967,-0.00000382,0
 .00001942,0.00011183,0.00002528,0.00002202,-0.00006153,-0.00006134,0.0
 0000155,-0.00044746,-0.00015352,0.00024293,0.00020242,0.00082909,-0.00
 024053,0.00003963,-0.00009876,0.00005944,-0.00001454,-0.00000276,0.000
 03210,-0.00020823,-0.00057366,0.00005477,-0.00006391,-0.00015221,-0.00
 007706,0.00018081,-0.00029635,-0.00019350,-0.00002975,-0.00000187,-0.0
 0007370,0.00001252,0.00000434,0.00000797,0.00000137,0.00001284,-0.0000
 0231,0.00001814,0.00002908,0.00000418,-0.00002548,-0.00000497,0.000027
 98,0.00020126,-0.00049091,0.00005188,-0.00000366,-0.00000541,-0.000006
 92,0.00000267,0.00000572,0.00000425,-0.00000773,0.00000687,0.00000353,
 -0.00001183,-0.00000616,0.00001510,0.00001333,-0.00000295,-0.00000071,
 -0.00000038,-0.00000046,-0.00000421,-0.00000361,0.00002950,-0.00002044
 ,-0.00000239,0.00000325,0.00000088,0.00000154,0.00000774,-0.00000270,0
 .00005444,0.00006990,-0.00006804,0.00002143,-0.00001673,-0.00002020,0.
 00009384,0.00031367,0.00073791,-0.00026922,0.00025004,-0.00005111,0.00
 101414,-0.00291488,-0.00963698,-0.06074193,0.01249927,0.05601006,0.000
 75479,0.00198661,-0.00102398,0.00032192,-0.00065735,-0.00040675,0.0035
 4727,-0.00280727,-0.01782762,0.06030137,-0.00001595,0.00001868,-0.0000
 1543,0.00009816,0.00001347,0.00006435,-0.00009766,-0.00014201,-0.00009
 001,0.00001999,0.00015121,-0.00000838,0.00002321,-0.00002988,0.0000272
 2,0.00000735,0.00000917,0.00000356,-0.00012560,-0.00012827,0.00006006,
 -0.00001750,0.00003592,-0.00002630,0.00000676,-0.00000279,-0.00000135,
 -0.00000719,0.00000875,0.00000473,-0.00000067,0.00004058,-0.00002168,0
 .00003703,-0.00000383,0.00001298,-0.00000675,-0.00000173,-0.00000610,0
 .00001695,0.00020805,-0.00002022,0.00025128,-0.00031796,-0.00018324,-0
 .00008078,0.00003014,-0.00003836,-0.00000425,-0.00000580,0.00000063,-0
 .00006828,-0.00018971,0.00011924,0.00000054,0.00005216,0.00004818,-0.0
 0031945,-0.00028923,-0.00030483,0.00000652,-0.00000169,0.00001070,0.00
 001456,0.00001113,0.00001072,0.00000364,0.00000321,0.00000374,0.000008
 23,0.00001737,0.00000524,-0.00001063,-0.00001002,0.00000180,0.00065045
 ,-0.00017016,0.00049948,-0.00000458,0.00001792,-0.00000324,0.00000368,
 0.00000660,-0.00000493,0.00000248,0.00000414,-0.00000424,-0.00000014,-
 0.00000428,-0.00000280,0.00000178,0.00000133,-0.00000077,0.00000056,-0
 .00000230,-0.00000209,0.00000129,-0.00000956,0.00000675,-0.00000230,0.
 00000033,-0.00000026,0.00000255,0.00000318,-0.00000323,-0.00000086,-0.
 00001567,0.00001600,-0.00000944,0.00001758,0.00001542,0.00045291,0.002
 90791,-0.00075736,-0.00032388,-0.00022163,-0.00043703,-0.00619609,0.00
 424347,0.02932032,0.01189830,-0.05730643,-0.05442936,0.00113466,-0.004
 28664,0.00308543,-0.00029045,0.00104566,-0.00077085,0.00636000,-0.0046
 7522,-0.02383936,-0.01398819,0.06125636,-0.00001061,-0.00002980,0.0000
 2299,-0.00005004,0.00000108,-0.00005432,0.00017022,0.00002661,-0.00005
 501,-0.00001076,-0.00005071,-0.00001107,-0.00000875,0.00000756,0.00001
 303,-0.00000182,-0.00001234,-0.00000806,0.00002542,0.00006179,-0.00006
 899,0.00001315,0.00001861,-0.00003134,-0.00000395,0.00000432,0.0000234
 7,0.00000507,-0.00000168,-0.00001459,0.00000957,-0.00002005,0.00002105
 ,-0.00002175,-0.00001130,-0.00001195,0.00001002,0.00000626,0.00000379,
 0.00002910,-0.00009676,-0.00005745,-0.00009575,-0.00008738,0.00017942,
 -0.00000695,-0.00000496,-0.00001538,0.00000279,0.00000441,0.00000342,0
 .00038979,-0.00015149,-0.00091767,0.00000860,0.00000912,0.00000472,-0.
 00016795,-0.00005564,0.00011977,-0.00000364,0.00000361,0.00001030,-0.0
 0000555,-0.00000492,-0.00000386,-0.00000027,-0.00000288,-0.00000133,-0
 .00000843,-0.00001321,-0.00000367,0.00001234,0.00000990,-0.00000830,-0
 .00023756,0.00015352,-0.00014329,0.00000277,-0.00001506,0.00000111,-0.
 00000192,-0.00000127,0.00000067,-0.00000192,0.00000135,0.00000530,0.00
 000165,0.00000523,0.00000199,-0.00000566,0.00000548,0.00000216,-0.0000
 0082,0.00000133,0.00000030,0.00000031,0.00000263,-0.00000328,0.0000013
 4,0.00000039,-0.00000078,-0.00000187,-0.00000055,0.00000266,0.00000087
 ,0.00000550,-0.00000569,0.00000873,-0.00001417,-0.00001207,0.00004869,
 -0.00096532,0.00167490,0.00022764,0.00004950,0.00028920,0.00322487,-0.
 00409211,-0.01960578,0.05363974,-0.05068110,-0.29251745,-0.00118035,0.
 00313071,-0.00034475,-0.00014213,-0.00014830,0.00085326,0.00180911,-0.
 00078078,-0.00686706,-0.05726528,0.05365040,0.31786059,0.00000219,-0.0
 0002784,0.00000885,-0.00000819,0.00002457,-0.00004524,0.00003805,-0.00
 003961,0.00001635,-0.00000046,0.00002671,-0.00002122,0.00002481,-0.000
 00283,0.00000926,-0.00000029,-0.00001023,0.00000620,-0.00010106,-0.000
 04027,-0.00001814,-0.00009216,0.00005090,0.00002946,0.00000104,-0.0000
 0609,0.00003345,-0.00000314,0.00000163,0.00000149,0.00003625,0.0000111
 4,0.00000146,-0.00004633,-0.00003063,-0.00003821,0.00004603,0.00004510
 ,0.00000554,0.00012632,0.00009724,0.00000439,-0.00003938,-0.00026326,-
 0.00007704,-0.00001077,0.00004490,0.00000461,0.00000253,0.00000345,0.0
 0001333,-0.00000161,0.00017519,0.00010681,0.00002671,0.00006743,0.0000
 5636,-0.00009088,0.00000564,-0.00005753,-0.00000318,-0.00000559,0.0000
 3166,0.00000068,0.00000295,0.00000663,0.00000092,-0.00000149,0.0000045
 9,-0.00000644,-0.00000552,-0.00000169,0.00001163,0.00001634,-0.0000094
 2,0.00006963,-0.00018065,0.00000652,-0.00000466,-0.00001569,0.00000469
 ,0.00000918,0.00000932,-0.00000436,-0.00000246,0.00000656,0.00000278,0
 .00000650,0.00000398,0.00000016,-0.00000713,0.00000875,0.00000340,0.00
 000003,0.00000128,-0.00000184,-0.00000180,-0.00000696,-0.00000032,0.00
 000040,-0.00000202,-0.00000155,-0.00000736,-0.00000122,0.00000694,-0.0
 0001625,-0.00004378,0.00002191,0.00000238,-0.00002883,-0.00000520,0.00
 140234,0.00014112,0.00016928,0.00019511,0.00002949,0.00012545,-0.00776
 018,0.00033657,0.00093941,-0.29525084,0.05998872,0.02498343,0.00052481
 ,0.00004930,-0.00045913,0.00129936,0.00062933,-0.00122982,-0.01516211,
 0.00460218,0.00206227,-0.00496217,0.00056776,-0.00040806,0.31975196,0.
 00000898,0.00001630,-0.00000838,-0.00000304,-0.00003479,0.00004420,-0.
 00009778,0.00000322,0.00004221,-0.00001131,0.00001881,0.00001511,-0.00
 002103,-0.00001040,-0.00001477,-0.00000107,0.00001640,-0.00000706,0.00
 012214,0.00001019,-0.00003409,0.00001139,0.00005404,0.00000048,-0.0000
 0226,0.00000420,0.00000481,0.00000150,0.00000160,-0.00002083,-0.000058
 22,0.00000627,0.00001353,0.00007445,0.00002311,0.00003080,-0.00003919,
 -0.00003752,-0.00000581,-0.00015971,-0.00007337,0.00000066,0.00006821,
 0.00010454,0.00007005,-0.00001468,-0.00002017,-0.00002011,-0.00000792,
 -0.00000343,0.00000182,0.00001486,-0.00004452,-0.00006036,-0.00002155,
 -0.00002013,-0.00001676,0.00014493,-0.00001874,-0.00008100,0.00000218,
 0.00000742,-0.00002578,0.00000549,0.00000114,0.00000055,0.00000120,0.0
 0000369,-0.00000163,0.00000630,0.00000985,0.00000075,-0.00003814,-0.00
 003102,-0.00001124,0.00082449,-0.00047111,0.00071063,-0.00000481,0.000
 02207,-0.00001051,-0.00000288,-0.00000132,0.00000179,-0.00000239,0.000
 00695,0.00000173,-0.00000397,-0.00000589,0.00000368,0.00000226,-0.0000
 0004,-0.00000134,0.00000028,-0.00000232,-0.00000221,0.00000012,0.00000
 367,-0.00000040,-0.00000195,0.00000191,0.00000074,0.00000496,0.0000032
 2,-0.00000492,0.00001170,0.00003303,-0.00001097,0.00000763,0.00002200,
 0.00000182,-0.00004351,0.00331957,-0.00065735,-0.00079568,-0.00030895,
 -0.00042562,0.02812077,-0.00834673,-0.00270707,0.05734915,-0.05906649,
 -0.00674865,-0.00084096,0.00086287,-0.00038098,0.00039068,-0.00363908,
 0.00341979,-0.02479806,0.00697423,0.00317879,0.00603147,-0.00228955,0.
 00008247,-0.06623505,0.06289525,0.00001249,0.00002790,-0.00001012,-0.0
 0002180,-0.00003333,0.00004731,-0.00009899,0.00003914,0.00005634,-0.00
 000528,-0.00004587,0.00003969,-0.00003306,0.00000328,-0.00002103,0.000
 00310,0.00001718,-0.00001080,0.00017178,0.00005364,-0.00001362,-0.0000
 2212,-0.00000141,0.00002896,-0.00001871,-0.00000234,0.00001894,0.00001
 612,-0.00000206,-0.00001764,-0.00005252,-0.00000356,0.00000993,0.00003
 579,0.00000403,-0.00000599,-0.00001279,-0.00001727,0.00000300,-0.00020
 698,-0.00009193,0.00016632,0.00006107,0.00052067,-0.00021433,0.0000432
 3,-0.00004503,0.00006289,-0.00000693,-0.00000079,0.00002480,0.00015388
 ,-0.00050488,-0.00024620,-0.00003202,-0.00008408,-0.00003847,0.0002020
 6,-0.00000961,-0.00005298,-0.00000077,0.00000588,-0.00005635,0.0000025
 4,-0.00000304,-0.00000139,0.00000126,0.00000678,-0.00000195,0.00000412
 ,0.00000979,0.00000012,-0.00000985,-0.00000135,0.00001950,-0.00032198,
 -0.00019839,-0.00031342,-0.00000460,-0.00001128,-0.00000028,0.00000601
 ,0.00000318,0.00000422,-0.00000543,0.00000352,0.00000243,-0.00000516,-
 0.00000230,0.00000862,0.00000754,-0.00000058,-0.00000015,-0.00000029,0
 .00000090,-0.00000250,-0.00000355,0.00001767,-0.00001330,-0.00000062,0
 .00000098,0.00000004,-0.00000252,0.00000343,0.00000226,0.00002590,0.00
 002230,-0.00003773,0.00001088,-0.00002530,-0.00001100,0.00079986,-0.00
 146621,0.00047725,0.00027880,0.00040278,-0.00001799,-0.02203260,0.0044
 3162,0.00148472,0.02714250,-0.00638234,-0.05089046,-0.00018778,-0.0007
 7018,0.00070428,-0.00011723,0.00356421,-0.00139074,-0.00909334,0.00292
 829,-0.00014474,0.02960591,-0.00599551,-0.00033091,-0.02628792,0.00363
 146,0.05068246\\0.00000094,0.00000080,-0.00000129,0.00000034,-0.000000
 54,-0.00000265,0.00000223,0.00000043,-0.00000285,0.00000223,-0.0000012
 7,-0.00000241,0.00000297,0.00000037,-0.00000283,0.00000199,-0.00000045
 ,-0.00000233,-0.00000136,0.00000181,-0.00000107,-0.00000042,-0.0000042
 3,-0.00000361,-0.00000063,0.00000100,-0.00000041,-0.00000324,-0.000000
 19,0.00000050,-0.00000258,0.00000074,0.00000032,0.00000217,0.00000026,
 0.00000421,-0.00000280,-0.00000131,0.00000229,0.00000192,0.00000142,0.
 00000268,-0.00000013,0.00000004,-0.00000061,0.00000162,0.00000029,0.00
 000258,0.00000035,0.00000032,0.00000307,0.00000272,-0.00000153,0.00000
 076,0.00000291,-0.00000131,0.00000306,0.00000054,-0.00000100,-0.000001
 55,0.00000302,0.00000009,-0.00000279,0.00000353,-0.00000012,-0.0000036
 1,0.00000253,-0.00000002,-0.00000285,0.00000130,0.00000106,-0.00000070
 ,-0.00000114,0.00000224,0.00000009,-0.00000330,0.00000111,0.00000226,-
 0.00000410,0.00000101,0.00000011,-0.00000263,0.00000095,-0.00000035,-0
 .00000205,0.00000077,0.00000105,-0.00000160,0.00000023,-0.00000094,0.0
 0000127,-0.00000008,0.00000011,0.00000009,-0.00000104,0.00000197,0.000
 00122,-0.00000111,0.00000181,-0.00000043,-0.00000107,0.00000364,-0.000
 00216,0.,0.00000334,0.00000099,-0.00000082,0.00000206,-0.00000212,-0.0
 0000114,0.00000106,0.00000106,-0.00000195,0.00000050,-0.00000144,0.000
 00155,0.00000211,-0.00000298,0.00000090,-0.00000122,-0.00000017,0.0000
 0056,-0.00000115,-0.00000200,0.00000044,-0.00000112,-0.00000085,-0.000
 00005,0.00000015,-0.00000013,0.00000028,-0.00000084,0.00000070,-0.0000
 0019,-0.00000103,-0.00000036,0.00000077,-0.00000154\\\@


 Sacred cows make the best hamburger.
                               -- Mark Twain
 Job cpu time:       3 days  4 hours 26 minutes 29.4 seconds.
 Elapsed time:       0 days  4 hours 46 minutes 59.8 seconds.
 File lengths (MBytes):  RWF=   4244 Int=      0 D2E=      0 Chk=     53 Scr=      1
 Normal termination of Gaussian 16 at Tue Jun 15 17:42:39 2021.
